Title
81383
    1CHL1    C3    1   0.359   4.777  10.301  0.0194  0.0713  0.2089
    1CHL1    H3    2   0.327   4.672  10.312  0.0521 -0.1269 -1.3261
    1CHL1    O3    3   0.380   4.822  10.436  0.3012  0.2539  0.4123
    1CHL1   H3'    4   0.411   4.913  10.429  1.5203 -0.0343  1.6846
    1CHL1    C4    5   0.493   4.783  10.220 -0.0904 -0.0989 -0.4364
    1CHL1   H4A    6   0.541   4.883  10.232  0.1865 -0.1888 -0.7714
    1CHL1   H4B    7   0.564   4.715  10.270  2.0052  1.8619 -0.5498
    1CHL1    C5    8   0.487   4.746  10.074 -0.1899 -0.0806 -0.2807
    1CHL1    C6    9   0.567   4.650  10.023  0.2649 -0.4258  0.7791
    1CHL1    H6   10   0.633   4.595  10.092 -0.6147 -1.5778  0.7429
    1CHL1    C7   11   0.554   4.612   9.880  0.7583  0.1786 -0.2641
    1CHL1   H7A   12   0.644   4.567   9.833 -0.8894 -0.4970 -3.0199
    1CHL1   H7B   13   0.478   4.530   9.878  1.2533 -0.3219  0.6288
    1CHL1    C8   14   0.495   4.728   9.798 -0.1105 -0.2017  0.2653
    1CHL1    H8   15   0.553   4.823   9.796 -1.1007  0.4188  0.5017
    1CHL1   C14   16   0.477   4.684   9.656 -0.1497  0.1242  0.4002
    1CHL1   H14   17   0.419   4.590   9.651  1.0130 -0.5756 -0.5182
    1CHL1   C15   18   0.612   4.645   9.585 -0.3031  0.8465  0.3448
    1CHL1  H15A   19   0.681   4.727   9.614 -0.8804  0.4591  3.1075
    1CHL1  H15B   20   0.656   4.554   9.631 -1.2875  0.6395  0.8979
    1CHL1   C16   21   0.579   4.642   9.433 -0.0504 -0.6140  0.1894
    1CHL1  H16A   22   0.659   4.685   9.368  2.3386 -1.3495  2.4984
    1CHL1  H16B   23   0.559   4.535   9.410 -1.9923 -0.2421 -0.0697
    1CHL1   C17   24   0.432   4.719   9.426 -0.4652 -0.4868  0.3308
    1CHL1   H17   25   0.349   4.645   9.430 -2.7034  1.7059 -1.9834
    1CHL1   C13   26   0.420   4.790   9.565  0.3555 -0.4293  0.0725
    1CHL1   C18   27   0.508   4.921   9.549  0.1171  0.6898 -0.0635
    1CHL1  H18A   28   0.525   4.980   9.642 -1.1141  0.9820 -0.0073
    1CHL1  H18B   29   0.603   4.898   9.497 -1.3628 -3.5622 -1.3076
    1CHL1  H18C   30   0.446   4.981   9.479 -0.8706 -1.4964 -1.1514
    1CHL1   C12   31   0.275   4.809   9.620 -0.0156 -0.7544 -0.0490
    1CHL1  H12A   32   0.219   4.888   9.566  0.6460  0.3943  0.8833
    1CHL1  H12B   33   0.214   4.716   9.613 -1.2393  0.0488 -0.3645
    1CHL1   C11   34   0.274   4.854   9.766  0.4223 -0.8020 -0.4937
    1CHL1  H11A   35   0.304   4.962   9.765 -0.2051 -0.6052  0.7010
    1CHL1  H11B   36   0.167   4.860   9.794 -0.1648  2.5472 -2.8011
    1CHL1    C9   37   0.359   4.766   9.859 -0.1626  0.1851  0.1284
    1CHL1    H9   38   0.307   4.668   9.869  0.8877 -0.3753  0.3181
    1CHL1   C10   39   0.374   4.821  10.002 -0.1065 -0.1700 -0.1078
    1CHL1   C19   40   0.431   4.968  10.001  0.2973  0.4885 -0.2652
    1CHL1  H19A   41   0.440   5.009  10.103  0.0925 -0.1045 -0.0049
    1CHL1  H19B   42   0.531   4.977   9.953  0.4176  2.2676  0.2240
    1CHL1  H19C   43   0.369   5.042   9.947  1.6771  1.3429 -0.7550
    1CHL1    C1   44   0.237   4.801  10.081  0.3960 -0.0292 -0.3771
    1CHL1   H1A   45   0.158   4.862  10.033  0.9961  0.1082 -1.1987
    1CHL1   H1B   46   0.208   4.694  10.072 -0.4100  0.0757  0.7835
    1CHL1    C2   47   0.244   4.851  10.226 -0.9609  0.1892 -0.1473
    1CHL1   H2A   48   0.146   4.833  10.275 -0.1742 -1.0156  1.0442
    1CHL1   H2B   49   0.258   4.962  10.225  0.1055  0.0629 -0.7879
    1CHL1   C20   50   0.395   4.809   9.306  0.5658  0.0074 -0.2651
    1CHL1   H20   51   0.472   4.889   9.306  1.3045 -0.6741  0.8892
    1CHL1   C21   52   0.255   4.878   9.311  0.1295 -0.2671  0.0370
    1CHL1  H21A   53   0.245   4.943   9.222  1.1772 -0.3483 -0.1506
    1CHL1  H21B   54   0.257   4.962   9.383 -0.2128 -0.1135 -0.1312
    1CHL1  H21C   55   0.172   4.805   9.319  0.9340 -1.1109  1.1045
    1CHL1   C22   56   0.407   4.728   9.170  0.6644 -0.2131 -0.3783
    1CHL1  H22A   57   0.498   4.666   9.170  1.0188  0.1932  2.0289
    1CHL1  H22B   58   0.324   4.653   9.175  1.1029 -0.7010 -0.3852
    1CHL1   C23   59   0.382   4.804   9.037 -0.2489 -0.1111  0.6096
    1CHL1  H23A   60   0.274   4.815   9.012  0.0994 -0.2360 -1.1175
    1CHL1  H23B   61   0.433   4.902   9.046  2.4039 -1.2889 -0.3150
    1CHL1   C24   62   0.470   4.741   8.921 -0.4857 -0.5571 -0.4372
    1CHL1  H24A   63   0.576   4.752   8.954 -0.7060 -0.5754  0.3129
    1CHL1  H24B   64   0.444   4.633   8.917 -1.4331 -0.4513  1.5773
    1CHL1   C25   65   0.451   4.795   8.787 -0.5216 -0.1153 -0.5338
    1CHL1   H25   66   0.459   4.906   8.785  1.5145 -0.1881  0.9748
    1CHL1   C26   67   0.559   4.757   8.694  0.2516  0.1801  0.5347
    1CHL1  H26A   68   0.655   4.790   8.741 -0.1311  0.6239  1.0156
    1CHL1  H26B   69   0.556   4.652   8.657 -1.9154  0.9325 -1.6424
    1CHL1  H26C   70   0.535   4.817   8.604  0.8224 -1.0914 -0.4907
    1CHL1   C27   71   0.312   4.778   8.736  0.5781 -0.2120 -0.0527
    1CHL1  H27A   72   0.273   4.676   8.758  2.1448 -0.9273 -0.4415
    1CHL1  H27B   73   0.243   4.856   8.774  0.3255  0.2869 -1.4690
    1CHL1  H27C   74   0.307   4.794   8.626  0.9047 -2.8919 -0.5225
    2CHL1    C3   75   1.892   3.336   9.915  0.1569 -0.0395 -0.3234
    2CHL1    H3   76   1.889   3.226   9.900 -1.2949  0.1920 -2.0119
    2CHL1    O3   77   1.892   3.370  10.056  0.6654  0.2645  0.0364
    2CHL1   H3'   78   1.812   3.333  10.092  0.1260 -0.5004 -1.8068
    2CHL1    C4   79   2.023   3.379   9.854  0.3559 -0.7419  0.7454
    2CHL1   H4A   80   2.042   3.486   9.878  1.7283 -1.3605  2.7078
    2CHL1   H4B   81   2.110   3.337   9.909  1.7743  2.0304  0.7784
    2CHL1    C5   82   2.033   3.369   9.701  0.0030 -0.0761 -0.9491
    2CHL1    C6   83   2.131   3.302   9.643 -0.5276  0.9106  0.2769
    2CHL1    H6   84   2.211   3.265   9.708  0.3881  1.6210 -0.4101
    2CHL1    C7   85   2.139   3.278   9.493 -0.1893  0.3464 -0.3249
    2CHL1   H7A   86   2.248   3.284   9.471  0.4209  1.0109  2.4667
    2CHL1   H7B   87   2.102   3.177   9.467 -1.6159  1.0282 -1.0775
    2CHL1    C8   88   2.052   3.385   9.415  0.7088  0.1985  0.1769
    2CHL1    H8   89   2.094   3.487   9.431 -1.7286  1.2406  0.4516
    2CHL1   C14   90   2.037   3.360   9.263  0.4317  0.2516 -0.0147
    2CHL1   H14   91   1.984   3.263   9.250 -0.9388  1.0927 -0.9820
    2CHL1   C15   92   2.164   3.355   9.179  0.8453 -0.0359  0.4548
    2CHL1  H15A   93   2.235   3.436   9.208  0.5993 -0.2012  1.5456
    2CHL1  H15B   94   2.228   3.264   9.185 -0.1939 -0.8108  0.0114
    2CHL1   C16   95   2.109   3.374   9.036 -0.4669 -0.4042 -0.0224
    2CHL1  H16A   96   2.159   3.461   8.988  0.0462 -0.1454  0.9684
    2CHL1  H16B   97   2.150   3.292   8.974 -0.7529 -1.2201  0.8512
    2CHL1   C17   98   1.951   3.396   9.044 -0.6268 -0.7262  1.4754
    2CHL1   H17   99   1.914   3.291   9.049 -0.7201 -0.7609  0.1628
    2CHL1   C13  100   1.941   3.454   9.188 -1.0537 -1.0136  0.2708
    2CHL1   C18  101   1.997   3.600   9.190  0.3095 -0.3012 -0.1276
    2CHL1  H18A  102   2.102   3.614   9.158  0.5147  1.0052  1.0088
    2CHL1  H18B  103   1.926   3.651   9.121 -0.6705 -0.6259  0.6295
    2CHL1  H18C  104   1.991   3.640   9.293 -2.3053 -4.2927  1.4910
    2CHL1   C12  105   1.799   3.453   9.245  0.1968  0.4031  0.4269
    2CHL1  H12A  106   1.737   3.532   9.196 -0.7687  0.2374  1.3485
    2CHL1  H12B  107   1.737   3.364   9.225  0.1770  0.3539  0.7002
    2CHL1   C11  108   1.802   3.478   9.397  0.4116 -0.4402  0.2060
    2CHL1  H11A  109   1.812   3.587   9.415 -0.1051 -0.3626  0.0319
    2CHL1  H11B  110   1.702   3.456   9.441  0.4732  0.2083  0.6923
    2CHL1    C9  111   1.909   3.396   9.477 -0.2293  0.2158  0.1493
    2CHL1    H9  112   1.872   3.291   9.469  0.8571 -0.3701  2.0683
    2CHL1   C10  113   1.913   3.431   9.629  0.0222  0.1708 -0.2650
    2CHL1   C19  114   1.913   3.586   9.654 -0.0748  0.3602 -0.1963
    2CHL1  H19A  115   1.989   3.630   9.586  0.1986 -0.7422 -0.6270
    2CHL1  H19B  116   1.812   3.623   9.626  0.5545  2.1266 -0.2548
    2CHL1  H19C  117   1.926   3.614   9.761 -2.7359  2.0589 -0.2444
    2CHL1    C1  118   1.792   3.362   9.695 -0.5311 -0.3434  0.4684
    2CHL1   H1A  119   1.696   3.390   9.647 -0.5055 -1.5135 -0.3055
    2CHL1   H1B  120   1.802   3.254   9.674  1.9535 -0.7293  3.0512
    2CHL1    C2  121   1.770   3.389   9.841  0.4308 -0.3875 -0.7534
    2CHL1   H2A  122   1.678   3.337   9.875  1.7375 -2.6760 -0.5421
    2CHL1   H2B  123   1.759   3.499   9.852  0.6620 -0.3213 -1.1554
    2CHL1   C20  124   1.884   3.463   8.923  0.1477  0.0198  0.1327
    2CHL1   H20  125   1.927   3.564   8.909  0.0826 -0.2454 -2.5663
    2CHL1   C21  126   1.730   3.479   8.938 -0.0290 -0.2940  0.1567
    2CHL1  H21A  127   1.700   3.567   8.999  2.3296  1.1720 -0.6430
    2CHL1  H21B  128   1.692   3.385   8.983  0.3303  0.2144  1.5895
    2CHL1  H21C  129   1.697   3.487   8.832 -1.3404 -1.5641  0.4318
    2CHL1   C22  130   1.910   3.390   8.790  0.3670 -0.0264 -0.6240
    2CHL1  H22A  131   1.856   3.443   8.709 -0.0852 -1.8203 -1.5674
    2CHL1  H22B  132   2.018   3.387   8.766 -0.0221  0.4788 -2.5896
    2CHL1   C23  133   1.855   3.246   8.783 -0.4981 -0.0125  0.1599
    2CHL1  H23A  134   1.908   3.188   8.862  1.8300  2.4290  0.5416
    2CHL1  H23B  135   1.747   3.249   8.806 -0.5721  2.1322 -0.2710
    2CHL1   C24  136   1.891   3.171   8.661  0.4281  0.0802  0.6355
    2CHL1  H24A  137   1.866   3.239   8.576  0.1099  0.6295  1.1652
    2CHL1  H24B  138   1.999   3.148   8.647  0.1865 -1.0634  0.5534
    2CHL1   C25  139   1.812   3.037   8.652  0.1689  0.5246  1.3128
    2CHL1   H25  140   1.708   3.057   8.686 -0.2750  0.4627  0.0732
    2CHL1   C26  141   1.793   2.999   8.505 -0.0326  0.4935 -0.2851
    2CHL1  H26A  142   1.889   2.996   8.449  0.0357 -0.5690 -0.1297
    2CHL1  H26B  143   1.739   2.903   8.496  0.0064  0.0833  2.7613
    2CHL1  H26C  144   1.723   3.068   8.453  2.3406  2.3548 -1.2497
    2CHL1   C27  145   1.871   2.929   8.745  0.8568  0.2617 -0.1316
    2CHL1  H27A  146   1.841   2.956   8.848  0.6995  1.0806 -0.3925
    2CHL1  H27B  147   1.842   2.833   8.697  2.5861 -1.0156  1.2167
    2CHL1  H27C  148   1.982   2.933   8.746  1.2545 -4.3204 -1.0433
    3CHL1    C3  149   1.560   2.973  10.040 -0.4119 -0.1240 -0.3007
    3CHL1    H3  150   1.521   3.077  10.045 -2.7104 -0.9915  2.0874
    3CHL1    O3  151   1.588   2.920  10.166 -0.6754 -0.0062 -0.2825
    3CHL1   H3'  152   1.593   2.825  10.155 -0.9093 -0.4944  2.7763
    3CHL1    C4  153   1.458   2.886   9.956 -0.9044  0.7828 -0.1066
    3CHL1   H4A  154   1.500   2.783   9.950 -2.6977 -0.2414  2.5580
    3CHL1   H4B  155   1.359   2.870  10.004 -0.4741 -2.0901  0.0387
    3CHL1    C5  156   1.436   2.940   9.818  0.4709 -0.1680 -0.4846
    3CHL1    C6  157   1.314   2.981   9.781  0.2310  0.2319  0.9858
    3CHL1    H6  158   1.234   2.981   9.857  0.0806 -1.8956  0.9007
    3CHL1    C7  159   1.280   3.030   9.643  0.1798  1.0621  0.0957
    3CHL1   H7A  160   1.185   2.980   9.616 -1.7592  3.6535  1.5866
    3CHL1   H7B  161   1.267   3.141   9.641  0.2975  1.2283  3.1449
    3CHL1    C8  162   1.388   2.992   9.540  0.1045  0.6257 -0.8873
    3CHL1    H8  163   1.375   2.884   9.518 -2.9351  0.6193  0.3864
    3CHL1   C14  164   1.371   3.062   9.409 -0.8341  0.5166  0.4417
    3CHL1   H14  165   1.391   3.172   9.414  0.2460  0.3077  0.8683
    3CHL1   C15  166   1.232   3.064   9.343  0.3638 -0.6827  0.0709
    3CHL1  H15A  167   1.172   2.975   9.373 -1.3289  0.9556  1.8775
    3CHL1  H15B  168   1.178   3.157   9.370  2.3432  0.7531 -0.6801
    3CHL1   C16  169   1.249   3.067   9.191 -0.6716  0.0089 -0.6360
    3CHL1  H16A  170   1.210   2.968   9.160 -0.5779 -0.6296  1.1796
    3CHL1  H16B  171   1.180   3.132   9.133 -2.5644 -0.6572  0.7647
    3CHL1   C17  172   1.403   3.083   9.168  0.5027 -0.1657 -0.3728
    3CHL1   H17  173   1.419   3.192   9.181 -1.8269  0.0502  1.3073
    3CHL1   C13  174   1.468   3.013   9.294 -0.8052  0.3838 -0.6664
    3CHL1   C18  175   1.456   2.860   9.276 -0.3102  1.0590  0.0537
    3CHL1  H18A  176   1.532   2.831   9.200 -0.1029  0.8754  0.3305
    3CHL1  H18B  177   1.480   2.804   9.369  0.1634 -0.8122 -1.1547
    3CHL1  H18C  178   1.358   2.829   9.236  0.2825 -0.5845 -0.2004
    3CHL1   C12  179   1.614   3.054   9.338  0.3097 -0.2152  0.6549
    3CHL1  H12A  180   1.700   3.018   9.279 -0.4732  1.0449 -1.3359
    3CHL1  H12B  181   1.619   3.165   9.343 -0.1976 -0.1341 -0.4046
    3CHL1   C11  182   1.642   2.990   9.475 -0.4443 -0.2348  0.5088
    3CHL1  H11A  183   1.639   2.879   9.466  1.7555 -0.3835  1.0152
    3CHL1  H11B  184   1.740   3.015   9.521 -0.7649 -0.4923  1.3421
    3CHL1    C9  185   1.530   3.017   9.589 -0.7667 -0.6640 -0.5761
    3CHL1    H9  186   1.539   3.126   9.610 -0.6968 -0.8084  0.1461
    3CHL1   C10  187   1.558   2.950   9.731 -0.0262 -0.7051 -0.1948
    3CHL1   C19  188   1.627   2.812   9.710 -0.0431  0.0461  0.1213
    3CHL1  H19A  189   1.732   2.818   9.673  0.5524 -0.9907  1.5551
    3CHL1  H19B  190   1.645   2.763   9.808  2.5661  1.5164  0.4557
    3CHL1  H19C  191   1.560   2.754   9.643  1.1573 -1.5720  0.2616
    3CHL1    C1  192   1.654   3.046   9.814  0.6826  0.3916  0.6772
    3CHL1   H1A  193   1.744   3.072   9.753 -1.9424  1.9586 -2.9700
    3CHL1   H1B  194   1.597   3.141   9.827 -1.3585 -0.5939 -0.6478
    3CHL1    C2  195   1.693   2.987   9.954  0.5680  0.3787 -0.1815
    3CHL1   H2A  196   1.758   3.057  10.010 -0.2225 -0.3001  1.6704
    3CHL1   H2B  197   1.751   2.892   9.949  0.9385  0.6608 -1.5408
    3CHL1   C20  198   1.443   3.041   9.028 -0.8223 -0.1421  0.2641
    3CHL1   H20  199   1.432   2.930   9.019  1.2030 -0.2079 -2.6432
    3CHL1   C21  200   1.592   3.063   8.990 -0.0737  0.1192 -0.1669
    3CHL1  H21A  201   1.602   3.174   8.994 -0.6740  0.2342 -1.3765
    3CHL1  H21B  202   1.622   3.032   8.887  0.1556 -1.4783  0.3590
    3CHL1  H21C  203   1.657   3.006   9.060  0.1200 -0.7122 -0.9991
    3CHL1   C22  204   1.360   3.103   8.906 -0.0268  0.3985 -0.2401
    3CHL1  H22A  205   1.408   3.071   8.811 -1.7171  1.0720 -1.3731
    3CHL1  H22B  206   1.259   3.058   8.898 -0.8361  1.4797  2.6435
    3CHL1   C23  207   1.353   3.260   8.915 -0.1583  0.4105  0.2993
    3CHL1  H23A  208   1.292   3.292   9.002 -0.8983 -0.2067  0.0183
    3CHL1  H23B  209   1.452   3.311   8.915 -0.2343  0.5729 -0.8221
    3CHL1   C24  210   1.278   3.332   8.796  0.0481  0.3680 -0.2675
    3CHL1  H24A  211   1.300   3.439   8.813  0.7912  0.2357 -0.3405
    3CHL1  H24B  212   1.339   3.310   8.706  0.7166 -1.6194  0.6098
    3CHL1   C25  213   1.138   3.275   8.777 -0.2923  0.4304  0.1256
    3CHL1   H25  214   1.152   3.165   8.778  2.9905  0.7655  0.5570
    3CHL1   C26  215   1.039   3.328   8.881  0.7168  0.3290  0.2526
    3CHL1  H26A  216   1.035   3.439   8.890 -0.9010  0.2517  0.9703
    3CHL1  H26B  217   0.935   3.295   8.860  0.8304  0.7359 -1.0029
    3CHL1  H26C  218   1.065   3.291   8.983 -1.0854 -2.1577 -0.0847
    3CHL1   C27  219   1.103   3.318   8.627  0.5049  0.6518  0.0520
    3CHL1  H27A  220   1.195   3.310   8.564 -0.7308 -3.3930 -1.6032
    3CHL1  H27B  221   1.015   3.256   8.599  1.0204  0.3736 -1.0018
    3CHL1  H27C  222   1.065   3.422   8.631 -1.8321 -0.1455 -0.1223
    4CHL1    C3  223   1.585   4.634  10.308 -0.0276 -0.4849 -0.0767
    4CHL1    H3  224   1.554   4.538  10.262  1.1855 -0.6714 -0.5344
    4CHL1    O3  225   1.540   4.645  10.434 -0.1658 -0.0645  0.3324
    4CHL1   H3'  226   1.623   4.634  10.481 -0.0776  1.8367  0.7035
    4CHL1    C4  227   1.740   4.646  10.295  0.2844  0.4833 -0.2190
    4CHL1   H4A  228   1.766   4.743  10.342 -1.1146  0.0898  1.4769
    4CHL1   H4B  229   1.790   4.562  10.348 -2.6077  1.0664  3.9368
    4CHL1    C5  230   1.789   4.651  10.154 -0.0261 -0.8063  0.3920
    4CHL1    C6  231   1.874   4.568  10.101  0.1231 -0.3841  0.9231
    4CHL1    H6  232   1.925   4.487  10.156  3.0338  1.0052  0.4546
    4CHL1    C7  233   1.921   4.581   9.962 -0.0890  0.3955 -0.3665
    4CHL1   H7A  234   2.032   4.574   9.959 -0.1137  0.2568 -1.3017
    4CHL1   H7B  235   1.877   4.509   9.890 -2.3217  1.1659  0.1515
    4CHL1    C8  236   1.895   4.724   9.901 -0.3574  0.6349 -0.3231
    4CHL1    H8  237   1.971   4.797   9.936  0.1334 -0.4279  0.9146
    4CHL1   C14  238   1.935   4.723   9.748 -0.0824  0.4398  0.2293
    4CHL1   H14  239   1.876   4.642   9.700  1.1899 -0.9966  0.9973
    4CHL1   C15  240   2.078   4.684   9.715 -0.1669  0.2586  0.1662
    4CHL1  H15A  241   2.149   4.718   9.794 -0.2273 -0.0840  0.3661
    4CHL1  H15B  242   2.083   4.573   9.718 -0.1149  0.2398 -0.5373
    4CHL1   C16  243   2.093   4.730   9.570  0.1004  0.1857 -0.4391
    4CHL1  H16A  244   2.177   4.797   9.543 -1.7412  1.5328 -3.4421
    4CHL1  H16B  245   2.104   4.636   9.511  3.2159 -0.8711  1.5921
    4CHL1   C17  246   1.960   4.813   9.532  0.0916  0.1246 -0.0714
    4CHL1   H17  247   1.894   4.732   9.494  0.8582 -0.7244  0.3524
    4CHL1   C13  248   1.907   4.854   9.670  0.9694  0.9487 -0.3804
    4CHL1   C18  249   1.983   4.974   9.722  1.2360 -0.1946 -0.3339
    4CHL1  H18A  250   1.966   5.008   9.826 -1.9759 -0.0070 -0.8308
    4CHL1  H18B  251   2.092   4.952   9.726  1.1468 -0.4616  1.1538
    4CHL1  H18C  252   1.975   5.061   9.653  0.0434  0.3574  0.4751
    4CHL1   C12  253   1.751   4.867   9.681  0.2883  0.0761  0.2231
    4CHL1  H12A  254   1.717   4.959   9.629  0.6671 -1.1392 -2.3330
    4CHL1  H12B  255   1.704   4.775   9.641 -0.7119  1.4328 -1.8584
    4CHL1   C11  256   1.716   4.890   9.831 -0.8311 -0.1049 -0.0067
    4CHL1  H11A  257   1.762   4.987   9.862 -0.5269  0.0788 -0.9858
    4CHL1  H11B  258   1.606   4.901   9.821 -0.6048  0.1645 -3.2271
    4CHL1    C9  259   1.756   4.765   9.918 -0.2900 -0.1131  0.1349
    4CHL1    H9  260   1.696   4.682   9.874 -1.7044  0.6629  0.5127
    4CHL1   C10  261   1.720   4.769  10.071 -0.4375  0.6918  0.2811
    4CHL1   C19  262   1.766   4.909  10.114 -0.0905 -0.1777  0.2692
    4CHL1  H19A  263   1.743   4.917  10.222  1.9227  2.3101  0.5816
    4CHL1  H19B  264   1.874   4.924  10.097 -0.0640  3.8943  2.8141
    4CHL1  H19C  265   1.713   4.995  10.067  1.2713  1.2316  1.2490
    4CHL1    C1  266   1.571   4.748  10.084 -0.0427  0.1367  0.0678
    4CHL1   H1A  267   1.518   4.813  10.011  0.6217  2.2626  1.3818
    4CHL1   H1B  268   1.555   4.645  10.046 -0.5923  0.4996 -0.6988
    4CHL1    C2  269   1.512   4.745  10.221 -0.2382  0.5048  0.0516
    4CHL1   H2A  270   1.404   4.719  10.233  0.6707 -4.0249 -0.0009
    4CHL1   H2B  271   1.529   4.841  10.274  1.1980 -0.7148  1.9224
    4CHL1   C20  272   1.983   4.910   9.415  0.1535 -0.0281 -0.4207
    4CHL1   H20  273   2.025   5.006   9.453 -2.5510  1.3511 -0.6581
    4CHL1   C21  274   1.845   4.941   9.360  0.1777  0.0302  0.3753
    4CHL1  H21A  275   1.841   4.997   9.264  2.1465 -1.0089 -0.3707
    4CHL1  H21B  276   1.792   5.000   9.438  3.3344  2.5071  0.8723
    4CHL1  H21C  277   1.785   4.850   9.338  2.1826 -1.4551  0.7482
    4CHL1   C22  278   2.080   4.846   9.307 -0.3458 -0.4674  0.3435
    4CHL1  H22A  279   2.179   4.817   9.349  0.7171 -0.4276 -1.9596
    4CHL1  H22B  280   2.028   4.754   9.275  0.9596 -0.4342 -2.1220
    4CHL1   C23  281   2.092   4.931   9.174 -0.0675 -0.2049 -0.1641
    4CHL1  H23A  282   1.994   4.945   9.123 -0.2259  0.3984  0.2961
    4CHL1  H23B  283   2.128   5.030   9.206 -2.3282  0.6021  0.0809
    4CHL1   C24  284   2.191   4.860   9.083  0.1615  0.2516 -0.4075
    4CHL1  H24A  285   2.288   4.853   9.138  0.5322  0.5776 -1.0078
    4CHL1  H24B  286   2.153   4.759   9.055  1.4463 -0.0426 -1.1921
    4CHL1   C25  287   2.211   4.928   8.949  0.5756 -0.0700  0.0526
    4CHL1   H25  288   2.187   5.035   8.969  1.3245 -0.0528  0.9135
    4CHL1   C26  289   2.356   4.912   8.893 -0.1622 -0.0056 -0.3621
    4CHL1  H26A  290   2.432   4.947   8.966  0.2871  0.3775 -1.0016
    4CHL1  H26B  291   2.375   4.805   8.872 -1.2070 -0.2423 -0.1781
    4CHL1  H26C  292   2.378   4.968   8.800 -0.7893 -0.7030 -0.9411
    4CHL1   C27  293   2.108   4.889   8.844  0.9538  0.3305  0.4447
    4CHL1  H27A  294   2.004   4.886   8.884  0.3269 -0.7315 -1.1728
    4CHL1  H27B  295   2.106   4.960   8.759  0.3339  0.0064  0.1817
    4CHL1  H27C  296   2.143   4.791   8.807  3.7327  0.4365  2.4452
    5CHL1    C3  297   1.675   1.535  10.195 -0.2491 -0.4689 -0.0950
    5CHL1    H3  298   1.681   1.426  10.174  1.1323 -1.0087  2.7552
    5CHL1    O3  299   1.668   1.552  10.334  1.3832  0.2319 -0.3246
    5CHL1   H3'  300   1.584   1.597  10.341  1.3523  0.0907  0.2793
    5CHL1    C4  301   1.791   1.617  10.141  0.7440 -0.6726  0.3740
    5CHL1   H4A  302   1.771   1.719  10.180 -0.9849  0.4226 -2.9897
    5CHL1   H4B  303   1.877   1.562  10.186 -1.4945 -3.0249  2.1226
    5CHL1    C5  304   1.795   1.620   9.993 -0.1944 -0.0606 -0.2124
    5CHL1    C6  305   1.898   1.565   9.919 -0.4695 -0.0051  0.5286
    5CHL1    H6  306   1.972   1.503   9.973 -1.1619 -2.9194 -1.6272
    5CHL1    C7  307   1.895   1.568   9.770  0.0809 -0.6721  0.5588
    5CHL1   H7A  308   1.985   1.599   9.713  0.6966 -2.7990  0.2760
    5CHL1   H7B  309   1.886   1.463   9.734  1.4318  0.2741 -2.9768
    5CHL1    C8  310   1.781   1.650   9.690 -0.4760 -0.4455 -0.5692
    5CHL1    H8  311   1.809   1.758   9.692  1.1184 -0.8313 -0.5598
    5CHL1   C14  312   1.759   1.601   9.552 -0.1373 -0.6044 -0.5030
    5CHL1   H14  313   1.715   1.500   9.571 -0.2489 -0.6126 -0.7992
    5CHL1   C15  314   1.881   1.586   9.463 -0.1411 -0.0686  0.0223
    5CHL1  H15A  315   1.939   1.681   9.462  0.2745 -0.2586  1.9491
    5CHL1  H15B  316   1.945   1.500   9.495 -0.0388  0.5980  1.7051
    5CHL1   C16  317   1.824   1.559   9.323 -0.0298 -0.2980  0.4059
    5CHL1  H16A  318   1.863   1.628   9.246 -3.2040  0.1417 -0.9855
    5CHL1  H16B  319   1.831   1.454   9.287 -1.2001 -0.2376 -0.0494
    5CHL1   C17  320   1.663   1.585   9.340  0.1825  0.3946 -0.0034
    5CHL1   H17  321   1.628   1.481   9.360 -1.0417  0.3241 -2.2087
    5CHL1   C13  322   1.643   1.666   9.470  0.6948 -0.0909  0.1336
    5CHL1   C18  323   1.672   1.811   9.434  0.4631 -0.0773  0.4034
    5CHL1  H18A  324   1.775   1.828   9.395  0.5589  0.5291  0.9022
    5CHL1  H18B  325   1.595   1.859   9.369  1.0474  0.4691  0.1041
    5CHL1  H18C  326   1.651   1.878   9.521 -0.7453  1.3929 -0.9400
    5CHL1   C12  327   1.512   1.647   9.558  0.1117 -0.1825 -0.6465
    5CHL1  H12A  328   1.427   1.699   9.507 -0.4299 -1.7271 -1.3606
    5CHL1  H12B  329   1.486   1.540   9.550  1.5283 -0.5605 -0.4857
    5CHL1   C11  330   1.529   1.699   9.702  0.2285  0.4082 -0.2236
    5CHL1  H11A  331   1.543   1.809   9.701 -1.5480  0.6609 -0.7115
    5CHL1  H11B  332   1.438   1.674   9.762  0.7054  0.0859  0.3793
    5CHL1    C9  333   1.653   1.633   9.775 -0.2154  0.8087 -0.2010
    5CHL1    H9  334   1.631   1.524   9.773 -3.5054  1.2840  1.8657
    5CHL1   C10  335   1.656   1.665   9.926  1.0334 -0.0945 -0.0984
    5CHL1   C19  336   1.626   1.817   9.949 -0.6053  0.1821 -0.3701
    5CHL1  H19A  337   1.523   1.831   9.910 -1.9158 -0.3260  2.6357
    5CHL1  H19B  338   1.621   1.858  10.051  0.4112  0.1862 -0.3128
    5CHL1  H19C  339   1.685   1.887   9.886 -1.8393  2.7691  1.2379
    5CHL1    C1  340   1.534   1.593   9.993  0.0400 -0.2780 -0.0481
    5CHL1   H1A  341   1.441   1.647   9.964  0.4443 -0.1007 -1.0313
    5CHL1   H1B  342   1.533   1.489   9.954 -1.4255  0.5007 -2.2921
    5CHL1    C2  343   1.541   1.595  10.146  0.4195  0.2765  0.4204
    5CHL1   H2A  344   1.464   1.533  10.195  0.7335  0.2358  0.8633
    5CHL1   H2B  345   1.534   1.699  10.184  2.9423  1.5539 -2.1830
    5CHL1   C20  346   1.592   1.633   9.216  0.2781  0.7264  0.0237
    5CHL1   H20  347   1.623   1.735   9.182 -1.5927  0.9521 -1.1543
    5CHL1   C21  348   1.444   1.646   9.239 -0.4054  0.3512  0.6641
    5CHL1  H21A  349   1.394   1.555   9.278 -0.2386 -1.1565 -2.3517
    5CHL1  H21B  350   1.389   1.669   9.146  1.0929  0.5048 -0.2161
    5CHL1  H21C  351   1.421   1.727   9.311  1.8508  0.0737  1.7844
    5CHL1   C22  352   1.622   1.540   9.095 -0.1097 -0.4738  0.7127
    5CHL1  H22A  353   1.731   1.531   9.080 -0.2409 -0.7213 -0.1462
    5CHL1  H22B  354   1.573   1.442   9.115 -0.8513 -0.2192  0.1827
    5CHL1   C23  355   1.569   1.587   8.961 -0.4382 -0.1030 -0.1359
    5CHL1  H23A  356   1.458   1.593   8.959 -0.4593  0.0425  0.7962
    5CHL1  H23B  357   1.595   1.694   8.952  2.5843 -0.8697 -2.0353
    5CHL1   C24  358   1.618   1.495   8.846 -0.3756 -0.9457  0.5735
    5CHL1  H24A  359   1.724   1.509   8.815 -0.5515  0.9065  0.6811
    5CHL1  H24B  360   1.609   1.388   8.873 -0.5827 -1.0931 -0.0683
    5CHL1   C25  361   1.528   1.511   8.717 -0.2659  0.6449  0.0948
    5CHL1   H25  362   1.425   1.534   8.753 -0.2864  1.7893 -0.6579
    5CHL1   C26  363   1.571   1.631   8.634 -0.0377 -0.9081  0.3662
    5CHL1  H26A  364   1.488   1.656   8.564 -0.0648 -0.5879  0.5108
    5CHL1  H26B  365   1.595   1.711   8.707 -1.9399 -0.3137  0.4034
    5CHL1  H26C  366   1.664   1.609   8.576  2.5694  4.0731  1.9944
    5CHL1   C27  367   1.528   1.383   8.638  0.1584 -0.3532  0.3345
    5CHL1  H27A  368   1.630   1.360   8.601  1.4494  1.3876  2.5993
    5CHL1  H27B  369   1.496   1.299   8.704 -1.3002  0.7784  1.1401
    5CHL1  H27C  370   1.450   1.386   8.558 -0.5516  0.7768  1.0396
    6CHL1    C3  371   0.869   6.713  10.359  0.9636 -0.3268 -0.1549
    6CHL1    H3  372   0.979   6.712  10.343  0.9355  0.2892 -0.4242
    6CHL1    O3  373   0.870   6.677  10.501 -0.2495 -1.1554 -0.2444
    6CHL1   H3'  374   0.780   6.650  10.523 -0.2420 -2.0794 -1.2893
    6CHL1    C4  375   0.796   6.850  10.358 -0.0031 -0.3890  0.5395
    6CHL1   H4A  376   0.689   6.834  10.383 -0.7765 -0.1031 -2.2755
    6CHL1   H4B  377   0.848   6.917  10.431  1.1145  1.1267 -1.5391
    6CHL1    C5  378   0.808   6.902  10.219  0.4282 -0.2762  0.3490
    6CHL1    C6  379   0.867   7.024  10.192  0.3741  0.0768  0.1432
    6CHL1    H6  380   0.898   7.081  10.281  0.5436 -1.2567  0.9635
    6CHL1    C7  381   0.877   7.082  10.056 -0.1204  0.0610 -0.1430
    6CHL1   H7A  382   0.853   7.190  10.053  4.6084  1.3200 -0.6893
    6CHL1   H7B  383   0.983   7.075  10.021  0.2003 -4.0150  1.1325
    6CHL1    C8  384   0.790   7.006   9.953  0.2201 -0.9551 -0.4891
    6CHL1    H8  385   0.685   7.029   9.980  0.5428 -1.1118  0.9589
    6CHL1   C14  386   0.839   7.054   9.817  0.3168  0.0293 -0.0152
    6CHL1   H14  387   0.947   7.027   9.813  0.6532  1.4236 -1.1637
    6CHL1   C15  388   0.843   7.207   9.786 -0.2935  0.6130 -0.2020
    6CHL1  H15A  389   0.751   7.263   9.813 -0.9548  0.5894 -2.2425
    6CHL1  H15B  390   0.931   7.260   9.828  0.8937 -0.2657 -1.4539
    6CHL1   C16  391   0.857   7.208   9.633  0.4599 -0.0606  0.1049
    6CHL1  H16A  392   0.782   7.284   9.601 -1.7017 -0.5443  3.5133
    6CHL1  H16B  393   0.958   7.237   9.597  0.5622 -0.9714 -0.3897
    6CHL1   C17  394   0.823   7.064   9.578  0.6137  0.3429 -0.0147
    6CHL1   H17  395   0.922   7.014   9.566 -0.0104 -1.1330  0.7915
    6CHL1   C13  396   0.768   6.983   9.698  0.3484 -0.6490 -0.2927
    6CHL1   C18  397   0.615   7.006   9.726  0.4627 -0.9200  0.1791
    6CHL1  H18A  398   0.599   7.112   9.754  1.1092 -0.5691 -0.7127
    6CHL1  H18B  399   0.553   6.973   9.640 -0.7607 -0.8203  1.0062
    6CHL1  H18C  400   0.583   6.943   9.811  3.0924 -2.7999 -0.0812
    6CHL1   C12  401   0.814   6.837   9.703  0.0586  0.2958 -0.7788
    6CHL1  H12A  402   0.757   6.778   9.627 -0.1129  0.0002 -0.4254
    6CHL1  H12B  403   0.924   6.824   9.694  0.2144  0.9820  0.0215
    6CHL1   C11  404   0.766   6.773   9.834  0.7364  1.0468  0.3910
    6CHL1  H11A  405   0.657   6.755   9.834  1.2687 -3.5986  0.8562
    6CHL1  H11B  406   0.819   6.675   9.839 -0.2057  0.4239 -1.2936
    6CHL1    C9  407   0.817   6.855   9.967 -0.1936  0.3212  0.3909
    6CHL1    H9  408   0.927   6.848   9.955 -0.3020  0.3120 -0.8007
    6CHL1   C10  409   0.771   6.802  10.104 -0.0171  0.6244 -0.6460
    6CHL1   C19  410   0.616   6.790  10.106  0.5302 -0.1183  0.2677
    6CHL1  H19A  411   0.582   6.751  10.204 -0.6839  1.8427  0.6814
    6CHL1  H19B  412   0.571   6.890  10.091  0.4438  0.1678  2.2147
    6CHL1  H19C  413   0.581   6.721  10.026  0.2575 -0.3487  0.5819
    6CHL1    C1  414   0.831   6.653  10.128  0.1179  0.5185  0.0679
    6CHL1   H1A  415   0.796   6.587  10.046 -0.7049  2.2739 -1.0526
    6CHL1   H1B  416   0.942   6.665  10.123  0.1578  1.0961  1.8072
    6CHL1    C2  417   0.810   6.603  10.273 -0.1539 -0.4004 -0.1543
    6CHL1   H2A  418   0.861   6.506  10.292  0.4330  0.0751  0.7644
    6CHL1   H2B  419   0.702   6.589  10.291 -0.1695  0.9159  0.9340
    6CHL1   C20  420   0.751   7.058   9.436 -0.0615 -0.1666 -0.3094
    6CHL1   H20  421   0.650   7.104   9.448  0.1207  0.1128  0.1454
    6CHL1   C21  422   0.715   6.914   9.389 -0.7803 -0.2457  0.1431
    6CHL1  H21A  423   0.644   6.929   9.305  0.0690 -0.2304 -0.5959
    6CHL1  H21B  424   0.664   6.872   9.478 -1.7375  0.5218 -0.0258
    6CHL1  H21C  425   0.805   6.857   9.356 -0.9589  0.8360 -2.4573
    6CHL1   C22  426   0.819   7.152   9.328 -0.2995  0.5905 -0.1351
    6CHL1  H22A  427   0.820   7.254   9.373 -0.4507  0.6443 -0.2536
    6CHL1  H22B  428   0.924   7.117   9.322 -0.3622  0.3038  0.3841
    6CHL1   C23  429   0.753   7.146   9.190 -0.2543  0.2384  0.0006
    6CHL1  H23A  430   0.743   7.037   9.170 -1.8808  0.3281  0.1724
    6CHL1  H23B  431   0.651   7.188   9.195 -0.1435  0.7383 -1.4975
    6CHL1   C24  432   0.828   7.217   9.074  0.3551  0.5904 -0.9678
    6CHL1  H24A  433   0.847   7.323   9.101 -0.1821 -0.1633  2.8519
    6CHL1  H24B  434   0.927   7.166   9.065 -0.0275 -0.1750 -0.8814
    6CHL1   C25  435   0.753   7.227   8.937 -0.0876 -0.0115  0.6264
    6CHL1   H25  436   0.693   7.135   8.920  1.0921 -0.6304 -0.3753
    6CHL1   C26  437   0.659   7.353   8.927  0.9211  0.6511 -0.3870
    6CHL1  H26A  438   0.584   7.341   9.009  0.1064  3.0470 -0.7040
    6CHL1  H26B  439   0.716   7.448   8.934  1.7556  0.0701  1.7811
    6CHL1  H26C  440   0.611   7.344   8.827 -0.0626 -0.9101  0.1742
    6CHL1   C27  441   0.864   7.240   8.832  0.1389  0.4352 -0.1260
    6CHL1  H27A  442   0.945   7.313   8.854  0.8502 -0.7044  1.1690
    6CHL1  H27B  443   0.914   7.142   8.817  3.9601  2.0540  0.6545
    6CHL1  H27C  444   0.832   7.243   8.726  2.9009 -0.1873 -1.0724
    7CHL1    C3  445   3.303   3.797  10.428  1.0580  0.6919 -0.2291
    7CHL1    H3  446   3.397   3.738  10.419  0.1592 -0.7849 -0.3118
    7CHL1    O3  447   3.277   3.833  10.562  0.7433  0.0053  0.3105
    7CHL1   H3'  448   3.183   3.855  10.555  1.1431  1.7482 -0.1710
    7CHL1    C4  449   3.307   3.921  10.346  0.1079 -0.0181 -0.3326
    7CHL1   H4A  450   3.212   3.977  10.344  0.6093  0.8460 -0.2952
    7CHL1   H4B  451   3.376   3.991  10.397 -1.8323  1.4204  0.4285
    7CHL1    C5  452   3.346   3.883  10.204 -0.4010  0.0546 -0.1813
    7CHL1    C6  453   3.461   3.924  10.151 -0.2922  0.3923 -0.3694
    7CHL1    H6  454   3.525   4.000  10.199 -1.3216  0.7915  0.4230
    7CHL1    C7  455   3.496   3.890  10.011  0.8292  0.3927 -0.3940
    7CHL1   H7A  456   3.526   3.983   9.958 -1.3440  1.0371 -0.5562
    7CHL1   H7B  457   3.580   3.817  10.012  1.0110  0.6040  0.0082
    7CHL1    C8  458   3.380   3.824   9.922 -0.5638  0.4006 -0.3536
    7CHL1    H8  459   3.310   3.906   9.895 -2.2555 -1.1317 -0.8012
    7CHL1   C14  460   3.441   3.753   9.795  0.0517  0.8278 -0.5509
    7CHL1   H14  461   3.511   3.682   9.844 -1.7975  0.4405  1.7421
    7CHL1   C15  462   3.533   3.823   9.695 -0.7786  0.8273 -0.1223
    7CHL1  H15A  463   3.493   3.923   9.667 -0.9123  1.1619  1.1753
    7CHL1  H15B  464   3.638   3.838   9.727 -0.1652  1.6737 -2.3681
    7CHL1   C16  465   3.522   3.735   9.573  0.7448 -0.0258  0.3411
    7CHL1  H16A  466   3.482   3.804   9.496  0.8021 -1.2619 -0.8451
    7CHL1  H16B  467   3.614   3.689   9.531  0.4926  0.6981 -1.0403
    7CHL1   C17  468   3.419   3.617   9.598 -0.2187 -0.1054  0.3710
    7CHL1   H17  469   3.468   3.533   9.652  0.2999 -1.5250 -2.1618
    7CHL1   C13  470   3.336   3.678   9.710  0.1930  0.0531  0.1571
    7CHL1   C18  471   3.237   3.786   9.646 -0.4333  0.4308 -0.7550
    7CHL1  H18A  472   3.182   3.832   9.732 -1.2535 -0.0894 -0.9896
    7CHL1  H18B  473   3.283   3.866   9.584 -0.8112  2.6541  1.6543
    7CHL1  H18C  474   3.152   3.731   9.601 -0.1878 -3.0410  2.4634
    7CHL1   C12  475   3.265   3.581   9.800 -0.5193  0.4966  0.6740
    7CHL1  H12A  476   3.186   3.521   9.750 -1.3444 -0.3050  2.8166
    7CHL1  H12B  477   3.342   3.518   9.849 -2.7455 -0.6747  2.9176
    7CHL1   C11  478   3.192   3.637   9.915 -0.3016 -0.6531 -0.7525
    7CHL1  H11A  479   3.111   3.704   9.878 -2.0688 -1.7928  0.9165
    7CHL1  H11B  480   3.167   3.548   9.975  1.2592  0.0107  0.9987
    7CHL1    C9  481   3.293   3.720  10.007 -0.4263  0.5126  0.1926
    7CHL1    H9  482   3.368   3.647  10.044  0.8756  1.3202 -0.7969
    7CHL1   C10  483   3.240   3.787  10.133 -0.4658  0.0875  0.4290
    7CHL1   C19  484   3.112   3.869  10.107 -0.3251  0.1500 -0.8028
    7CHL1  H19A  485   3.073   3.924  10.195  2.6031  1.9375 -0.4846
    7CHL1  H19B  486   3.134   3.954  10.038  1.7636 -0.1575 -0.5816
    7CHL1  H19C  487   3.033   3.805  10.062 -1.2679  1.1462 -0.5970
    7CHL1    C1  488   3.209   3.670  10.234  0.2103 -0.2737 -0.1435
    7CHL1   H1A  489   3.118   3.615  10.202  0.4541 -0.3439 -0.7320
    7CHL1   H1B  490   3.297   3.601  10.229 -1.2009 -2.0846 -2.8286
    7CHL1    C2  491   3.189   3.706  10.385 -0.4361 -0.3530  0.0177
    7CHL1   H2A  492   3.181   3.606  10.433  0.9871 -0.5979 -0.2166
    7CHL1   H2B  493   3.088   3.750  10.404  0.1522  0.2637  1.9797
    7CHL1   C20  494   3.356   3.566   9.470  0.2950  0.1546 -0.1556
    7CHL1   H20  495   3.325   3.661   9.423  0.9576  0.4870  0.0663
    7CHL1   C21  496   3.233   3.472   9.491  0.4859  0.7032 -0.1265
    7CHL1  H21A  497   3.261   3.405   9.574 -1.0791  1.0255  0.6863
    7CHL1  H21B  498   3.206   3.408   9.404  2.3113 -0.8791  0.4038
    7CHL1  H21C  499   3.146   3.533   9.526  0.1745 -0.5484  1.3744
    7CHL1   C22  500   3.461   3.501   9.378 -0.6881  1.1607  0.4709
    7CHL1  H22A  501   3.556   3.557   9.369  2.9783 -4.3549  0.0933
    7CHL1  H22B  502   3.510   3.414   9.427  3.1150  3.3060  0.7789
    7CHL1   C23  503   3.411   3.454   9.235  0.4827 -0.0335  0.3018
    7CHL1  H23A  504   3.500   3.402   9.194 -0.8228 -1.0104 -1.3947
    7CHL1  H23B  505   3.327   3.382   9.238  1.0052 -0.7029 -0.6827
    7CHL1   C24  506   3.378   3.569   9.136 -0.4963  0.5969  0.1731
    7CHL1  H24A  507   3.285   3.622   9.167 -1.1185 -0.2893 -0.1365
    7CHL1  H24B  508   3.466   3.636   9.149  0.2657 -0.6757  1.8782
    7CHL1   C25  509   3.370   3.523   8.986  0.5347 -0.3053 -0.4059
    7CHL1   H25  510   3.453   3.454   8.958  1.1821  1.3064 -2.7765
    7CHL1   C26  511   3.241   3.449   8.949  0.3561 -0.5785  0.0548
    7CHL1  H26A  512   3.242   3.411   8.845  0.6574  0.9546 -0.5200
    7CHL1  H26B  513   3.240   3.371   9.028  0.9489  1.8317  2.6085
    7CHL1  H26C  514   3.150   3.510   8.969 -0.5509 -2.4611  2.0445
    7CHL1   C27  515   3.377   3.653   8.900  0.0167 -0.0242  0.3838
    7CHL1  H27A  516   3.368   3.629   8.792  0.9261  0.0200  0.2939
    7CHL1  H27B  517   3.298   3.724   8.932  0.4665  1.0841 -0.8805
    7CHL1  H27C  518   3.472   3.708   8.915  0.1394 -0.6578  2.1605
    8CHL1    C3  519   4.846   3.769  10.243 -0.1765 -0.0230 -0.7270
    8CHL1    H3  520   4.819   3.872  10.275  1.2352  0.1395  0.0441
    8CHL1    O3  521   4.881   3.698  10.359  0.4264 -0.2254  0.6499
    8CHL1   H3'  522   4.861   3.758  10.432 -2.2342 -0.5098  0.2834
    8CHL1    C4  523   4.729   3.699  10.174 -0.0327  0.9526 -0.5488
    8CHL1   H4A  524   4.772   3.597  10.166  0.0102  0.8518  0.6530
    8CHL1   H4B  525   4.644   3.697  10.246 -0.2239 -0.4840 -0.7977
    8CHL1    C5  526   4.688   3.758  10.039 -0.0583 -0.7469 -0.2749
    8CHL1    C6  527   4.562   3.805  10.023  0.0452  0.1076 -0.0142
    8CHL1    H6  528   4.492   3.781  10.104 -1.7598  2.4213 -0.7770
    8CHL1    C7  529   4.516   3.863   9.891  0.5550 -0.1064  0.3514
    8CHL1   H7A  530   4.418   3.816   9.866 -0.6279  1.3731  1.9219
    8CHL1   H7B  531   4.494   3.972   9.902  0.3938  0.2014 -2.3941
    8CHL1    C8  532   4.614   3.843   9.770 -0.4911 -0.3831  0.2982
    8CHL1    H8  533   4.613   3.736   9.743  2.2420 -0.3731 -0.1471
    8CHL1   C14  534   4.585   3.944   9.656  0.1526 -0.5668 -0.0203
    8CHL1   H14  535   4.599   4.042   9.705  0.1521 -0.7830  0.4193
    8CHL1   C15  536   4.439   3.959   9.599 -0.4139 -0.0163  0.1448
    8CHL1  H15A  537   4.390   3.866   9.565  0.7466 -0.9635  0.9702
    8CHL1  H15B  538   4.370   4.010   9.670 -0.0628  0.2584  0.2943
    8CHL1   C16  539   4.451   4.041   9.474  0.2301  0.2569 -0.1787
    8CHL1  H16A  540   4.409   3.980   9.391 -0.7127 -0.4229  0.7764
    8CHL1  H16B  541   4.397   4.138   9.479 -1.1736 -0.5215  0.5657
    8CHL1   C17  542   4.602   4.050   9.448 -0.1278 -0.6742 -0.3311
    8CHL1   H17  543   4.625   4.143   9.504 -1.0552 -1.0268  0.6716
    8CHL1   C13  544   4.678   3.950   9.543  0.0711  0.2416 -0.8013
    8CHL1   C18  545   4.681   3.808   9.475  0.6575 -0.1184  0.0946
    8CHL1  H18A  546   4.708   3.726   9.545  1.8647 -0.6334 -0.9376
    8CHL1  H18B  547   4.577   3.788   9.440  0.1909 -2.8239  2.6067
    8CHL1  H18C  548   4.746   3.809   9.385  1.0534  0.9572  0.3878
    8CHL1   C12  549   4.817   3.984   9.596  0.6806 -0.7653  0.4075
    8CHL1  H12A  550   4.893   3.997   9.515 -0.6447  1.5485 -0.5856
    8CHL1  H12B  551   4.802   4.090   9.628  2.3662 -0.8546  1.5865
    8CHL1   C11  552   4.859   3.891   9.713 -0.1266 -0.1027  0.3226
    8CHL1  H11A  553   4.874   3.798   9.655 -2.8411  0.7944 -2.0746
    8CHL1  H11B  554   4.953   3.929   9.757 -1.9198  3.4681  1.4881
    8CHL1    C9  555   4.758   3.875   9.828 -0.5490 -0.5283  0.4259
    8CHL1    H9  556   4.750   3.981   9.862 -1.6570 -0.5889  0.4008
    8CHL1   C10  557   4.803   3.789   9.943 -1.0896  0.0431 -0.7417
    8CHL1   C19  558   4.849   3.656   9.890  0.2721  0.9399  0.0307
    8CHL1  H19A  559   4.950   3.663   9.844 -0.1484  0.2824 -1.0438
    8CHL1  H19B  560   4.857   3.575   9.965 -0.9855 -0.1079 -0.9290
    8CHL1  H19C  561   4.773   3.629   9.813 -0.0898  0.4526  0.5566
    8CHL1    C1  562   4.924   3.850  10.022  0.6454  0.1430  0.0824
    8CHL1   H1A  563   5.009   3.847   9.951  0.4237  2.7618 -0.3982
    8CHL1   H1B  564   4.905   3.960  10.025 -1.9946 -0.1491 -2.0520
    8CHL1    C2  565   4.967   3.766  10.146 -0.1568 -1.0397  0.3517
    8CHL1   H2A  566   5.055   3.811  10.197  0.5188 -1.9065 -0.0142
    8CHL1   H2B  567   4.990   3.659  10.127 -0.3944 -1.0458  0.0807
    8CHL1   C20  568   4.650   4.062   9.304 -0.6426  0.3910  0.3705
    8CHL1   H20  569   4.637   3.964   9.253  0.1533 -0.0526  0.9954
    8CHL1   C21  570   4.797   4.100   9.284 -0.3919  0.4632 -0.0311
    8CHL1  H21A  571   4.864   4.026   9.333  2.6743  0.7330 -3.3347
    8CHL1  H21B  572   4.821   4.207   9.305 -0.5136  0.2365  1.3015
    8CHL1  H21C  573   4.823   4.094   9.176 -1.7204 -2.0917 -0.2660
    8CHL1   C22  574   4.552   4.150   9.219  0.1966 -0.3351 -0.0006
    8CHL1  H22A  575   4.445   4.130   9.242 -0.5214  2.1022 -0.8544
    8CHL1  H22B  576   4.573   4.252   9.257 -0.3205 -1.0756  2.4388
    8CHL1   C23  577   4.567   4.141   9.067  0.3107  0.0373 -0.1830
    8CHL1  H23A  578   4.672   4.156   9.033  0.0837  1.6425 -0.2732
    8CHL1  H23B  579   4.545   4.035   9.044 -1.6108  0.4307 -0.3216
    8CHL1   C24  580   4.466   4.218   8.984 -1.1441  0.1860 -0.5237
    8CHL1  H24A  581   4.363   4.176   8.991 -1.3497  0.6827 -0.4935
    8CHL1  H24B  582   4.464   4.327   9.008 -1.2955 -0.1050  0.8796
    8CHL1   C25  583   4.500   4.218   8.833  0.1064  0.3085  0.0047
    8CHL1   H25  584   4.597   4.268   8.814 -0.0670  0.8870  0.6046
    8CHL1   C26  585   4.531   4.078   8.770 -1.0527 -0.3506 -0.2455
    8CHL1  H26A  586   4.435   4.025   8.788 -1.5106  1.1308  2.2244
    8CHL1  H26B  587   4.553   4.091   8.662  1.4265 -1.1536  0.1137
    8CHL1  H26C  588   4.614   4.025   8.821  0.6202  1.4529 -1.0044
    8CHL1   C27  589   4.388   4.290   8.756 -0.1528  0.3048 -0.0379
    8CHL1  H27A  590   4.302   4.219   8.745  0.9042 -1.0007 -0.0810
    8CHL1  H27B  591   4.363   4.389   8.798  0.3066  0.7292 -0.7498
    8CHL1  H27C  592   4.426   4.301   8.652  1.6084  2.7426  0.7933
    9CHL1    C3  593   0.133   1.148  10.202 -0.7240 -0.5297  0.2265
    9CHL1    H3  594   0.056   1.069  10.189 -2.3255  1.3192 -2.8925
    9CHL1    O3  595   0.176   1.155  10.337  0.1574 -0.1682  0.3812
    9CHL1   H3'  596   0.091   1.154  10.381 -0.1853  0.6904 -0.2482
    9CHL1    C4  597   0.245   1.097  10.108 -0.0408  0.7582 -0.1190
    9CHL1   H4A  598   0.324   1.174  10.122  0.2114  0.3417  0.8728
    9CHL1   H4B  599   0.290   1.003  10.148 -2.3327 -0.1084  0.6102
    9CHL1    C5  600   0.197   1.085   9.965  0.1481 -0.3373 -0.4518
    9CHL1    C6  601   0.201   0.969   9.898 -0.0454 -0.3106 -0.1840
    9CHL1    H6  602   0.254   0.882   9.940 -0.2454 -1.6154 -2.5029
    9CHL1    C7  603   0.150   0.951   9.756 -0.2739 -0.7990  0.4778
    9CHL1   H7A  604   0.224   0.887   9.704 -0.6855 -2.9495  2.3703
    9CHL1   H7B  605   0.051   0.902   9.751 -0.7328  0.0177  1.2951
    9CHL1    C8  606   0.143   1.086   9.679 -0.4317 -0.1884 -0.0777
    9CHL1    H8  607   0.245   1.129   9.666  0.2004 -0.8877  2.1101
    9CHL1   C14  608   0.073   1.080   9.540 -0.0939 -0.2631 -0.9629
    9CHL1   H14  609  -0.033   1.049   9.557 -0.1576 -0.7912 -2.2051
    9CHL1   C15  610   0.120   0.974   9.437  0.2677 -0.0792  1.2433
    9CHL1  H15A  611   0.230   0.964   9.424  0.0795  0.7608 -1.8336
    9CHL1  H15B  612   0.071   0.879   9.468  0.0995 -0.6180 -0.5525
    9CHL1   C16  613   0.066   1.024   9.299 -0.1835 -0.3873 -0.6661
    9CHL1  H16A  614   0.156   1.031   9.235 -1.6958  0.5629 -2.8052
    9CHL1  H16B  615  -0.004   0.953   9.248 -1.0060  0.9295 -1.4267
    9CHL1   C17  616   0.012   1.168   9.328 -0.2740  0.5107 -0.3654
    9CHL1   H17  617  -0.096   1.151   9.347 -0.0455 -0.8257 -0.1883
    9CHL1   C13  618   0.076   1.214   9.464  0.6300 -0.5018  0.2876
    9CHL1   C18  619   0.224   1.267   9.429  0.5980 -0.1989 -0.1279
    9CHL1  H18A  620   0.277   1.290   9.524 -0.4625  0.2039  0.3787
    9CHL1  H18B  621   0.265   1.181   9.372 -1.1051 -1.0824 -0.0770
    9CHL1  H18C  622   0.223   1.361   9.369 -1.2130 -0.6201 -0.8197
    9CHL1   C12  623  -0.007   1.312   9.552 -0.0598  0.5917 -0.0703
    9CHL1  H12A  624   0.003   1.411   9.503 -0.2267 -0.2244 -1.8222
    9CHL1  H12B  625  -0.114   1.285   9.567  0.3942 -0.4705  1.5822
    9CHL1   C11  626   0.052   1.326   9.689  0.1439  0.2192  0.4385
    9CHL1  H11A  627   0.144   1.386   9.677  0.1887  0.0989  0.1602
    9CHL1  H11B  628  -0.015   1.388   9.752  0.2025  1.1048 -0.3592
    9CHL1    C9  629   0.072   1.187   9.769  0.0373 -0.3887 -0.2831
    9CHL1    H9  630  -0.032   1.152   9.785 -0.8923  1.9245 -0.8721
    9CHL1   C10  631   0.142   1.210   9.912 -0.1112 -0.3992  0.1121
    9CHL1   C19  632   0.255   1.315   9.895 -0.0211 -0.0971  0.4678
    9CHL1  H19A  633   0.318   1.324   9.986  0.7017 -1.0115  0.0784
    9CHL1  H19B  634   0.321   1.285   9.810 -0.6186 -0.6933  0.2051
    9CHL1  H19C  635   0.215   1.417   9.878  0.3514 -0.0823 -0.4009
    9CHL1    C1  636   0.026   1.262  10.007 -0.9086 -0.0173 -0.9538
    9CHL1   H1A  637  -0.023   1.355   9.973 -4.0330 -1.4479 -0.6653
    9CHL1   H1B  638  -0.055   1.186  10.009  0.2962 -1.3420 -0.7787
    9CHL1    C2  639   0.071   1.275  10.153  0.1669 -0.2371 -0.0412
    9CHL1   H2A  640  -0.022   1.289  10.212 -0.9611 -3.5405 -0.8303
    9CHL1   H2B  641   0.145   1.358  10.154  0.5980 -0.5930 -0.8957
    9CHL1   C20  642   0.027   1.261   9.205  0.1966 -0.2242  0.2227
    9CHL1   H20  643   0.129   1.303   9.189 -0.7273  1.6978 -1.1102
    9CHL1   C21  644  -0.077   1.376   9.223 -0.1238  0.6233 -0.0759
    9CHL1  H21A  645  -0.130   1.411   9.132 -0.4374  0.9584  0.2322
    9CHL1  H21B  646  -0.026   1.466   9.265  0.3324 -0.4596  1.8445
    9CHL1  H21C  647  -0.161   1.357   9.293 -1.8036  0.7594 -1.9798
    9CHL1   C22  648   0.007   1.197   9.064  0.0743 -0.7345 -0.0612
    9CHL1  H22A  649   0.040   1.091   9.057 -0.9432 -0.9822 -1.7069
    9CHL1  H22B  650  -0.103   1.202   9.044  0.2622  0.0983 -0.9141
    9CHL1   C23  651   0.067   1.266   8.945 -0.4332  0.0758 -0.4713
    9CHL1  H23A  652   0.039   1.373   8.945 -1.2254 -0.1249  0.2294
    9CHL1  H23B  653   0.177   1.274   8.955 -0.5930  0.1371  1.5019
    9CHL1   C24  654   0.015   1.194   8.821 -1.2578 -0.1799  0.7916
    9CHL1  H24A  655   0.083   1.106   8.810  0.3489  1.0226  0.7564
    9CHL1  H24B  656  -0.089   1.156   8.813 -1.1764 -0.2755  0.1464
    9CHL1   C25  657   0.033   1.275   8.686 -0.3180  0.2314 -0.4385
    9CHL1   H25  658  -0.036   1.361   8.701 -0.2954 -0.0394  1.3905
    9CHL1   C26  659   0.176   1.333   8.659 -0.1102 -0.9565 -0.1228
    9CHL1  H26A  660   0.200   1.405   8.740 -0.5658  0.1080 -0.9133
    9CHL1  H26B  661   0.255   1.255   8.653  1.6955  0.3790  3.3568
    9CHL1  H26C  662   0.164   1.402   8.573  1.0376  0.1718  0.5862
    9CHL1   C27  663  -0.005   1.179   8.573  0.6898 -0.2958  0.2995
    9CHL1  H27A  664  -0.112   1.149   8.565  0.9487 -0.9132 -1.0989
    9CHL1  H27B  665   0.022   1.230   8.477  0.2714 -1.5372 -0.4965
    9CHL1  H27C  666   0.053   1.085   8.580 -1.7643 -1.9236 -0.2715
   10CHL1    C3  667   0.085   4.392  10.191 -0.1220  0.1483  0.1377
   10CHL1    H3  668   0.049   4.492  10.159 -2.0523 -1.1046 -1.9143
   10CHL1    O3  669   0.064   4.373  10.331  0.5246  0.1046  0.0798
   10CHL1   H3'  670  -0.026   4.342  10.337 -0.0902  1.4159 -1.6175
   10CHL1    C4  671  -0.003   4.294  10.106 -0.6893 -0.1455 -0.5342
   10CHL1   H4A  672   0.003   4.187  10.137 -0.4747  0.2101  0.6919
   10CHL1   H4B  673  -0.106   4.315  10.142 -0.2873  0.0155  0.5587
   10CHL1    C5  674   0.013   4.314   9.954 -0.3750 -0.2906  0.5012
   10CHL1    C6  675  -0.095   4.349   9.880  0.0126 -0.2079 -0.2096
   10CHL1    H6  676  -0.193   4.369   9.924 -0.7090 -0.0753 -1.8180
   10CHL1    C7  677  -0.085   4.362   9.723  0.1303 -0.5967  0.0505
   10CHL1   H7A  678  -0.165   4.306   9.670 -1.0364  2.2013 -1.3441
   10CHL1   H7B  679  -0.090   4.472   9.706  1.4256  0.2651  4.1078
   10CHL1    C8  680   0.045   4.310   9.667 -0.4612 -0.2310 -0.0336
   10CHL1    H8  681   0.039   4.200   9.655 -1.6815 -0.2185  0.3241
   10CHL1   C14  682   0.071   4.369   9.528 -0.4166  0.6807  0.1419
   10CHL1   H14  683   0.081   4.479   9.534  0.3140  0.6612 -0.5002
   10CHL1   C15  684  -0.043   4.354   9.431  0.4717  0.2547  0.3519
   10CHL1  H15A  685  -0.073   4.247   9.431 -1.2133  0.7124  0.3076
   10CHL1  H15B  686  -0.122   4.425   9.462 -1.9110 -2.4587  0.8338
   10CHL1   C16  687   0.026   4.384   9.291  0.2906 -0.1422 -0.3630
   10CHL1  H16A  688   0.005   4.316   9.206 -0.1475  1.8841 -1.9815
   10CHL1  H16B  689  -0.012   4.476   9.241 -0.2240  0.3012  0.8172
   10CHL1   C17  690   0.180   4.384   9.313 -0.4889  0.3806  0.7076
   10CHL1   H17  691   0.211   4.490   9.327 -1.1905  1.3553 -3.6554
   10CHL1   C13  692   0.194   4.314   9.451 -0.6767  0.7273 -0.0696
   10CHL1   C18  693   0.188   4.157   9.433  0.2969  0.5636 -0.1352
   10CHL1  H18A  694   0.098   4.124   9.377 -0.1259 -1.5564  1.6558
   10CHL1  H18B  695   0.278   4.118   9.380 -0.9810 -0.0421 -1.9523
   10CHL1  H18C  696   0.176   4.106   9.531 -1.2523 -0.1313 -0.6719
   10CHL1   C12  697   0.317   4.356   9.539 -0.4750  0.1445  1.1888
   10CHL1  H12A  698   0.419   4.336   9.501 -1.2221 -0.9662 -0.3465
   10CHL1  H12B  699   0.295   4.464   9.534 -3.9587 -0.4348  1.1680
   10CHL1   C11  700   0.302   4.308   9.687  0.0052  0.0580  0.3988
   10CHL1  H11A  701   0.332   4.201   9.693  0.8085  0.0710 -2.2870
   10CHL1  H11B  702   0.386   4.345   9.750 -0.4739 -0.5778  1.4534
   10CHL1    C9  703   0.163   4.357   9.746 -0.5791 -0.3683 -0.9044
   10CHL1    H9  704   0.160   4.468   9.747  1.5559 -0.2494  0.7222
   10CHL1   C10  705   0.153   4.305   9.898 -0.1888  0.3964 -0.2791
   10CHL1   C19  706   0.200   4.163   9.904 -0.3020  0.5509  0.5495
   10CHL1  H19A  707   0.149   4.096   9.831  1.7537  2.3510 -2.8154
   10CHL1  H19B  708   0.311   4.160   9.903 -0.2473  1.3997  1.9608
   10CHL1  H19C  709   0.180   4.121  10.004 -0.7125  1.0854  0.6989
   10CHL1    C1  710   0.248   4.386   9.992 -0.1662 -0.0395  0.4488
   10CHL1   H1A  711   0.353   4.355   9.974  0.3793  1.7503  0.3298
   10CHL1   H1B  712   0.234   4.494   9.971  0.5213 -0.3879 -2.1153
   10CHL1    C2  713   0.230   4.362  10.147  0.2557  0.2271  0.1296
   10CHL1   H2A  714   0.303   4.421  10.207  1.7675 -3.2004  1.9302
   10CHL1   H2B  715   0.242   4.255  10.174 -0.5163 -0.4131 -1.8848
   10CHL1   C20  716   0.252   4.319   9.195 -0.4584  0.1791 -0.9816
   10CHL1   H20  717   0.222   4.212   9.199  2.7782 -0.7706  0.4395
   10CHL1   C21  718   0.407   4.327   9.213  0.8416 -0.3852 -0.6459
   10CHL1  H21A  719   0.457   4.279   9.127  1.1623  0.9328 -1.2228
   10CHL1  H21B  720   0.441   4.270   9.302 -1.1349  0.9930  1.1265
   10CHL1  H21C  721   0.436   4.434   9.218 -0.7484  0.0467  0.1160
   10CHL1   C22  722   0.217   4.384   9.064 -0.6276 -0.1942  0.1420
   10CHL1  H22A  723   0.110   4.409   9.053 -0.7264 -1.1710 -1.5290
   10CHL1  H22B  724   0.282   4.474   9.059 -1.1352  0.3927  2.5756
   10CHL1   C23  725   0.254   4.287   8.951 -0.1089 -0.2835 -0.6277
   10CHL1  H23A  726   0.359   4.252   8.957 -0.1462 -0.1859  3.0404
   10CHL1  H23B  727   0.199   4.193   8.973  0.3155 -0.1924  0.9229
   10CHL1   C24  728   0.223   4.347   8.813  0.5857  0.7693  0.2889
   10CHL1  H24A  729   0.114   4.332   8.797  0.3049 -0.4967  2.8759
   10CHL1  H24B  730   0.244   4.455   8.826 -0.7657  1.0502  0.2196
   10CHL1   C25  731   0.309   4.297   8.692  0.4300  0.1165  0.4877
   10CHL1   H25  732   0.294   4.188   8.678  1.3139  0.3126 -2.8597
   10CHL1   C26  733   0.255   4.358   8.559 -0.6250 -0.5793 -0.2230
   10CHL1  H26A  734   0.292   4.462   8.540  3.2885 -1.6259  0.6451
   10CHL1  H26B  735   0.280   4.298   8.469  2.7289  1.7989 -1.1032
   10CHL1  H26C  736   0.144   4.360   8.560 -0.6203 -0.0301  0.3145
   10CHL1   C27  737   0.451   4.337   8.709 -0.1232 -0.0325 -0.1639
   10CHL1  H27A  738   0.457   4.446   8.727  0.6198 -0.5977  3.9354
   10CHL1  H27B  739   0.508   4.272   8.780 -0.9165 -0.4839  0.0687
   10CHL1  H27C  740   0.507   4.313   8.616 -1.0724  1.2591 -1.1047
   11CHL1    C3  741   1.191   1.243   9.945 -0.0525  0.4670 -0.4966
   11CHL1    H3  742   1.250   1.149   9.947  1.4275  1.3657 -0.9487
   11CHL1    O3  743   1.167   1.289  10.072 -0.4595  0.1162  0.1504
   11CHL1   H3'  744   1.251   1.289  10.118 -0.2521 -0.4595 -0.2142
   11CHL1    C4  745   1.278   1.348   9.871  0.4890 -0.1341 -0.1597
   11CHL1   H4A  746   1.223   1.444   9.876 -0.3174 -0.4956 -1.6065
   11CHL1   H4B  747   1.369   1.373   9.930  0.1344 -0.7537  0.6797
   11CHL1    C5  748   1.301   1.309   9.730  1.0292  0.7643  0.1222
   11CHL1    C6  749   1.431   1.290   9.692  0.4576 -0.1337 -0.2520
   11CHL1    H6  750   1.518   1.298   9.760  0.6872  0.8138 -0.6539
   11CHL1    C7  751   1.478   1.244   9.556 -0.5291  0.3177  0.5991
   11CHL1   H7A  752   1.568   1.298   9.520 -0.0140 -0.8814  0.0053
   11CHL1   H7B  753   1.516   1.140   9.548  0.9102  0.8989 -0.6603
   11CHL1    C8  754   1.358   1.256   9.457 -0.3549  0.1839 -0.1828
   11CHL1    H8  755   1.345   1.363   9.433 -1.8061 -0.0180 -0.3813
   11CHL1   C14  756   1.390   1.176   9.331  0.5375  0.1340 -0.0658
   11CHL1   H14  757   1.374   1.071   9.365  1.2194 -0.2766 -0.9837
   11CHL1   C15  758   1.533   1.177   9.271  0.4242 -0.6091  0.3864
   11CHL1  H15A  759   1.558   1.286   9.269 -3.0347  0.3232  1.3229
   11CHL1  H15B  760   1.607   1.114   9.324  1.0000 -0.5763 -0.3626
   11CHL1   C16  761   1.508   1.128   9.127 -0.5533  0.1545  0.4111
   11CHL1  H16A  762   1.536   1.197   9.045  1.8165 -1.1206  0.0434
   11CHL1  H16B  763   1.570   1.037   9.108  1.2828  0.6948  3.1386
   11CHL1   C17  764   1.357   1.088   9.111 -0.4478 -0.4087  0.2744
   11CHL1   H17  765   1.334   0.986   9.149  0.2053 -0.6439  0.0458
   11CHL1   C13  766   1.284   1.181   9.220  0.4763  0.2548 -0.4229
   11CHL1   C18  767   1.271   1.322   9.160  0.5458  0.3114 -0.0995
   11CHL1  H18A  768   1.249   1.405   9.230 -0.1682  0.3207 -0.3238
   11CHL1  H18B  769   1.361   1.356   9.104  1.1146  1.3556  1.3822
   11CHL1  H18C  770   1.192   1.318   9.082  1.2982 -0.5508 -0.8496
   11CHL1   C12  771   1.141   1.135   9.277  0.8649  0.2428  0.3074
   11CHL1  H12A  772   1.074   1.174   9.198 -0.7510  0.6944  1.8551
   11CHL1  H12B  773   1.132   1.024   9.283  1.2300  0.1820 -0.2641
   11CHL1   C11  774   1.110   1.208   9.407  0.3857 -0.0094  0.1328
   11CHL1  H11A  775   1.089   1.314   9.384  2.4995  0.0882 -1.7341
   11CHL1  H11B  776   1.015   1.167   9.447 -0.8026  0.7272 -1.8366
   11CHL1    C9  777   1.221   1.213   9.516  0.3144 -0.3924 -0.6263
   11CHL1    H9  778   1.225   1.106   9.544  1.3134 -0.3667 -0.6391
   11CHL1   C10  779   1.182   1.287   9.642  0.6622 -0.1032  0.1582
   11CHL1   C19  780   1.137   1.431   9.617  0.1112 -0.5835  0.4866
   11CHL1  H19A  781   1.215   1.499   9.578  0.4726 -1.9788 -1.4134
   11CHL1  H19B  782   1.042   1.428   9.558 -0.7448 -1.6845  1.8471
   11CHL1  H19C  783   1.097   1.478   9.709 -1.8385  1.4896 -1.2856
   11CHL1    C1  784   1.075   1.206   9.716 -0.5892  0.5197  0.6401
   11CHL1   H1A  785   0.972   1.197   9.677 -0.9669 -0.3016  1.7556
   11CHL1   H1B  786   1.108   1.100   9.708 -0.9241  0.5131 -1.1161
   11CHL1    C2  787   1.058   1.224   9.869 -0.4117 -0.0691 -0.9614
   11CHL1   H2A  788   1.009   1.147   9.933  0.2060  0.8607  0.6884
   11CHL1   H2B  789   0.999   1.317   9.875 -1.2962 -0.6103 -1.0777
   11CHL1   C20  790   1.311   1.083   8.961  0.0852 -0.5357 -0.1996
   11CHL1   H20  791   1.309   1.178   8.904 -0.6302 -0.4485 -0.0425
   11CHL1   C21  792   1.166   1.030   8.951  0.1306  0.1450  0.5079
   11CHL1  H21A  793   1.090   1.101   8.990  1.4534  1.5070  0.7096
   11CHL1  H21B  794   1.157   0.934   9.008  1.6394 -0.7123 -0.6278
   11CHL1  H21C  795   1.129   1.000   8.851  1.1886 -0.9503  0.4163
   11CHL1   C22  796   1.408   0.983   8.886 -0.1133  0.4428 -0.2379
   11CHL1  H22A  797   1.513   1.016   8.898  0.0266 -0.0495 -0.0790
   11CHL1  H22B  798   1.393   0.881   8.927  1.0037  0.7787  1.0831
   11CHL1   C23  799   1.381   0.974   8.735 -0.3318 -1.1860 -0.5779
   11CHL1  H23A  800   1.273   0.948   8.724 -0.8326 -0.1538  1.3756
   11CHL1  H23B  801   1.379   1.075   8.688 -1.8010 -1.4824 -1.2141
   11CHL1   C24  802   1.475   0.871   8.671 -0.1518 -0.2088  0.1849
   11CHL1  H24A  803   1.575   0.874   8.720 -0.1940  1.8871  0.2392
   11CHL1  H24B  804   1.435   0.769   8.689  0.8464 -0.6004  0.2161
   11CHL1   C25  805   1.482   0.896   8.518  0.8645  0.1529 -0.1171
   11CHL1   H25  806   1.553   0.816   8.488 -1.0095 -1.4379 -0.5098
   11CHL1   C26  807   1.343   0.897   8.450  0.6705  0.0123  0.2407
   11CHL1  H26A  808   1.356   0.880   8.341 -2.2722 -3.4656  0.2225
   11CHL1  H26B  809   1.288   0.803   8.474  0.2544  0.0772 -0.4338
   11CHL1  H26C  810   1.279   0.986   8.466 -0.6483 -1.1104  1.5418
   11CHL1   C27  811   1.543   1.037   8.488 -0.4322 -0.7702  0.1486
   11CHL1  H27A  812   1.636   1.043   8.549  0.9737  0.8447 -2.0281
   11CHL1  H27B  813   1.572   1.042   8.381 -2.7086 -2.3444 -0.6189
   11CHL1  H27C  814   1.477   1.119   8.525  1.3738  0.7831  0.0616
   12CHL1    C3  815   5.126   4.747  10.333  1.5040 -0.2347  0.2157
   12CHL1    H3  816   5.195   4.664  10.305  1.1550  0.3562 -2.8093
   12CHL1    O3  817   5.138   4.771  10.472  0.2976  0.0353 -0.3202
   12CHL1   H3'  818   5.122   4.685  10.512  0.9247  0.0914  0.0785
   12CHL1    C4  819   5.157   4.879  10.257 -0.0433 -0.1696  0.3662
   12CHL1   H4A  820   5.093   4.969  10.275  2.1632  1.6030 -0.1866
   12CHL1   H4B  821   5.254   4.913  10.299  0.5687 -0.5248 -0.7341
   12CHL1    C5  822   5.149   4.860  10.105  0.2487  0.5769 -0.4124
   12CHL1    C6  823   5.252   4.885  10.021  0.1016 -0.2362 -0.0120
   12CHL1    H6  824   5.354   4.899  10.059  0.9985 -1.6455 -1.7390
   12CHL1    C7  825   5.241   4.870   9.871 -0.0607 -0.6277  0.7544
   12CHL1   H7A  826   5.294   4.956   9.823 -0.6187 -0.6246  0.1337
   12CHL1   H7B  827   5.276   4.774   9.828  0.2619 -0.5984  0.9429
   12CHL1    C8  828   5.094   4.881   9.816  0.1106 -0.1424 -1.1127
   12CHL1    H8  829   5.064   4.988   9.822  2.6103  0.6721 -1.5964
   12CHL1   C14  830   5.088   4.835   9.674 -0.1173  0.3479 -0.5916
   12CHL1   H14  831   5.129   4.732   9.665  2.6620  1.4562 -1.6319
   12CHL1   C15  832   5.180   4.910   9.568  0.3830 -0.5183 -0.3839
   12CHL1  H15A  833   5.181   5.018   9.594  0.6756  0.4649 -3.9201
   12CHL1  H15B  834   5.286   4.876   9.564  0.2106 -1.8074  2.9330
   12CHL1   C16  835   5.106   4.893   9.432  0.0591  0.2466 -0.8559
   12CHL1  H16A  836   5.080   4.998   9.408 -1.8401  0.1258  0.4734
   12CHL1  H16B  837   5.168   4.841   9.355  1.9074  0.0185  0.7140
   12CHL1   C17  838   4.977   4.817   9.466  0.3465 -0.2960 -0.2415
   12CHL1   H17  839   5.009   4.710   9.472 -3.1595 -1.3975  1.9957
   12CHL1   C13  840   4.944   4.840   9.615  0.4809  0.3733 -0.8409
   12CHL1   C18  841   4.881   4.987   9.631 -0.1020  0.0077 -0.1312
   12CHL1  H18A  842   4.942   5.063   9.578  1.3817 -0.4350  0.8655
   12CHL1  H18B  843   4.774   4.980   9.602 -0.9956 -0.7355  2.9865
   12CHL1  H18C  844   4.864   5.010   9.739 -3.5403  1.6034 -0.8807
   12CHL1   C12  845   4.861   4.736   9.696 -0.2877  0.2110  0.2654
   12CHL1  H12A  846   4.758   4.755   9.658 -1.2666  2.5669  3.6788
   12CHL1  H12B  847   4.903   4.634   9.685 -0.0925  0.1598  1.4356
   12CHL1   C11  848   4.865   4.765   9.846  0.8922 -0.5488 -0.3231
   12CHL1  H11A  849   4.810   4.860   9.861  0.9035 -0.5205 -0.4537
   12CHL1  H11B  850   4.800   4.693   9.900  0.8852  0.4082  0.9984
   12CHL1    C9  851   5.005   4.791   9.910 -0.1807  1.1159  0.2465
   12CHL1    H9  852   5.054   4.692   9.907  0.1240  1.2741 -1.4577
   12CHL1   C10  853   5.003   4.821  10.061  0.1797 -0.2192  0.3026
   12CHL1   C19  854   4.908   4.944  10.082 -0.2153  0.1269 -0.5117
   12CHL1  H19A  855   4.958   5.038  10.050  0.8243 -1.2701 -3.2649
   12CHL1  H19B  856   4.804   4.938  10.043 -0.0756  0.8935 -1.0259
   12CHL1  H19C  857   4.895   4.951  10.193 -2.4647  1.8718 -0.8200
   12CHL1    C1  858   4.965   4.691  10.141 -1.1446 -0.4937  0.5649
   12CHL1   H1A  859   4.859   4.671  10.116 -0.7098 -1.8024 -0.3314
   12CHL1   H1B  860   5.032   4.605  10.121 -0.4124  0.0212  0.7600
   12CHL1    C2  861   4.982   4.701  10.296  0.8701 -0.0957 -0.9509
   12CHL1   H2A  862   4.956   4.605  10.344 -2.8926 -0.5052 -3.4070
   12CHL1   H2B  863   4.913   4.780  10.332 -0.4851 -2.0097  0.8881
   12CHL1   C20  864   4.871   4.842   9.357  1.0278 -0.1130  0.1516
   12CHL1   H20  865   4.815   4.935   9.378 -0.0459  0.1018 -3.0627
   12CHL1   C21  866   4.774   4.729   9.352  0.1581  0.2227 -0.0653
   12CHL1  H21A  867   4.722   4.734   9.254 -0.0330  2.0397  0.0887
   12CHL1  H21B  868   4.708   4.746   9.441 -0.7089 -0.3955 -0.5761
   12CHL1  H21C  869   4.822   4.629   9.360  1.2932  0.7443 -0.1804
   12CHL1   C22  870   4.931   4.867   9.215 -0.4183  0.0121  0.2522
   12CHL1  H22A  871   5.032   4.826   9.197 -0.5088 -0.7025  1.2947
   12CHL1  H22B  872   4.875   4.808   9.139  0.9776 -0.3429 -0.5317
   12CHL1   C23  873   4.937   5.012   9.171  0.3130  0.0140 -0.6903
   12CHL1  H23A  874   4.996   5.080   9.237  0.1312  0.1531 -0.6703
   12CHL1  H23B  875   4.994   5.020   9.077  0.5694 -1.8792 -0.7205
   12CHL1   C24  876   4.797   5.082   9.153  0.2033 -0.3929 -0.0625
   12CHL1  H24A  877   4.740   5.077   9.249  1.7470 -1.4519  0.8373
   12CHL1  H24B  878   4.822   5.189   9.135  1.5564 -0.3944  1.5087
   12CHL1   C25  879   4.719   5.035   9.024  0.2733  0.1889 -0.6397
   12CHL1   H25  880   4.704   4.927   9.042  4.2126 -0.5754 -0.9156
   12CHL1   C26  881   4.584   5.109   9.030  0.7082  0.2754 -0.0905
   12CHL1  H26A  882   4.591   5.217   9.009  0.5883  0.0650 -1.2951
   12CHL1  H26B  883   4.519   5.067   8.950  0.8854 -0.7691  0.2877
   12CHL1  H26C  884   4.542   5.103   9.133 -0.9177 -0.4952 -0.7560
   12CHL1   C27  885   4.803   5.058   8.900  0.1282  0.0436 -0.1647
   12CHL1  H27A  886   4.892   4.993   8.887 -1.8391 -2.9854  0.3443
   12CHL1  H27B  887   4.737   5.043   8.811 -0.5133 -0.4883  0.3879
   12CHL1  H27C  888   4.828   5.166   8.890 -0.6049  0.2208 -0.1388
   13CHL1    C3  889   4.038   6.260   9.675 -0.1483  0.0375 -0.3072
   13CHL1    H3  890   4.128   6.196   9.665 -0.7391 -1.3728  2.4185
   13CHL1    O3  891   4.022   6.299   9.807  0.3341  0.3314 -0.0012
   13CHL1   H3'  892   4.104   6.310   9.854 -0.6511  0.2217  1.8218
   13CHL1    C4  893   4.036   6.380   9.584 -0.3822 -0.7703  0.1054
   13CHL1   H4A  894   3.940   6.436   9.586 -1.4492 -2.2201 -3.2366
   13CHL1   H4B  895   4.113   6.453   9.616 -0.5618 -0.8402  0.7279
   13CHL1    C5  896   4.055   6.342   9.443 -0.3195  0.0178  0.2713
   13CHL1    C6  897   4.158   6.380   9.364 -0.2814  0.1542  0.2798
   13CHL1    H6  898   4.223   6.459   9.403 -0.2122  0.5227 -0.5509
   13CHL1    C7  899   4.177   6.337   9.218 -0.2458 -0.2362 -0.6084
   13CHL1   H7A  900   4.209   6.417   9.147  1.9081 -1.6910 -1.3483
   13CHL1   H7B  901   4.255   6.259   9.213 -0.8989 -1.0002  0.8544
   13CHL1    C8  902   4.047   6.282   9.163 -0.1719 -0.1244  0.1529
   13CHL1    H8  903   3.985   6.373   9.147  1.4453  1.6730  3.1863
   13CHL1   C14  904   4.085   6.208   9.037 -0.1150 -0.1504 -0.4662
   13CHL1   H14  905   4.145   6.119   9.065 -1.9254 -0.1158  4.5434
   13CHL1   C15  906   4.160   6.288   8.932  0.2586  0.1709 -0.0089
   13CHL1  H15A  907   4.129   6.395   8.923  0.3176  0.2265  0.4202
   13CHL1  H15B  908   4.269   6.297   8.954 -0.1709  0.9920  2.0195
   13CHL1   C16  909   4.136   6.213   8.796 -0.1628 -0.3409 -0.1399
   13CHL1  H16A  910   4.105   6.294   8.727  0.2227 -0.4059 -0.3923
   13CHL1  H16B  911   4.230   6.167   8.757 -0.6911  0.7406 -2.9642
   13CHL1   C17  912   4.030   6.099   8.832 -0.1255 -0.3785  0.4987
   13CHL1   H17  913   4.097   6.012   8.847  1.0167  0.4515  0.2934
   13CHL1   C13  914   3.963   6.150   8.963  0.3178  0.1216  0.2007
   13CHL1   C18  915   3.865   6.261   8.926  0.2941  0.3799  0.2137
   13CHL1  H18A  916   3.841   6.319   9.018  0.3135 -2.0905  1.8545
   13CHL1  H18B  917   3.900   6.340   8.855  0.5022  3.0488  3.0717
   13CHL1  H18C  918   3.763   6.228   8.895  0.4003 -0.1434  0.4133
   13CHL1   C12  919   3.898   6.042   9.054 -0.3510 -0.4528  0.1534
   13CHL1  H12A  920   3.805   6.010   9.003 -0.2818 -0.9799  0.3587
   13CHL1  H12B  921   3.966   5.955   9.068  2.5126  1.9461  2.5638
   13CHL1   C11  922   3.865   6.099   9.189  0.3145  0.3979  0.8478
   13CHL1  H11A  923   3.792   6.178   9.165  1.4600  1.1169 -0.3910
   13CHL1  H11B  924   3.838   6.016   9.258  0.4594  0.7807  1.3676
   13CHL1    C9  925   3.976   6.180   9.255 -0.1297  0.0833  0.0932
   13CHL1    H9  926   4.058   6.110   9.278  2.0587  2.3273 -0.4639
   13CHL1   C10  927   3.944   6.241   9.391  0.3467  0.4579 -0.0862
   13CHL1   C19  928   3.814   6.327   9.376 -0.5961 -0.0457 -0.5783
   13CHL1  H19A  929   3.825   6.399   9.293 -0.6550  0.1990 -0.3734
   13CHL1  H19B  930   3.724   6.264   9.362 -3.5766  3.9587 -1.0215
   13CHL1  H19C  931   3.786   6.391   9.462  0.3620  1.4547 -1.3296
   13CHL1    C1  932   3.920   6.134   9.495 -0.5415 -0.0376 -0.0772
   13CHL1   H1A  933   3.828   6.079   9.467 -0.3523  1.5163 -4.5697
   13CHL1   H1B  934   4.000   6.059   9.478  0.0582  0.5672  0.0013
   13CHL1    C2  935   3.922   6.174   9.646  0.2868 -0.0732  0.6549
   13CHL1   H2A  936   3.895   6.088   9.711  2.7035  0.6219  2.7875
   13CHL1   H2B  937   3.834   6.239   9.663 -0.5222 -1.4166  1.8624
   13CHL1   C20  938   3.946   6.068   8.707 -0.1490  0.4759 -0.4300
   13CHL1   H20  939   3.871   6.148   8.690  1.1398  1.6280 -0.8564
   13CHL1   C21  940   3.869   5.936   8.728 -0.5822  0.4642  0.4244
   13CHL1  H21A  941   3.789   5.935   8.805 -0.5146  0.5325  0.4964
   13CHL1  H21B  942   3.936   5.848   8.735  0.1818  1.0769  1.1916
   13CHL1  H21C  943   3.813   5.917   8.634 -2.4947  0.1316  1.5875
   13CHL1   C22  944   4.034   6.067   8.576  0.3588  0.1733  0.2199
   13CHL1  H22A  945   3.959   6.061   8.494  0.4303 -2.0765  0.2519
   13CHL1  H22B  946   4.091   6.161   8.560  0.8258 -0.1631 -0.1218
   13CHL1   C23  947   4.123   5.945   8.555  0.4278 -0.2285 -0.8981
   13CHL1  H23A  948   4.191   5.935   8.642 -0.2862  0.1361 -0.2886
   13CHL1  H23B  949   4.052   5.860   8.554 -0.8483  0.7830  0.4004
   13CHL1   C24  950   4.203   5.953   8.430  0.7577 -0.0722  0.4762
   13CHL1  H24A  951   4.135   5.951   8.342 -0.1492 -0.0794  1.1625
   13CHL1  H24B  952   4.263   6.046   8.416  2.7011 -1.5319 -1.5386
   13CHL1   C25  953   4.306   5.844   8.417  0.3356 -0.5201  0.1836
   13CHL1   H25  954   4.364   5.848   8.511 -1.6239  2.2663  1.4443
   13CHL1   C26  955   4.252   5.700   8.409  0.2255  0.6634 -0.9462
   13CHL1  H26A  956   4.330   5.621   8.415 -0.1044  0.3257 -1.0837
   13CHL1  H26B  957   4.181   5.679   8.492  0.4775 -3.3044 -1.5038
   13CHL1  H26C  958   4.194   5.698   8.315 -2.3000 -0.4875  0.5250
   13CHL1   C27  959   4.396   5.880   8.292  0.0174  0.1830 -0.2509
   13CHL1  H27A  960   4.327   5.903   8.208 -0.7510  2.0236  0.8341
   13CHL1  H27B  961   4.450   5.972   8.323 -1.8741  1.3526 -0.2637
   13CHL1  H27C  962   4.461   5.793   8.270 -1.3509 -0.7995 -0.5400
   14CHL1    C3  963   2.797   2.735  10.185 -0.6917  0.0254  0.3286
   14CHL1    H3  964   2.811   2.845  10.184  1.4527 -0.1924 -0.9448
   14CHL1    O3  965   2.776   2.697  10.317 -0.0508  0.7130  0.1701
   14CHL1   H3'  966   2.765   2.601  10.319  1.1328  0.5694  0.7809
   14CHL1    C4  967   2.669   2.694  10.108 -0.5899 -0.6839 -0.2444
   14CHL1   H4A  968   2.647   2.588  10.135  2.5501 -0.7648  2.7964
   14CHL1   H4B  969   2.583   2.742  10.157  0.9492 -1.2502  3.3578
   14CHL1    C5  970   2.679   2.710   9.961  0.0854 -0.1196  0.2514
   14CHL1    C6  971   2.587   2.776   9.899 -0.2069 -0.0579  0.5162
   14CHL1    H6  972   2.500   2.816   9.954 -0.3471 -2.0007  1.8162
   14CHL1    C7  973   2.587   2.792   9.748 -0.5723  0.6848 -0.4891
   14CHL1   H7A  974   2.492   2.781   9.693  0.9845 -1.7046 -3.0047
   14CHL1   H7B  975   2.617   2.898   9.733 -0.8462  0.8821  0.3043
   14CHL1    C8  976   2.691   2.707   9.671  0.8863  0.3680 -0.4110
   14CHL1    H8  977   2.643   2.607   9.663 -2.1356  1.4867  1.9422
   14CHL1   C14  978   2.705   2.757   9.525 -0.3337  0.1250 -0.0098
   14CHL1   H14  979   2.744   2.860   9.536  0.5703 -0.3270  1.1900
   14CHL1   C15  980   2.576   2.779   9.439 -0.0124  0.2934  0.3373
   14CHL1  H15A  981   2.500   2.699   9.444  0.1394 -0.2948 -3.6875
   14CHL1  H15B  982   2.530   2.877   9.465  0.8746  0.5959  0.7995
   14CHL1   C16  983   2.627   2.782   9.295 -0.9168  0.4179 -0.5870
   14CHL1  H16A  984   2.582   2.700   9.234 -0.1823  0.5529 -1.3351
   14CHL1  H16B  985   2.607   2.882   9.253  0.1841  1.4494  1.2229
   14CHL1   C17  986   2.782   2.755   9.310 -0.4998  0.1042 -0.4742
   14CHL1   H17  987   2.832   2.853   9.327  2.4123 -1.3851  0.3647
   14CHL1   C13  988   2.815   2.684   9.445 -0.3452 -1.1575 -0.0426
   14CHL1   C18  989   2.780   2.535   9.432 -0.6045 -0.3810  0.4855
   14CHL1  H18A  990   2.859   2.483   9.372 -0.1333 -0.1422  0.8937
   14CHL1  H18B  991   2.767   2.484   9.530 -1.0021  0.2216  0.7485
   14CHL1  H18C  992   2.688   2.535   9.370 -0.5311  0.0123  0.3775
   14CHL1   C12  993   2.946   2.705   9.527 -0.2819 -0.5285 -0.9780
   14CHL1  H12A  994   3.036   2.664   9.477 -0.9103  1.6087 -4.1900
   14CHL1  H12B  995   2.957   2.815   9.534  0.8174 -0.6456 -0.7164
   14CHL1   C11  996   2.947   2.651   9.674 -0.5362  0.1847  0.1939
   14CHL1  H11A  997   2.935   2.540   9.667  2.0195 -0.0482 -1.5794
   14CHL1  H11B  998   3.039   2.679   9.729 -0.1374  1.4117 -1.0521
   14CHL1    C9  999   2.824   2.708   9.749  0.1068 -0.3583 -1.1541
   14CHL1    H9 1000   2.861   2.812   9.764  1.9992 -1.2842  1.2145
   14CHL1   C10 1001   2.802   2.661   9.894 -0.1069 -0.4099  0.2354
   14CHL1   C19 1002   2.790   2.505   9.897 -0.5584  0.8140  0.5692
   14CHL1  H19A 1003   2.699   2.479   9.839  1.5325  1.1071 -3.1762
   14CHL1  H19B 1004   2.877   2.457   9.848 -0.7341  1.5383 -0.4934
   14CHL1  H19C 1005   2.787   2.472  10.003  0.4870 -1.1820  0.0159
   14CHL1    C1 1006   2.916   2.709   9.982 -0.0389 -0.1486  0.5829
   14CHL1   H1A 1007   3.006   2.668   9.932 -0.5755 -2.0935  1.1318
   14CHL1   H1B 1008   2.914   2.820   9.979  0.0258  0.0109  3.5538
   14CHL1    C2 1009   2.921   2.676  10.130  0.0238  0.4591  0.4210
   14CHL1   H2A 1010   3.012   2.723  10.174  0.3166  0.6438 -0.3740
   14CHL1   H2B 1011   2.923   2.567  10.152 -1.4979 -0.1256 -2.0132
   14CHL1   C20 1012   2.854   2.697   9.188  0.4509  0.4406  0.3410
   14CHL1   H20 1013   2.851   2.587   9.197  1.8741  0.3177 -0.4730
   14CHL1   C21 1014   2.992   2.745   9.183 -0.3320 -0.5482  0.1156
   14CHL1  H21A 1015   2.998   2.853   9.159  0.7328 -0.5232  0.4217
   14CHL1  H21B 1016   3.048   2.685   9.107 -1.6299  0.4564 -1.7060
   14CHL1  H21C 1017   3.049   2.724   9.276  3.0035 -1.5946 -1.9718
   14CHL1   C22 1018   2.783   2.726   9.056 -0.2913 -0.0440 -0.3302
   14CHL1  H22A 1019   2.679   2.690   9.063 -0.3905  0.3028  0.0584
   14CHL1  H22B 1020   2.782   2.837   9.051 -0.9253  0.0936  1.8070
   14CHL1   C23 1021   2.841   2.664   8.933 -0.2106 -0.2114  0.8978
   14CHL1  H23A 1022   2.947   2.687   8.911  0.2756 -1.5167  1.7686
   14CHL1  H23B 1023   2.841   2.553   8.942 -2.1291 -0.2308  1.1006
   14CHL1   C24 1024   2.753   2.699   8.809  0.7388 -0.0723 -0.1025
   14CHL1  H24A 1025   2.658   2.642   8.816  0.4489  0.0281 -2.5136
   14CHL1  H24B 1026   2.725   2.806   8.800 -0.3117 -0.1906  1.3180
   14CHL1   C25 1027   2.809   2.663   8.676 -0.3651 -0.2658  0.1126
   14CHL1   H25 1028   2.846   2.559   8.684 -1.0923 -0.4403  1.5396
   14CHL1   C26 1029   2.699   2.672   8.566 -0.1109 -0.1529  0.5987
   14CHL1  H26A 1030   2.605   2.628   8.605 -0.5160 -0.2467 -0.4631
   14CHL1  H26B 1031   2.680   2.773   8.525 -1.9250 -1.2408 -1.4706
   14CHL1  H26C 1032   2.736   2.611   8.481  0.2007  1.3620 -0.3780
   14CHL1   C27 1033   2.932   2.745   8.644 -0.5357 -0.3612  0.5254
   14CHL1  H27A 1034   2.892   2.848   8.660  0.2360  0.0314 -0.0092
   14CHL1  H27B 1035   3.015   2.723   8.715 -0.7680 -0.0998  0.8873
   14CHL1  H27C 1036   2.962   2.734   8.538 -0.0206 -1.9206  0.8112
   15CHL1    C3 1037   3.163   2.383  10.004 -0.1490  0.0884 -0.0810
   15CHL1    H3 1038   3.099   2.465   9.966  0.7595  0.4396 -0.8969
   15CHL1    O3 1039   3.127   2.355  10.138  0.5966 -0.4155 -0.3976
   15CHL1   H3' 1040   3.186   2.283  10.162  0.1742 -0.6092  0.0937
   15CHL1    C4 1041   3.132   2.255   9.924  0.6779 -0.4168  0.1873
   15CHL1   H4A 1042   3.208   2.179   9.952 -0.6574 -2.0668 -0.4632
   15CHL1   H4B 1043   3.036   2.220   9.967 -0.3442  2.0906  0.0804
   15CHL1    C5 1044   3.142   2.281   9.779  0.3672  0.1105 -0.4347
   15CHL1    C6 1045   3.036   2.260   9.705  0.0667 -0.2824  0.6996
   15CHL1    H6 1046   2.946   2.219   9.754 -0.6893 -1.9157 -1.8314
   15CHL1    C7 1047   3.034   2.265   9.557  0.1699 -0.3278 -0.1316
   15CHL1   H7A 1048   2.977   2.190   9.498  3.4335 -0.4372 -3.5383
   15CHL1   H7B 1049   2.975   2.358   9.542 -2.3002 -2.0130 -1.4651
   15CHL1    C8 1050   3.171   2.297   9.492  0.3243 -0.4836  0.0195
   15CHL1    H8 1051   3.218   2.198   9.475 -0.7196 -0.8712 -0.7169
   15CHL1   C14 1052   3.156   2.362   9.357  0.2567 -0.1858 -0.7300
   15CHL1   H14 1053   3.115   2.463   9.380 -0.4197 -0.3445 -1.1907
   15CHL1   C15 1054   3.067   2.286   9.254 -0.3150  0.5752 -0.4769
   15CHL1  H15A 1055   3.097   2.179   9.254  1.8442  1.1236 -0.0707
   15CHL1  H15B 1056   2.959   2.282   9.280 -0.8682 -1.5552 -2.6547
   15CHL1   C16 1057   3.101   2.353   9.125  1.2472 -0.6089 -0.5646
   15CHL1  H16A 1058   3.104   2.285   9.038 -1.2532  1.9390 -2.8412
   15CHL1  H16B 1059   3.022   2.427   9.099  1.3390  0.6261  2.2692
   15CHL1   C17 1060   3.231   2.447   9.152 -0.2010  0.5775 -0.7310
   15CHL1   H17 1061   3.196   2.551   9.169  1.0304  0.8639  0.2282
   15CHL1   C13 1062   3.284   2.394   9.283 -0.6247 -0.6209  0.5949
   15CHL1   C18 1063   3.372   2.267   9.249 -0.0386  0.3781 -0.4030
   15CHL1  H18A 1064   3.397   2.207   9.339  1.0450  1.0744 -0.2134
   15CHL1  H18B 1065   3.324   2.204   9.171  2.8984  1.5800 -3.4426
   15CHL1  H18C 1066   3.471   2.300   9.209  0.5330 -0.7283  0.0422
   15CHL1   C12 1067   3.363   2.488   9.374  0.1799 -0.2119  0.0207
   15CHL1  H12A 1068   3.463   2.505   9.328 -0.3411  1.1685 -0.6559
   15CHL1  H12B 1069   3.319   2.589   9.380 -1.1491 -0.7921  0.4129
   15CHL1   C11 1070   3.394   2.425   9.517 -0.4944  0.2581  0.7527
   15CHL1  H11A 1071   3.466   2.342   9.499 -0.2740  0.6375 -0.1974
   15CHL1  H11B 1072   3.437   2.513   9.569 -1.3365  1.1312  0.0044
   15CHL1    C9 1073   3.263   2.382   9.584 -0.5104  0.0342  0.4343
   15CHL1    H9 1074   3.206   2.477   9.582  0.3878  0.5763 -0.0456
   15CHL1   C10 1075   3.276   2.325   9.728 -0.2173 -0.1262 -0.4315
   15CHL1   C19 1076   3.370   2.205   9.740  1.0895  0.1938 -0.3601
   15CHL1  H19A 1077   3.317   2.123   9.688  0.7847  1.1480 -1.5990
   15CHL1  H19B 1078   3.454   2.227   9.670 -0.0131  0.1259 -1.7499
   15CHL1  H19C 1079   3.402   2.189   9.845 -1.3403 -0.2742  0.3579
   15CHL1    C1 1080   3.339   2.440   9.821 -0.0987  0.1458 -0.4737
   15CHL1   H1A 1081   3.448   2.436   9.802  0.2267 -1.3228  1.4819
   15CHL1   H1B 1082   3.285   2.531   9.786  1.5918  1.5741  0.4763
   15CHL1    C2 1083   3.310   2.434   9.977  0.2205  0.0402 -0.3216
   15CHL1   H2A 1084   3.328   2.523  10.042  2.3557 -1.0843  0.7426
   15CHL1   H2B 1085   3.375   2.351  10.012  0.3693  0.3397  0.1205
   15CHL1   C20 1086   3.326   2.441   9.029  0.4702 -1.0299 -0.1170
   15CHL1   H20 1087   3.356   2.337   9.007  2.0445 -0.5380 -0.3966
   15CHL1   C21 1088   3.459   2.517   9.044 -0.7712  0.3333 -0.0136
   15CHL1  H21A 1089   3.536   2.451   9.087 -0.9463  0.7820  1.0252
   15CHL1  H21B 1090   3.445   2.601   9.116  1.5037  0.3794  0.4362
   15CHL1  H21C 1091   3.491   2.561   8.947 -2.1482  2.5060  0.4404
   15CHL1   C22 1092   3.241   2.486   8.905 -0.6249  0.3259  0.1652
   15CHL1  H22A 1093   3.133   2.460   8.907 -0.6993  0.6974  1.4269
   15CHL1  H22B 1094   3.243   2.597   8.902 -0.0169  0.3293  0.5269
   15CHL1   C23 1095   3.306   2.450   8.762  0.5319  0.0677 -0.5647
   15CHL1  H23A 1096   3.405   2.501   8.758 -0.1859  1.4671 -1.7699
   15CHL1  H23B 1097   3.324   2.341   8.763 -0.9282 -0.2020  0.9187
   15CHL1   C24 1098   3.214   2.486   8.642  0.4124  0.2357 -0.3882
   15CHL1  H24A 1099   3.122   2.426   8.662  0.8805 -0.0996  0.8446
   15CHL1  H24B 1100   3.190   2.595   8.651  0.2253  0.4571 -2.8627
   15CHL1   C25 1101   3.274   2.462   8.502  0.3432 -0.5829 -0.0216
   15CHL1   H25 1102   3.359   2.533   8.493  0.0429 -0.0475  1.1702
   15CHL1   C26 1103   3.322   2.327   8.478 -0.2073 -0.3536 -0.0113
   15CHL1  H26A 1104   3.395   2.300   8.558  3.3765  2.2677 -2.0914
   15CHL1  H26B 1105   3.241   2.251   8.476 -0.5105 -0.0463  0.3813
   15CHL1  H26C 1106   3.378   2.319   8.382 -0.3546 -1.5208 -0.0159
   15CHL1   C27 1107   3.184   2.514   8.393 -0.5744  0.1183  0.3205
   15CHL1  H27A 1108   3.249   2.534   8.305  0.5571 -1.8913  0.6379
   15CHL1  H27B 1109   3.104   2.441   8.365 -0.8024  1.4415 -2.9035
   15CHL1  H27C 1110   3.142   2.614   8.416  2.8131  1.6711  0.2305
   16CHL1    C3 1111   3.537   1.693  10.187  0.1714 -0.2122  0.1159
   16CHL1    H3 1112   3.616   1.740  10.125 -1.1307 -0.9322 -2.2230
   16CHL1    O3 1113   3.581   1.698  10.318 -0.1661 -0.0126 -0.6525
   16CHL1   H3' 1114   3.559   1.620  10.370  1.0076  0.9733  1.4563
   16CHL1    C4 1115   3.406   1.770  10.163 -0.4851  0.2310 -0.2992
   16CHL1   H4A 1116   3.328   1.741  10.237 -3.1772  0.0695 -3.0446
   16CHL1   H4B 1117   3.442   1.870  10.194 -0.5897  0.0395  0.4635
   16CHL1    C5 1118   3.358   1.763  10.022  0.3655  0.2106  0.0164
   16CHL1    C6 1119   3.337   1.880   9.959  0.5786 -0.0229  0.9864
   16CHL1    H6 1120   3.339   1.976  10.012  0.2451 -0.1945  1.3126
   16CHL1    C7 1121   3.293   1.885   9.818  0.0757 -0.4277  0.4246
   16CHL1   H7A 1122   3.203   1.949   9.802 -0.2389 -0.8556  0.4540
   16CHL1   H7B 1123   3.370   1.933   9.754  0.7877 -1.0912  0.7650
   16CHL1    C8 1124   3.258   1.751   9.748  0.4735 -0.5595  0.1751
   16CHL1    H8 1125   3.152   1.729   9.772  0.3019 -0.4928 -0.4892
   16CHL1   C14 1126   3.274   1.768   9.603  0.0648 -0.3442  0.4286
   16CHL1   H14 1127   3.380   1.792   9.580 -0.2947  0.2593 -0.6325
   16CHL1   C15 1128   3.204   1.889   9.532  0.3210 -0.2140 -0.1502
   16CHL1  H15A 1129   3.099   1.899   9.568  0.8281  1.1629  1.0053
   16CHL1  H15B 1130   3.261   1.983   9.545 -0.1192  0.2349 -1.3257
   16CHL1   C16 1131   3.186   1.844   9.389 -0.6946  0.3585 -0.0669
   16CHL1  H16A 1132   3.080   1.860   9.360  0.0142  2.2352 -1.8487
   16CHL1  H16B 1133   3.238   1.919   9.326 -0.5653  2.0119  1.9169
   16CHL1   C17 1134   3.243   1.706   9.362 -0.5268 -0.1333 -1.0375
   16CHL1   H17 1135   3.347   1.724   9.327 -0.6333 -1.1667 -1.9367
   16CHL1   C13 1136   3.249   1.647   9.511 -0.4937 -0.0236  0.3590
   16CHL1   C18 1137   3.109   1.575   9.547  0.0680 -0.6482  1.1091
   16CHL1  H18A 1138   3.102   1.492   9.473  0.1626 -0.4771  0.9051
   16CHL1  H18B 1139   3.104   1.530   9.648  2.6630 -1.9598  0.7445
   16CHL1  H18C 1140   3.018   1.634   9.523  0.4748 -0.2451  0.5362
   16CHL1   C12 1141   3.361   1.542   9.549 -0.3565 -0.2926  0.2812
   16CHL1  H12A 1142   3.361   1.450   9.486 -0.7016 -0.3721  0.3900
   16CHL1  H12B 1143   3.460   1.588   9.530  0.0309 -1.8591 -1.8337
   16CHL1   C11 1144   3.366   1.518   9.698 -0.4206 -0.0024 -0.4807
   16CHL1  H11A 1145   3.285   1.443   9.713  2.1022 -3.0600 -0.9556
   16CHL1  H11B 1146   3.459   1.463   9.727 -1.3164 -0.6913  1.2203
   16CHL1    C9 1147   3.367   1.645   9.791  0.7373  0.6847 -0.2658
   16CHL1    H9 1148   3.465   1.695   9.781  0.8843  0.1671 -1.6128
   16CHL1   C10 1149   3.368   1.624   9.951  0.8797  0.1046  0.0988
   16CHL1   C19 1150   3.238   1.547   9.984  0.6164 -0.4685 -0.3491
   16CHL1  H19A 1151   3.252   1.440   9.959 -2.0604 -0.8353 -0.5261
   16CHL1  H19B 1152   3.236   1.551  10.095  1.9094 -3.6628 -0.1244
   16CHL1  H19C 1153   3.143   1.594   9.951  0.4012  1.2890  2.4541
   16CHL1    C1 1154   3.490   1.543   9.994 -0.7234  0.0235  0.3525
   16CHL1   H1A 1155   3.486   1.437   9.963  2.5204 -0.8307  2.3159
   16CHL1   H1B 1156   3.581   1.585   9.947 -1.4583  0.7031 -0.4896
   16CHL1    C2 1157   3.519   1.546  10.149 -0.2768 -0.2507  0.5155
   16CHL1   H2A 1158   3.613   1.490  10.168 -1.1504 -2.4172 -1.1238
   16CHL1   H2B 1159   3.428   1.509  10.200 -2.1431  1.0255 -1.6419
   16CHL1   C20 1160   3.179   1.612   9.251 -0.0779 -0.0809  0.0117
   16CHL1   H20 1161   3.078   1.595   9.294  0.8065 -1.6153  1.6319
   16CHL1   C21 1162   3.251   1.479   9.233 -0.0040 -0.2429  0.3506
   16CHL1  H21A 1163   3.360   1.491   9.214  0.2803 -2.9594 -0.0953
   16CHL1  H21B 1164   3.209   1.412   9.155  2.1418 -1.1264 -0.1266
   16CHL1  H21C 1165   3.234   1.429   9.330 -0.2960 -1.1577 -0.1643
   16CHL1   C22 1166   3.147   1.689   9.116 -0.7706 -0.0064  0.0065
   16CHL1  H22A 1167   3.084   1.636   9.042 -0.5470 -1.5659  0.8795
   16CHL1  H22B 1168   3.078   1.773   9.138 -2.0335 -1.8932  4.2003
   16CHL1   C23 1169   3.267   1.765   9.056  0.2044 -0.2715  0.4377
   16CHL1  H23A 1170   3.306   1.844   9.123 -1.6001  2.0977 -1.1637
   16CHL1  H23B 1171   3.351   1.697   9.029 -0.0759 -0.4502 -0.0119
   16CHL1   C24 1172   3.230   1.838   8.924 -0.5519 -0.5563 -0.1364
   16CHL1  H24A 1173   3.190   1.772   8.845  1.4345  0.0930 -1.7994
   16CHL1  H24B 1174   3.151   1.912   8.950 -0.2257 -0.1261 -0.3391
   16CHL1   C25 1175   3.353   1.911   8.858  0.0160 -0.8546  0.7255
   16CHL1   H25 1176   3.435   1.836   8.854  0.4963 -0.3195  0.2857
   16CHL1   C26 1177   3.320   1.948   8.708  0.1064  1.0419  0.2315
   16CHL1  H26A 1178   3.222   2.001   8.706 -0.0955  0.8215  1.9962
   16CHL1  H26B 1179   3.407   2.004   8.668 -0.7321  1.2185 -1.4034
   16CHL1  H26C 1180   3.312   1.854   8.650  0.9355 -0.1462  1.9441
   16CHL1   C27 1181   3.401   2.037   8.933  0.3301 -0.3456  0.0516
   16CHL1  H27A 1182   3.499   2.072   8.895  0.2140 -1.3304 -1.2322
   16CHL1  H27B 1183   3.320   2.113   8.923 -1.2581 -1.8401  0.9567
   16CHL1  H27C 1184   3.419   2.019   9.041  2.3157  1.2790  0.0522
   17CHL1    C3 1185   5.649   6.413  10.190 -0.2730 -0.5119  1.2137
   17CHL1    H3 1186   5.610   6.511  10.154 -1.3154 -1.1256  0.5989
   17CHL1    O3 1187   5.673   6.415  10.332  0.6113  0.1350 -0.3711
   17CHL1   H3' 1188   5.596   6.365  10.361  1.0984  0.1953  1.1200
   17CHL1    C4 1189   5.567   6.292  10.155 -0.3227  0.1203  0.2663
   17CHL1   H4A 1190   5.629   6.209  10.195  3.1622  1.5891 -1.6563
   17CHL1   H4B 1191   5.468   6.285  10.206 -0.7570  2.1933 -0.1807
   17CHL1    C5 1192   5.557   6.283  10.009  0.1112  0.3564  0.7764
   17CHL1    C6 1193   5.435   6.276   9.959 -0.1213  0.1859  0.8841
   17CHL1    H6 1194   5.352   6.240  10.020 -1.3358 -0.0946 -0.8581
   17CHL1    C7 1195   5.412   6.264   9.810 -0.5673 -0.2114  0.3453
   17CHL1   H7A 1196   5.342   6.180   9.788  1.1946 -1.3192 -1.3743
   17CHL1   H7B 1197   5.354   6.352   9.774  3.4210  3.2782  1.6468
   17CHL1    C8 1198   5.535   6.239   9.722 -0.1454  0.5941 -0.3544
   17CHL1    H8 1199   5.568   6.134   9.738  0.0861  0.4877 -1.5055
   17CHL1   C14 1200   5.509   6.279   9.581 -0.3261  0.0210  0.0086
   17CHL1   H14 1201   5.492   6.388   9.587 -0.2731  0.0133  0.3728
   17CHL1   C15 1202   5.394   6.209   9.509 -0.2822  0.0490 -0.2651
   17CHL1  H15A 1203   5.368   6.104   9.533 -3.4808  0.9148  0.4339
   17CHL1  H15B 1204   5.300   6.256   9.543  0.8727  0.9068  1.9393
   17CHL1   C16 1205   5.416   6.237   9.358  0.5476 -0.1144  0.3689
   17CHL1  H16A 1206   5.411   6.144   9.296  0.4216  0.3871 -0.3793
   17CHL1  H16B 1207   5.342   6.309   9.318  1.2344 -0.5007 -1.7299
   17CHL1   C17 1208   5.559   6.296   9.348  0.2701 -0.2226 -0.2256
   17CHL1   H17 1209   5.541   6.406   9.344 -0.0915 -0.3090 -2.6943
   17CHL1   C13 1210   5.628   6.259   9.485 -0.6161  0.3756 -1.0431
   17CHL1   C18 1211   5.672   6.109   9.479  0.3941 -0.6947 -0.9450
   17CHL1  H18A 1212   5.580   6.050   9.458 -1.4526  0.1727  3.4954
   17CHL1  H18B 1213   5.746   6.099   9.397 -1.0375  2.9138 -2.8780
   17CHL1  H18C 1214   5.712   6.083   9.579  0.3775  2.0133 -0.1590
   17CHL1   C12 1215   5.743   6.348   9.535 -0.0792 -0.6389 -0.1551
   17CHL1  H12A 1216   5.829   6.345   9.464 -0.8149  1.1597 -1.1588
   17CHL1  H12B 1217   5.702   6.450   9.525 -2.5457 -1.0145  4.0584
   17CHL1   C11 1218   5.781   6.320   9.681  0.0494 -0.9728  0.4602
   17CHL1  H11A 1219   5.834   6.223   9.676  0.4945 -0.6467 -2.9234
   17CHL1  H11B 1220   5.848   6.401   9.717 -1.1155 -0.0422  0.5725
   17CHL1    C9 1221   5.660   6.321   9.776  0.3159  0.3617  0.9164
   17CHL1    H9 1222   5.618   6.424   9.778 -2.6395 -0.7494  1.5290
   17CHL1   C10 1223   5.691   6.294   9.931  0.3617 -0.1201 -0.0540
   17CHL1   C19 1224   5.760   6.154   9.937 -0.3402 -0.1604 -0.1660
   17CHL1  H19A 1225   5.863   6.162   9.896 -0.2237  0.1756  0.1847
   17CHL1  H19B 1226   5.778   6.129  10.044  0.9761 -0.8165 -0.5196
   17CHL1  H19C 1227   5.699   6.073   9.891 -1.8242  0.8658 -0.0839
   17CHL1    C1 1228   5.782   6.402   9.986 -1.0952 -0.0632 -0.3975
   17CHL1   H1A 1229   5.886   6.379   9.954 -0.1861  0.8787  1.6836
   17CHL1   H1B 1230   5.749   6.505   9.962 -1.6260 -0.1658 -0.1176
   17CHL1    C2 1231   5.786   6.401  10.138 -0.8055 -0.1959 -0.1893
   17CHL1   H2A 1232   5.840   6.492  10.172 -3.3809  0.7060  1.7830
   17CHL1   H2B 1233   5.846   6.312  10.170  0.3024 -0.2771 -2.2878
   17CHL1   C20 1234   5.631   6.258   9.220  0.0530  0.0217 -0.1897
   17CHL1   H20 1235   5.632   6.148   9.210  0.3404  0.0032  0.0324
   17CHL1   C21 1236   5.776   6.321   9.211 -0.1227 -0.2528 -0.1315
   17CHL1  H21A 1237   5.822   6.303   9.111  0.8575 -0.1329  0.2955
   17CHL1  H21B 1238   5.844   6.266   9.279  0.7494  0.5266 -0.3573
   17CHL1  H21C 1239   5.761   6.427   9.241 -2.7295  0.0835 -2.2216
   17CHL1   C22 1240   5.555   6.323   9.101  0.8513 -0.5965  0.8600
   17CHL1  H22A 1241   5.446   6.300   9.104  0.7558 -0.0350  3.0882
   17CHL1  H22B 1242   5.566   6.433   9.117  0.2932 -0.2228 -1.0509
   17CHL1   C23 1243   5.597   6.274   8.958  0.3629 -0.1853 -0.0910
   17CHL1  H23A 1244   5.707   6.292   8.951  0.4719 -0.1019  1.5423
   17CHL1  H23B 1245   5.577   6.165   8.948 -1.2734 -0.0581  1.4232
   17CHL1   C24 1246   5.518   6.343   8.847  0.0038  0.2066  1.2719
   17CHL1  H24A 1247   5.409   6.348   8.865 -0.3065 -2.6324  0.6149
   17CHL1  H24B 1248   5.537   6.452   8.856 -1.0321  0.3544  1.7588
   17CHL1   C25 1249   5.533   6.292   8.699  0.1772  0.3326  0.3319
   17CHL1   H25 1250   5.641   6.298   8.673  0.9549 -0.4953  2.9539
   17CHL1   C26 1251   5.500   6.147   8.661 -0.5670 -0.0173 -0.3894
   17CHL1  H26A 1252   5.517   6.126   8.553 -0.6107  1.3440 -0.6718
   17CHL1  H26B 1253   5.578   6.085   8.711  1.4408  1.0096 -2.0493
   17CHL1  H26C 1254   5.399   6.112   8.689  0.4536 -1.1061  2.2208
   17CHL1   C27 1255   5.462   6.387   8.599  0.3156 -0.1134 -0.6722
   17CHL1  H27A 1256   5.352   6.369   8.598  0.1231  0.9572 -2.5645
   17CHL1  H27B 1257   5.488   6.492   8.625 -2.0457 -0.2204  2.7662
   17CHL1  H27C 1258   5.485   6.354   8.496 -1.6068 -2.7036 -0.3679
   18CHL1    C3 1259   5.686   5.349  10.207 -0.1588 -1.0410  0.4467
   18CHL1    H3 1260   5.578   5.325  10.206 -0.7663  1.3957 -1.3076
   18CHL1    O3 1261   5.718   5.398  10.335 -0.6871  0.1150  1.1446
   18CHL1   H3' 1262   5.806   5.436  10.327  0.3649 -1.7237  2.9952
   18CHL1    C4 1263   5.784   5.235  10.178 -0.7528  0.2324  0.3085
   18CHL1   H4A 1264   5.885   5.282  10.174 -0.4887 -0.3990 -0.7891
   18CHL1   H4B 1265   5.769   5.157  10.256  0.1182 -0.4448 -0.1763
   18CHL1    C5 1266   5.761   5.182  10.042 -0.7465 -0.2646  0.0140
   18CHL1    C6 1267   5.726   5.053  10.033 -0.2464 -0.2301 -0.1875
   18CHL1    H6 1268   5.724   4.989  10.122 -0.9853 -1.9517 -1.3946
   18CHL1    C7 1269   5.687   4.983   9.910 -0.6186  0.4664 -0.8789
   18CHL1   H7A 1270   5.742   4.887   9.901  0.8539  1.2588 -0.6727
   18CHL1   H7B 1271   5.578   4.964   9.906 -0.7791  1.4107 -1.2589
   18CHL1    C8 1272   5.732   5.065   9.787  0.3224 -0.2953 -0.4644
   18CHL1    H8 1273   5.841   5.052   9.767 -0.0903 -1.4478 -2.0746
   18CHL1   C14 1274   5.661   5.012   9.660 -0.6422 -0.8006 -0.9467
   18CHL1   H14 1275   5.552   5.027   9.669 -0.2399  1.7441  0.9316
   18CHL1   C15 1276   5.683   4.862   9.641  0.1308  0.0959  0.3482
   18CHL1  H15A 1277   5.788   4.826   9.653  0.2638  0.1109 -0.6644
   18CHL1  H15B 1278   5.618   4.806   9.712 -3.1370  1.5962 -1.2374
   18CHL1   C16 1279   5.654   4.840   9.495 -0.1843  0.1103 -0.0723
   18CHL1  H16A 1280   5.734   4.792   9.434 -0.5929  1.4956 -1.8187
   18CHL1  H16B 1281   5.556   4.790   9.489  0.1629 -0.6381  0.4259
   18CHL1   C17 1282   5.625   4.986   9.432 -0.0457  0.4438 -0.6674
   18CHL1   H17 1283   5.517   5.007   9.451  0.4869  1.5198  1.4980
   18CHL1   C13 1284   5.707   5.076   9.526 -0.1995 -0.3830  1.0161
   18CHL1   C18 1285   5.858   5.055   9.489  0.1484 -0.2470 -0.0107
   18CHL1  H18A 1286   5.896   4.951   9.494 -0.3368 -0.4622 -0.5992
   18CHL1  H18B 1287   5.877   5.088   9.385 -2.3703  0.1401 -0.4229
   18CHL1  H18C 1288   5.912   5.107   9.570 -0.4281 -1.9773  1.5789
   18CHL1   C12 1289   5.659   5.226   9.540  0.2974  0.4127  0.5209
   18CHL1  H12A 1290   5.678   5.279   9.444 -2.9260  0.8902  0.0084
   18CHL1  H12B 1291   5.549   5.241   9.545  0.6070  3.6321 -0.3524
   18CHL1   C11 1292   5.724   5.291   9.664  0.2998  0.2270  0.1849
   18CHL1  H11A 1293   5.834   5.279   9.652  0.6216  0.9682  2.0959
   18CHL1  H11B 1294   5.691   5.398   9.662 -0.8291 -0.1136 -0.9692
   18CHL1    C9 1295   5.697   5.219   9.800 -0.3154 -0.5551  0.2706
   18CHL1    H9 1296   5.588   5.226   9.820 -0.2141  0.1342  0.5832
   18CHL1   C10 1297   5.762   5.280   9.923 -0.0580 -0.5937 -0.7332
   18CHL1   C19 1298   5.906   5.330   9.896  0.3531  0.1706  0.4306
   18CHL1  H19A 1299   5.903   5.410   9.819 -1.3453  0.5064  0.8204
   18CHL1  H19B 1300   5.962   5.370   9.983  1.1802  3.0522 -1.2900
   18CHL1  H19C 1301   5.957   5.238   9.857 -2.1168 -2.5088  2.9981
   18CHL1    C1 1302   5.672   5.402   9.969 -0.3460 -0.6046  0.0136
   18CHL1   H1A 1303   5.674   5.489   9.899  0.3980 -1.6979 -1.3736
   18CHL1   H1B 1304   5.567   5.367   9.965 -0.2944 -0.8110  0.5056
   18CHL1    C2 1305   5.695   5.463  10.110 -0.4244  0.4898  0.8398
   18CHL1   H2A 1306   5.627   5.548  10.130 -1.2677  0.2966 -1.0390
   18CHL1   H2B 1307   5.799   5.503  10.113  0.2864 -1.3390  2.4792
   18CHL1   C20 1308   5.638   4.999   9.283 -0.1390  0.5467 -0.3421
   18CHL1   H20 1309   5.745   4.986   9.256 -0.1979  0.5534 -0.5764
   18CHL1   C21 1310   5.587   5.138   9.230 -0.1861  0.3264 -0.1769
   18CHL1  H21A 1311   5.491   5.166   9.280 -0.8543  1.3328 -1.9298
   18CHL1  H21B 1312   5.578   5.134   9.120  0.9162  1.6439 -0.3269
   18CHL1  H21C 1313   5.661   5.215   9.260  3.0759 -2.1015 -1.4711
   18CHL1   C22 1314   5.568   4.892   9.195 -0.5170  0.1629 -0.1671
   18CHL1  H22A 1315   5.601   4.888   9.089 -0.0364 -1.7526  0.0057
   18CHL1  H22B 1316   5.606   4.792   9.226 -1.2617  0.9322  3.7669
   18CHL1   C23 1317   5.418   4.890   9.191 -0.1403  0.2493 -0.9008
   18CHL1  H23A 1318   5.373   4.850   9.285 -0.5219  2.3453 -0.1510
   18CHL1  H23B 1319   5.386   4.996   9.201 -0.1542  0.1712 -0.0928
   18CHL1   C24 1320   5.367   4.818   9.075  0.4908 -0.9921  0.7391
   18CHL1  H24A 1321   5.414   4.719   9.061  0.6102 -0.7627 -0.6994
   18CHL1  H24B 1322   5.257   4.800   9.083  0.0224  1.3575  0.3545
   18CHL1   C25 1323   5.380   4.894   8.938  0.7006 -0.2987 -0.1638
   18CHL1   H25 1324   5.487   4.906   8.908  0.3484  1.8503 -0.6629
   18CHL1   C26 1325   5.319   4.808   8.818 -0.4974  0.3870 -0.3961
   18CHL1  H26A 1326   5.344   4.700   8.817 -3.9134 -0.5536  1.2452
   18CHL1  H26B 1327   5.210   4.808   8.843  0.0398 -1.0660  2.3161
   18CHL1  H26C 1328   5.347   4.849   8.718  1.4926 -0.3573 -0.1712
   18CHL1   C27 1329   5.309   5.032   8.926  0.1535  0.3099  0.2271
   18CHL1  H27A 1330   5.347   5.103   9.003  0.4521  1.6131 -1.0647
   18CHL1  H27B 1331   5.328   5.073   8.824 -0.5112  0.6156  0.2220
   18CHL1  H27C 1332   5.200   5.021   8.943 -0.1364  0.4669 -1.3485
   19CHL1    C3 1333   2.863   1.963  10.062 -0.3674  0.4737  0.0046
   19CHL1    H3 1334   2.930   2.039  10.017  1.2937 -1.5543 -1.0956
   19CHL1    O3 1335   2.893   1.941  10.198  0.1789 -0.0212 -0.4163
   19CHL1   H3' 1336   2.815   1.902  10.238  1.2102 -0.2163  1.4872
   19CHL1    C4 1337   2.723   2.010  10.036  0.4605  0.2339 -0.5363
   19CHL1   H4A 1338   2.655   1.930  10.072  2.0472 -0.5859  0.7653
   19CHL1   H4B 1339   2.701   2.106  10.088  1.8843  0.6235 -0.6241
   19CHL1    C5 1340   2.689   2.031   9.881 -0.4219 -0.7419 -0.3205
   19CHL1    C6 1341   2.634   2.147   9.834  0.5641  0.3477 -0.6948
   19CHL1    H6 1342   2.612   2.226   9.908 -1.0230 -0.2245 -0.5192
   19CHL1    C7 1343   2.604   2.175   9.687  0.1040 -0.7732 -1.5929
   19CHL1   H7A 1344   2.499   2.209   9.678  0.7800  2.0781  0.0895
   19CHL1   H7B 1345   2.673   2.256   9.656  0.4352 -0.2105  0.4458
   19CHL1    C8 1346   2.624   2.057   9.597 -0.9048 -0.2609  0.8516
   19CHL1    H8 1347   2.531   1.995   9.600 -1.1698  0.1569  3.3246
   19CHL1   C14 1348   2.638   2.097   9.446  0.3610 -0.3395  0.8131
   19CHL1   H14 1349   2.732   2.155   9.450  0.5799 -0.6690  0.5517
   19CHL1   C15 1350   2.529   2.177   9.367 -0.3161 -0.0589 -0.5432
   19CHL1  H15A 1351   2.424   2.144   9.384 -1.3403  2.3194 -1.6987
   19CHL1  H15B 1352   2.534   2.283   9.400 -0.0177 -0.7226  1.6845
   19CHL1   C16 1353   2.556   2.161   9.224 -0.3596 -0.1842 -0.2506
   19CHL1  H16A 1354   2.472   2.117   9.166 -1.1568  1.5530 -0.4702
   19CHL1  H16B 1355   2.590   2.258   9.182  2.4504 -0.7024  0.5524
   19CHL1   C17 1356   2.674   2.051   9.219  0.7191 -0.2180  0.3294
   19CHL1   H17 1357   2.769   2.109   9.226  1.6026 -1.6512  0.7557
   19CHL1   C13 1358   2.667   1.968   9.348  0.2578 -0.0761 -0.3173
   19CHL1   C18 1359   2.545   1.874   9.339 -0.2013  0.2519  0.1249
   19CHL1  H18A 1360   2.447   1.920   9.313 -1.3287 -0.5268  2.5836
   19CHL1  H18B 1361   2.572   1.789   9.274 -1.0271  1.8576 -2.4389
   19CHL1  H18C 1362   2.526   1.821   9.435  0.5038  0.4821  0.3974
   19CHL1   C12 1363   2.791   1.894   9.400  0.1745 -0.5630 -0.3312
   19CHL1  H12A 1364   2.809   1.807   9.334  1.3522  0.4020 -1.3372
   19CHL1  H12B 1365   2.884   1.954   9.391  0.8667 -1.5910 -0.1901
   19CHL1   C11 1366   2.787   1.853   9.547 -0.2071 -0.1809  0.5385
   19CHL1  H11A 1367   2.696   1.790   9.549 -1.9323  1.9769 -2.2286
   19CHL1  H11B 1368   2.880   1.800   9.577 -0.1291  0.4897  1.5187
   19CHL1    C9 1369   2.749   1.966   9.640 -0.1321 -0.2276  0.5184
   19CHL1    H9 1370   2.835   2.036   9.640 -1.0052  0.9210  2.2583
   19CHL1   C10 1371   2.737   1.921   9.784 -0.6770  0.5316  0.3038
   19CHL1   C19 1372   2.626   1.814   9.807 -0.2687  0.0851  0.6650
   19CHL1  H19A 1373   2.526   1.853   9.778 -0.6467 -0.2314  1.4976
   19CHL1  H19B 1374   2.649   1.734   9.733  1.1830  1.0918 -0.0004
   19CHL1  H19C 1375   2.625   1.780   9.913  0.5108 -0.7286  0.4276
   19CHL1    C1 1376   2.872   1.852   9.822  0.5287 -0.7937  0.4943
   19CHL1   H1A 1377   2.900   1.753   9.781 -3.1490 -1.9412  0.3947
   19CHL1   H1B 1378   2.945   1.931   9.794 -0.7974  1.0526  1.9660
   19CHL1    C2 1379   2.885   1.831   9.976 -0.1554  0.7267  0.3666
   19CHL1   H2A 1380   2.988   1.799  10.002 -0.5882 -3.4545 -2.1421
   19CHL1   H2B 1381   2.806   1.767  10.021 -0.9060  1.1768 -0.2699
   19CHL1   C20 1382   2.684   1.969   9.091 -0.0210  0.0371  0.0853
   19CHL1   H20 1383   2.596   1.901   9.084 -1.4161  1.7720  0.2016
   19CHL1   C21 1384   2.812   1.885   9.082  0.3743 -0.3263  0.3678
   19CHL1  H21A 1385   2.801   1.793   9.143  0.5604 -1.0805 -0.6974
   19CHL1  H21B 1386   2.899   1.940   9.123  0.1423  0.5525 -0.2761
   19CHL1  H21C 1387   2.824   1.854   8.975 -3.8283  3.3897 -1.4913
   19CHL1   C22 1388   2.686   2.054   8.960 -0.4937 -0.3634  1.3802
   19CHL1  H22A 1389   2.712   1.982   8.880  2.2697  0.8477  1.0407
   19CHL1  H22B 1390   2.583   2.091   8.945  0.2772  0.7291 -2.2195
   19CHL1   C23 1391   2.789   2.170   8.961 -1.0137  0.0728  0.1790
   19CHL1  H23A 1392   2.763   2.240   9.043 -0.6222  1.0633 -0.5286
   19CHL1  H23B 1393   2.897   2.152   8.981  0.1533  3.3001 -2.2542
   19CHL1   C24 1394   2.782   2.246   8.826  0.0065 -0.1585 -1.0477
   19CHL1  H24A 1395   2.680   2.279   8.798  0.6624  0.5591 -2.7588
   19CHL1  H24B 1396   2.843   2.338   8.840  0.7883 -0.8431  0.1767
   19CHL1   C25 1397   2.827   2.172   8.702  0.1924 -0.1815  0.6008
   19CHL1   H25 1398   2.751   2.092   8.685 -1.5970  1.5649  0.0147
   19CHL1   C26 1399   2.799   2.257   8.572  0.2047  0.3118  0.0938
   19CHL1  H26A 1400   2.690   2.274   8.560  0.4188  0.8009 -1.3955
   19CHL1  H26B 1401   2.861   2.349   8.562  3.8636 -2.1926 -3.1119
   19CHL1  H26C 1402   2.841   2.193   8.491  0.4325 -0.2472  0.6486
   19CHL1   C27 1403   2.970   2.124   8.708  0.1217 -0.0052  0.6929
   19CHL1  H27A 1404   2.972   2.039   8.779 -1.5897 -0.5486  0.1415
   19CHL1  H27B 1405   3.010   2.094   8.609  0.4465 -0.3127  0.9140
   19CHL1  H27C 1406   3.043   2.198   8.748  1.1585  0.3228 -1.6453
   20CHL1    C3 1407   6.379   0.985  10.324  1.0338  0.0056 -0.0022
   20CHL1    H3 1408   6.273   1.011  10.304  1.1583  0.2461 -0.3486
   20CHL1    O3 1409   6.387   0.960  10.462  0.0315  0.1847  0.1227
   20CHL1   H3' 1410   6.470   0.913  10.467 -0.0679 -0.2254 -1.5799
   20CHL1    C4 1411   6.399   0.844  10.255  0.0988 -0.5477  0.0277
   20CHL1   H4A 1412   6.503   0.807  10.268  0.3441  0.8877  2.8096
   20CHL1   H4B 1413   6.333   0.774  10.310 -0.3879  0.9088  1.3523
   20CHL1    C5 1414   6.376   0.850  10.107  0.1403  0.0835  0.7563
   20CHL1    C6 1415   6.278   0.788  10.044 -0.8905  0.1173 -0.0179
   20CHL1    H6 1416   6.208   0.735  10.110  0.3410  0.7944  1.9383
   20CHL1    C7 1417   6.251   0.797   9.895  0.3990  0.4613 -0.1212
   20CHL1   H7A 1418   6.233   0.693   9.862  1.3851 -0.1232  1.1039
   20CHL1   H7B 1419   6.165   0.862   9.866  0.6577  0.5559 -0.6806
   20CHL1    C8 1420   6.384   0.844   9.815 -0.4570 -0.0379  0.2449
   20CHL1    H8 1421   6.458   0.762   9.825  0.1669  0.2019 -1.9313
   20CHL1   C14 1422   6.341   0.860   9.671  0.0711  0.1837  0.2074
   20CHL1   H14 1423   6.250   0.923   9.676  0.1644  0.6519 -2.5799
   20CHL1   C15 1424   6.295   0.740   9.591  0.5018  0.4386 -0.7338
   20CHL1  H15A 1425   6.378   0.668   9.605  1.1255  0.9743 -1.5596
   20CHL1  H15B 1426   6.196   0.703   9.627  1.3853 -0.6077  0.7208
   20CHL1   C16 1427   6.286   0.788   9.440 -0.7494 -0.7560 -0.0349
   20CHL1  H16A 1428   6.332   0.711   9.376 -0.8838  0.4927 -1.7025
   20CHL1  H16B 1429   6.180   0.788   9.406 -0.2960 -3.0568 -1.6498
   20CHL1   C17 1430   6.346   0.930   9.447  0.6296 -0.6639 -0.2790
   20CHL1   H17 1431   6.268   1.006   9.471  0.9882 -0.1841 -0.6020
   20CHL1   C13 1432   6.433   0.937   9.580  1.1012 -0.0605  0.2767
   20CHL1   C18 1433   6.563   0.864   9.549 -0.0600  0.5221 -0.1222
   20CHL1  H18A 1434   6.610   0.828   9.643 -1.1589 -1.0994 -0.1637
   20CHL1  H18B 1435   6.546   0.781   9.478  0.7655  1.2746 -1.2426
   20CHL1  H18C 1436   6.616   0.940   9.488 -2.4006  1.1611 -1.4441
   20CHL1   C12 1437   6.454   1.083   9.644 -0.3275 -0.0301 -0.0781
   20CHL1  H12A 1438   6.528   1.146   9.591 -0.5357 -1.0015 -1.6130
   20CHL1  H12B 1439   6.359   1.141   9.645 -1.5731 -1.9075 -1.0871
   20CHL1   C11 1440   6.508   1.074   9.795  1.2236  0.0756 -0.2584
   20CHL1  H11A 1441   6.610   1.032   9.784  0.5758 -1.3177 -1.1077
   20CHL1  H11B 1442   6.520   1.177   9.837  2.8097  0.1669 -0.8786
   20CHL1    C9 1443   6.420   0.979   9.883 -0.0410  1.0376 -0.4761
   20CHL1    H9 1444   6.322   1.033   9.889 -0.6964  0.3945 -3.7206
   20CHL1   C10 1445   6.467   0.950  10.030  1.0428 -0.5660 -0.2092
   20CHL1   C19 1446   6.614   0.892  10.025  0.0844 -0.5979 -0.1206
   20CHL1  H19A 1447   6.654   0.868  10.125  1.2740  2.9482  0.3950
   20CHL1  H19B 1448   6.619   0.801   9.961 -3.1969 -1.6821  0.9236
   20CHL1  H19C 1449   6.681   0.968   9.978  0.9878  0.2360  2.3824
   20CHL1    C1 1450   6.450   1.093  10.105 -0.0418 -0.4290 -0.7133
   20CHL1   H1A 1451   6.530   1.163  10.075 -1.6193  1.6856 -0.2382
   20CHL1   H1B 1452   6.349   1.137  10.095 -1.4181 -2.9450  0.9047
   20CHL1    C2 1453   6.470   1.083  10.262 -0.0838 -0.0102  0.6682
   20CHL1   H2A 1454   6.457   1.178  10.318  1.1360 -0.5496  1.9340
   20CHL1   H2B 1455   6.577   1.057  10.276  0.0779  0.8825  1.1340
   20CHL1   C20 1456   6.411   0.973   9.315  0.4055  0.3421 -0.4890
   20CHL1   H20 1457   6.518   0.944   9.312  0.3362 -0.1581  0.9664
   20CHL1   C21 1458   6.427   1.132   9.309  0.5767 -0.3249 -0.0998
   20CHL1  H21A 1459   6.485   1.156   9.218  0.4864  1.3253  0.2462
   20CHL1  H21B 1460   6.472   1.166   9.405  0.3980  0.1611 -0.1882
   20CHL1  H21C 1461   6.326   1.178   9.313  1.8674  2.6636  1.8496
   20CHL1   C22 1462   6.333   0.939   9.191  1.0582  0.4776 -0.2759
   20CHL1  H22A 1463   6.318   0.829   9.193 -0.6057  0.6801  1.4128
   20CHL1  H22B 1464   6.234   0.987   9.204  0.1729 -1.6783  1.4109
   20CHL1   C23 1465   6.396   0.980   9.060  0.1430 -0.3394 -0.1299
   20CHL1  H23A 1466   6.389   1.090   9.046 -1.0386 -0.2038  1.2562
   20CHL1  H23B 1467   6.501   0.946   9.046  0.5949  0.3548  1.2883
   20CHL1   C24 1468   6.321   0.916   8.940  0.4438  0.0971 -0.0496
   20CHL1  H24A 1469   6.278   0.817   8.966 -1.6538  0.4998 -1.6892
   20CHL1  H24B 1470   6.226   0.967   8.916  1.3831  0.7274 -2.7636
   20CHL1   C25 1471   6.408   0.927   8.804  0.2284 -0.4929  0.3961
   20CHL1   H25 1472   6.510   0.961   8.828 -0.3085  0.7586  0.9763
   20CHL1   C26 1473   6.399   0.789   8.741  0.3702 -0.4332  0.0731
   20CHL1  H26A 1474   6.294   0.772   8.711  0.7672  0.3241 -1.9087
   20CHL1  H26B 1475   6.458   0.780   8.647 -1.3859 -1.6214 -0.9786
   20CHL1  H26C 1476   6.433   0.711   8.812 -0.3907 -1.3891 -0.5861
   20CHL1   C27 1477   6.330   1.028   8.718  0.9887  0.4896 -0.0887
   20CHL1  H27A 1478   6.224   1.002   8.697  1.2124  0.3180 -1.0388
   20CHL1  H27B 1479   6.333   1.129   8.766 -0.1092 -0.2314  1.5807
   20CHL1  H27C 1480   6.374   1.042   8.617  0.1810 -1.8667 -0.8189
   21CHL1    C3 1481   5.722   4.568  10.251 -0.7390 -0.1969  0.3971
   21CHL1    H3 1482   5.677   4.669  10.258  0.6103  0.5003 -0.6811
   21CHL1    O3 1483   5.799   4.536  10.371  0.1975 -0.7812  0.1729
   21CHL1   H3' 1484   5.884   4.501  10.342 -0.4403 -2.0823 -0.1882
   21CHL1    C4 1485   5.603   4.462  10.241  0.9143  0.0802  0.3076
   21CHL1   H4A 1486   5.623   4.358  10.272 -2.4257 -0.2751  1.6294
   21CHL1   H4B 1487   5.553   4.501  10.332 -0.6066 -2.9085  0.8622
   21CHL1    C5 1488   5.537   4.464  10.107  0.3531 -0.6966 -0.2942
   21CHL1    C6 1489   5.409   4.462  10.098  0.8714 -0.2196 -0.5432
   21CHL1    H6 1490   5.352   4.463  10.192  0.5518 -0.3878 -0.7341
   21CHL1    C7 1491   5.326   4.459   9.970 -0.7013 -0.6246  0.2400
   21CHL1   H7A 1492   5.252   4.377   9.982 -1.9596  0.5269  0.7204
   21CHL1   H7B 1493   5.270   4.554   9.956  0.4876 -0.0341 -0.5985
   21CHL1    C8 1494   5.411   4.411   9.849  0.2224 -0.3247 -0.5562
   21CHL1    H8 1495   5.425   4.302   9.864 -1.1806 -0.5037 -0.3844
   21CHL1   C14 1496   5.324   4.447   9.727  0.2981 -0.8308 -0.0606
   21CHL1   H14 1497   5.312   4.558   9.726 -0.0761 -0.8555  0.8963
   21CHL1   C15 1498   5.179   4.394   9.719 -0.6391 -0.1923 -0.5998
   21CHL1  H15A 1499   5.171   4.291   9.760  1.5173 -0.5276 -0.9057
   21CHL1  H15B 1500   5.116   4.457   9.786 -1.6557 -1.0169 -0.7524
   21CHL1   C16 1501   5.142   4.399   9.571 -0.0669  0.0681 -0.5402
   21CHL1  H16A 1502   5.119   4.298   9.531 -3.7631 -0.0649  1.4401
   21CHL1  H16B 1503   5.051   4.460   9.550  0.0089  0.3252 -0.1360
   21CHL1   C17 1504   5.270   4.450   9.500 -0.3928  0.3261 -0.3582
   21CHL1   H17 1505   5.264   4.561   9.502 -0.3335  0.3333 -0.5293
   21CHL1   C13 1506   5.388   4.413   9.595 -0.4987 -0.0751  0.2444
   21CHL1   C18 1507   5.407   4.257   9.580  0.8211 -0.3143 -0.1291
   21CHL1  H18A 1508   5.475   4.222   9.660  1.4594  1.7829  0.3082
   21CHL1  H18B 1509   5.315   4.196   9.588 -0.6339  1.7776 -0.1719
   21CHL1  H18C 1510   5.456   4.234   9.483  1.7805 -1.8689  0.6797
   21CHL1   C12 1511   5.523   4.498   9.590  0.4540 -0.5588  0.4731
   21CHL1  H12A 1512   5.573   4.468   9.495  0.8452  1.4751 -0.0266
   21CHL1  H12B 1513   5.522   4.609   9.576  0.8555 -0.6814 -0.6627
   21CHL1   C11 1514   5.614   4.471   9.712  0.0365  0.3184  0.4660
   21CHL1  H11A 1515   5.638   4.363   9.700  1.5121  0.5279  1.3129
   21CHL1  H11B 1516   5.696   4.545   9.700  0.0649  0.1067 -0.7539
   21CHL1    C9 1517   5.548   4.491   9.855  1.1958 -0.1035  0.8134
   21CHL1    H9 1518   5.518   4.598   9.852  1.4442 -0.0387 -1.5777
   21CHL1   C10 1519   5.625   4.465   9.982 -0.2190  0.1079 -0.6825
   21CHL1   C19 1520   5.685   4.323   9.976 -0.1040 -0.5479  0.2381
   21CHL1  H19A 1521   5.744   4.314   9.882 -0.8825  1.1722 -0.4704
   21CHL1  H19B 1522   5.755   4.311  10.061  1.9274  2.1728 -0.8845
   21CHL1  H19C 1523   5.620   4.233   9.979  1.8811 -2.0397  0.8809
   21CHL1    C1 1524   5.744   4.561   9.989  0.5290 -0.2343  0.3514
   21CHL1   H1A 1525   5.820   4.530   9.915  0.2706  0.5251 -0.2498
   21CHL1   H1B 1526   5.714   4.665   9.964  0.1338 -0.9399 -2.3854
   21CHL1    C2 1527   5.813   4.564  10.125  0.2106 -0.1531  0.0407
   21CHL1   H2A 1528   5.880   4.652  10.139  0.2375 -0.4639  2.3440
   21CHL1   H2B 1529   5.884   4.479  10.134  0.2324 -0.0648  0.8289
   21CHL1   C20 1530   5.286   4.418   9.350  0.8894  0.6640  0.2900
   21CHL1   H20 1531   5.336   4.320   9.340 -0.8642 -0.4957  2.1757
   21CHL1   C21 1532   5.371   4.535   9.289  0.3026  0.2772  0.3096
   21CHL1  H21A 1533   5.386   4.527   9.180 -0.0050 -1.4679  0.3562
   21CHL1  H21B 1534   5.462   4.550   9.350  1.0246  0.7562 -0.8760
   21CHL1  H21C 1535   5.312   4.629   9.301  1.5150  1.2774 -1.1979
   21CHL1   C22 1536   5.152   4.413   9.272 -0.1327  0.2629 -0.2759
   21CHL1  H22A 1537   5.097   4.329   9.318 -0.6645 -0.1701 -1.6320
   21CHL1  H22B 1538   5.090   4.505   9.279 -0.8049 -0.0442 -1.7912
   21CHL1   C23 1539   5.162   4.385   9.123  0.6469 -0.8613 -0.1414
   21CHL1  H23A 1540   5.228   4.459   9.074 -0.9086  0.8353  0.2063
   21CHL1  H23B 1541   5.191   4.281   9.097  1.1691 -0.8148  0.2588
   21CHL1   C24 1542   5.023   4.398   9.056 -0.9846 -0.4220 -0.1236
   21CHL1  H24A 1543   4.958   4.321   9.103 -2.2252 -0.2614 -1.5008
   21CHL1  H24B 1544   4.977   4.494   9.086 -0.6814 -1.1937  3.1716
   21CHL1   C25 1545   5.013   4.389   8.899  0.2553 -0.4000 -0.4846
   21CHL1   H25 1546   5.077   4.300   8.884  0.1830 -0.5453  0.0453
   21CHL1   C26 1547   4.875   4.350   8.843 -0.6445 -0.3526  0.4411
   21CHL1  H26A 1548   4.792   4.418   8.872  0.9588  0.9934  2.0348
   21CHL1  H26B 1549   4.888   4.331   8.734 -0.2879  1.2815  0.1711
   21CHL1  H26C 1550   4.860   4.251   8.892  4.1108 -1.1512  0.7553
   21CHL1   C27 1551   5.068   4.505   8.823 -0.2815  0.4531  0.2818
   21CHL1  H27A 1552   5.163   4.539   8.870 -0.7973 -0.4709  2.0812
   21CHL1  H27B 1553   5.090   4.478   8.717 -2.2224 -1.4146  0.3004
   21CHL1  H27C 1554   4.997   4.590   8.826 -0.3643  0.4219  4.4016
   22CHL1    C3 1555   4.747   5.506  10.179 -0.2583 -0.1204  1.1998
   22CHL1    H3 1556   4.704   5.607  10.161 -0.6825 -0.2899  1.2439
   22CHL1    O3 1557   4.775   5.487  10.319 -0.4292 -0.0395  0.1320
   22CHL1   H3' 1558   4.869   5.481  10.333 -0.7837  0.2057  3.2760
   22CHL1    C4 1559   4.655   5.399  10.133 -0.4226  1.0813  0.0940
   22CHL1   H4A 1560   4.689   5.295  10.153 -1.0536  0.5328 -1.4590
   22CHL1   H4B 1561   4.565   5.433  10.188 -1.3287  0.7623 -1.1482
   22CHL1    C5 1562   4.633   5.405   9.987  0.1652 -0.2271 -0.3597
   22CHL1    C6 1563   4.505   5.415   9.954  0.8031 -0.5970 -0.4412
   22CHL1    H6 1564   4.430   5.396  10.032 -0.2831 -1.3752 -1.6198
   22CHL1    C7 1565   4.468   5.430   9.805 -0.3565 -0.7982  0.4499
   22CHL1   H7A 1566   4.397   5.351   9.771 -0.7033 -0.2574 -0.1035
   22CHL1   H7B 1567   4.421   5.527   9.780  1.0499 -0.2588 -0.1510
   22CHL1    C8 1568   4.579   5.422   9.704 -0.4865  0.2531  0.9298
   22CHL1    H8 1569   4.594   5.312   9.690 -2.7023  0.0458 -0.3567
   22CHL1   C14 1570   4.549   5.482   9.563 -0.2159 -0.5823  0.1091
   22CHL1   H14 1571   4.534   5.588   9.594  0.3078 -0.2226 -0.8434
   22CHL1   C15 1572   4.411   5.445   9.498 -0.4882  0.1708  0.0367
   22CHL1  H15A 1573   4.404   5.338   9.526  0.9409  0.3122  1.0569
   22CHL1  H15B 1574   4.337   5.513   9.546 -2.8043 -1.9056 -0.3903
   22CHL1   C16 1575   4.444   5.468   9.344 -0.0879  0.1372 -0.0630
   22CHL1  H16A 1576   4.427   5.369   9.297 -3.0226  0.2424  0.6089
   22CHL1  H16B 1577   4.382   5.545   9.294 -0.4423  0.7154  1.2184
   22CHL1   C17 1578   4.596   5.503   9.333  0.2211  0.0076  0.4666
   22CHL1   H17 1579   4.584   5.613   9.332  0.7472  0.0917 -1.9796
   22CHL1   C13 1580   4.663   5.457   9.465 -0.4711 -0.2494  0.5479
   22CHL1   C18 1581   4.698   5.304   9.445 -0.4082 -0.1907  0.1034
   22CHL1  H18A 1582   4.724   5.255   9.542  0.3763 -0.3216 -0.1700
   22CHL1  H18B 1583   4.607   5.246   9.419  0.0627 -2.1539  2.3934
   22CHL1  H18C 1584   4.786   5.288   9.379  0.9277 -1.5531  2.0998
   22CHL1   C12 1585   4.787   5.539   9.515 -0.1092 -0.7196 -0.7044
   22CHL1  H12A 1586   4.874   5.530   9.447 -0.1970  0.9513 -1.0856
   22CHL1  H12B 1587   4.761   5.647   9.514 -0.3349 -0.7665 -0.2677
   22CHL1   C11 1588   4.831   5.494   9.656  0.1129 -0.6244  0.1784
   22CHL1  H11A 1589   4.882   5.397   9.636  0.7235 -0.7752  2.2080
   22CHL1  H11B 1590   4.915   5.560   9.689 -0.0374  0.2043 -1.0614
   22CHL1    C9 1591   4.710   5.482   9.764  0.5044  0.4886  0.3255
   22CHL1    H9 1592   4.687   5.587   9.794  1.4167  0.6612  0.4610
   22CHL1   C10 1593   4.758   5.425   9.892  0.1405 -0.1001 -1.1259
   22CHL1   C19 1594   4.831   5.292   9.873 -0.3182  0.0538  0.7467
   22CHL1  H19A 1595   4.815   5.221   9.956 -3.6705 -1.3446 -0.9317
   22CHL1  H19B 1596   4.794   5.232   9.787 -0.5817 -1.1715  1.6854
   22CHL1  H19C 1597   4.940   5.313   9.864 -0.3900  0.1747  0.0667
   22CHL1    C1 1598   4.864   5.526   9.954  0.3127  0.3762 -0.3566
   22CHL1   H1A 1599   4.959   5.525   9.896  0.4024  0.2547 -0.2069
   22CHL1   H1B 1600   4.815   5.626   9.947  1.6072  0.9984 -0.9377
   22CHL1    C2 1601   4.881   5.502  10.103 -0.6052 -0.1844 -0.2109
   22CHL1   H2A 1602   4.950   5.579  10.145 -0.8152  1.0489 -2.0110
   22CHL1   H2B 1603   4.922   5.399  10.104  1.1300  0.4533  0.8585
   22CHL1   C20 1604   4.659   5.467   9.196  0.0399  0.7523  0.1784
   22CHL1   H20 1605   4.663   5.357   9.183  0.7588  0.6441  1.1938
   22CHL1   C21 1606   4.804   5.514   9.205 -0.7226  0.5774  0.2062
   22CHL1  H21A 1607   4.837   5.516   9.099 -0.5516 -1.7978  0.1748
   22CHL1  H21B 1608   4.862   5.440   9.264  1.9508  2.1496 -0.3071
   22CHL1  H21C 1609   4.811   5.617   9.246 -1.3252  1.7180 -2.3578
   22CHL1   C22 1610   4.583   5.528   9.073 -0.6890 -0.0271 -0.6222
   22CHL1  H22A 1611   4.479   5.490   9.072 -0.4796 -0.6138 -1.6817
   22CHL1  H22B 1612   4.582   5.639   9.071  2.6610  0.1070 -0.8261
   22CHL1   C23 1613   4.654   5.495   8.941 -0.5171  0.1286 -0.1320
   22CHL1  H23A 1614   4.712   5.578   8.896 -2.2233 -0.3679 -3.5646
   22CHL1  H23B 1615   4.717   5.404   8.950 -0.0344  0.2316 -2.1051
   22CHL1   C24 1616   4.546   5.463   8.840 -0.0239 -0.4517  0.6494
   22CHL1  H24A 1617   4.491   5.370   8.867 -0.2316 -0.9103 -1.1817
   22CHL1  H24B 1618   4.470   5.543   8.829 -1.7134 -2.1016 -0.5251
   22CHL1   C25 1619   4.594   5.457   8.695  0.7065  0.3856  0.8233
   22CHL1   H25 1620   4.634   5.555   8.664  0.3896  0.6453  1.2350
   22CHL1   C26 1621   4.700   5.338   8.680 -0.1373 -0.6250 -0.0352
   22CHL1  H26A 1622   4.659   5.243   8.720 -1.2425  0.3347  1.2193
   22CHL1  H26B 1623   4.742   5.326   8.578 -0.3839 -0.4284 -0.1623
   22CHL1  H26C 1624   4.790   5.361   8.741 -0.4186  1.2208 -0.2654
   22CHL1   C27 1625   4.468   5.427   8.608 -0.5296  0.5100 -0.1031
   22CHL1  H27A 1626   4.403   5.351   8.655 -1.3305  0.4230 -1.3064
   22CHL1  H27B 1627   4.405   5.519   8.602 -0.6776  0.3657 -0.8225
   22CHL1  H27C 1628   4.505   5.381   8.514  0.9877  1.8382 -0.1936
   23CHL1    C3 1629   1.848   0.038  10.119 -0.4842 -0.6994 -0.4429
   23CHL1    H3 1630   1.941   0.098  10.110  0.2423 -1.9082 -1.3887
   23CHL1    O3 1631   1.831   0.014  10.256  0.4977  0.5389  0.7763
   23CHL1   H3' 1632   1.736   0.015  10.266  0.4134 -2.3144  0.9706
   23CHL1    C4 1633   1.723   0.102  10.065 -0.4519  0.7354  0.5156
   23CHL1   H4A 1634   1.639   0.038  10.100  1.0541 -2.2528 -0.9126
   23CHL1   H4B 1635   1.723   0.203  10.111 -2.9694  0.6352  0.8937
   23CHL1    C5 1636   1.723   0.106   9.915  0.7276  0.8910 -0.2105
   23CHL1    C6 1637   1.704   0.216   9.856  0.3056 -0.5345 -0.3030
   23CHL1    H6 1638   1.675   0.302   9.919  0.3174 -0.5443 -0.2841
   23CHL1    C7 1639   1.712   0.231   9.703  0.0321 -0.6770  0.6462
   23CHL1   H7A 1640   1.627   0.286   9.658 -0.2401 -2.5542 -1.2935
   23CHL1   H7B 1641   1.805   0.282   9.669 -0.9087  1.2942  0.8872
   23CHL1    C8 1642   1.708   0.099   9.618  0.5201  0.0946 -0.5863
   23CHL1    H8 1643   1.606   0.057   9.608  0.5972 -0.4483  0.6875
   23CHL1   C14 1644   1.756   0.120   9.474 -0.3216 -0.2152  0.1215
   23CHL1   H14 1645   1.860   0.159   9.475 -0.4454  0.2870 -1.9752
   23CHL1   C15 1646   1.675   0.225   9.397  0.4103  0.0038 -0.4988
   23CHL1  H15A 1647   1.565   0.213   9.400  0.0568  2.1742 -2.2010
   23CHL1  H15B 1648   1.701   0.326   9.435 -0.9148 -0.0743  0.7079
   23CHL1   C16 1649   1.720   0.195   9.256  0.0505 -0.3947  0.8722
   23CHL1  H16A 1650   1.632   0.199   9.188  0.0446  1.5649  0.9575
   23CHL1  H16B 1651   1.792   0.265   9.210 -1.6312 -0.2597 -1.8158
   23CHL1   C17 1652   1.793   0.054   9.245  0.7111 -0.7307  0.2504
   23CHL1   H17 1653   1.901   0.076   9.262  0.0322  1.7119  1.9012
   23CHL1   C13 1654   1.755  -0.007   9.387 -0.5211 -0.7207  0.3537
   23CHL1   C18 1655   1.614  -0.062   9.384 -1.0432 -0.0084  0.0546
   23CHL1  H18A 1656   1.551   0.022   9.351  0.5861  2.0860  1.9498
   23CHL1  H18B 1657   1.619  -0.136   9.301 -1.2274 -0.9916  0.8993
   23CHL1  H18C 1658   1.574  -0.112   9.475 -1.7151  3.4190  1.7699
   23CHL1   C12 1659   1.849  -0.105   9.460  0.0121  0.6985  0.5790
   23CHL1  H12A 1660   1.837  -0.210   9.425 -0.6098  1.0104 -0.1916
   23CHL1  H12B 1661   1.953  -0.065   9.457 -0.5846  2.2743 -1.0197
   23CHL1   C11 1662   1.819  -0.130   9.609 -0.4816  0.0423 -0.2749
   23CHL1  H11A 1663   1.718  -0.177   9.611 -0.4238 -0.0670  0.5864
   23CHL1  H11B 1664   1.891  -0.200   9.658 -0.4615  0.9921  1.1107
   23CHL1    C9 1665   1.793  -0.007   9.689 -1.1029 -0.5393  0.3094
   23CHL1    H9 1666   1.891   0.045   9.679 -1.2494 -0.3016  0.0992
   23CHL1   C10 1667   1.762  -0.025   9.846 -0.9281  0.3160  0.7181
   23CHL1   C19 1668   1.640  -0.120   9.859  0.0119  0.4720 -0.2662
   23CHL1  H19A 1669   1.553  -0.079   9.804 -0.0537 -0.1702 -0.6509
   23CHL1  H19B 1670   1.651  -0.220   9.812  0.1614  1.4877 -2.5101
   23CHL1  H19C 1671   1.603  -0.144   9.961 -0.6536 -1.8017 -0.9831
   23CHL1    C1 1672   1.881  -0.093   9.904  0.3407 -0.0786 -0.3525
   23CHL1   H1A 1673   1.906  -0.191   9.858  0.0021  0.2078 -1.1639
   23CHL1   H1B 1674   1.973  -0.034   9.884  0.0466 -0.2459 -2.4379
   23CHL1    C2 1675   1.871  -0.104  10.056  0.7253 -0.4810 -0.0240
   23CHL1   H2A 1676   1.957  -0.151  10.109 -0.7055  1.2281  4.2754
   23CHL1   H2B 1677   1.782  -0.162  10.091 -0.4869  1.5312  0.3854
   23CHL1   C20 1678   1.769  -0.030   9.117 -0.0613  0.2747  0.1169
   23CHL1   H20 1679   1.661  -0.055   9.111  0.0127 -0.0133 -0.0346
   23CHL1   C21 1680   1.856  -0.166   9.126 -0.1085  0.8501 -0.2746
   23CHL1  H21A 1681   1.823  -0.230   9.041 -0.5385  0.1951  0.3710
   23CHL1  H21B 1682   1.822  -0.236   9.205 -2.5040 -0.8105 -2.6071
   23CHL1  H21C 1683   1.967  -0.155   9.123  0.1305 -0.9751  0.7777
   23CHL1   C22 1684   1.802   0.061   8.998  0.0106 -0.2848 -0.4663
   23CHL1  H22A 1685   1.737   0.152   9.005 -0.0550 -0.3766  0.1597
   23CHL1  H22B 1686   1.909   0.089   9.007 -0.3100  1.2505 -0.9976
   23CHL1   C23 1687   1.795   0.003   8.857  0.1813  0.2494  0.5893
   23CHL1  H23A 1688   1.867  -0.079   8.838 -0.9305 -0.5879 -0.1614
   23CHL1  H23B 1689   1.694  -0.044   8.852 -1.3056  2.6698  3.8934
   23CHL1   C24 1690   1.815   0.111   8.744 -0.2338 -0.4986 -0.0687
   23CHL1  H24A 1691   1.749   0.200   8.741  0.6905  0.2924  1.8985
   23CHL1  H24B 1692   1.904   0.171   8.771 -0.3735 -0.1115 -0.4502
   23CHL1   C25 1693   1.834   0.054   8.595 -0.3988 -0.0146  0.1993
   23CHL1   H25 1694   1.918  -0.018   8.607 -0.5226  0.0800  1.9998
   23CHL1   C26 1695   1.710  -0.014   8.544  0.4181  0.4045  0.1545
   23CHL1  H26A 1696   1.710  -0.118   8.583  1.3557 -0.0856 -1.1010
   23CHL1  H26B 1697   1.625   0.036   8.594 -0.1227 -0.7092  0.3693
   23CHL1  H26C 1698   1.703  -0.014   8.433 -0.3439  0.3980  0.2005
   23CHL1   C27 1699   1.880   0.165   8.505  0.5732  0.0261 -0.3959
   23CHL1  H27A 1700   1.933   0.244   8.562 -0.2518 -0.0653  0.5184
   23CHL1  H27B 1701   1.937   0.135   8.415 -0.9453 -0.6419 -1.1800
   23CHL1  H27C 1702   1.791   0.218   8.464 -0.5348  0.0998  1.9835
   24CHL1    C3 1703   1.718   1.053  10.092  0.1871 -0.2475 -0.2482
   24CHL1    H3 1704   1.628   1.000  10.053  0.3365 -1.3325  0.8203
   24CHL1    O3 1705   1.704   1.065  10.237  0.4259 -0.0477 -0.8140
   24CHL1   H3' 1706   1.767   1.133  10.259  0.2650  0.0406 -0.6213
   24CHL1    C4 1707   1.834   0.960  10.056 -0.1097 -0.2685  0.2753
   24CHL1   H4A 1708   1.926   0.985  10.113 -0.5560  2.2046  0.0539
   24CHL1   H4B 1709   1.801   0.860  10.091 -1.2522  0.1146  0.3464
   24CHL1    C5 1710   1.867   0.952   9.909  0.3338 -0.8282  0.0420
   24CHL1    C6 1711   1.875   0.835   9.846 -0.0055  0.5494  0.2972
   24CHL1    H6 1712   1.855   0.739   9.896  2.1095 -1.0866 -1.8293
   24CHL1    C7 1713   1.914   0.821   9.698  0.4987 -0.2825 -0.6108
   24CHL1   H7A 1714   1.989   0.741   9.683  2.4140  1.5241 -1.1907
   24CHL1   H7B 1715   1.831   0.783   9.635  2.0651 -3.0320 -1.1437
   24CHL1    C8 1716   1.968   0.951   9.641  0.1806 -0.1872 -0.3470
   24CHL1    H8 1717   2.070   0.954   9.684 -0.1761 -3.1909  0.9587
   24CHL1   C14 1718   1.985   0.942   9.495 -0.1063 -0.4208  0.2879
   24CHL1   H14 1719   1.882   0.926   9.456 -0.2305  0.0807  0.4149
   24CHL1   C15 1720   2.071   0.832   9.439 -0.3489 -0.3562 -0.2617
   24CHL1  H15A 1721   2.159   0.826   9.506  0.1269  0.2405 -0.8164
   24CHL1  H15B 1722   2.022   0.733   9.440 -0.4429 -0.3158  1.2414
   24CHL1   C16 1723   2.111   0.866   9.300  0.4781 -0.5926  0.7826
   24CHL1  H16A 1724   2.220   0.863   9.281 -0.0106 -0.0318 -2.7071
   24CHL1  H16B 1725   2.064   0.792   9.232 -2.6503 -1.3604  3.4713
   24CHL1   C17 1726   2.045   1.011   9.280 -1.3394 -0.4590 -0.1774
   24CHL1   H17 1727   1.942   0.994   9.242 -0.6080  0.1947 -2.6060
   24CHL1   C13 1728   2.027   1.068   9.425 -0.2246 -0.5643 -0.5402
   24CHL1   C18 1729   2.171   1.119   9.477  0.2308  0.2330 -0.0170
   24CHL1  H18A 1730   2.249   1.055   9.432  2.3662  2.7441 -0.1544
   24CHL1  H18B 1731   2.183   1.226   9.448  1.9757 -0.3314 -1.6054
   24CHL1  H18C 1732   2.168   1.111   9.588  0.4385  1.5514  0.0972
   24CHL1   C12 1733   1.916   1.177   9.453 -0.2594 -0.4065 -0.4847
   24CHL1  H12A 1734   1.944   1.274   9.406  1.5286 -0.6546 -0.0073
   24CHL1  H12B 1735   1.822   1.142   9.404 -1.6827  0.1630  1.7186
   24CHL1   C11 1736   1.901   1.198   9.607 -0.4252  0.7806 -0.1514
   24CHL1  H11A 1737   1.992   1.247   9.646 -1.6590  1.8672  1.4943
   24CHL1  H11B 1738   1.824   1.277   9.624 -1.3845  0.0281 -0.8289
   24CHL1    C9 1739   1.877   1.067   9.688  0.5328  0.3209  0.5380
   24CHL1    H9 1740   1.777   1.035   9.653  0.7487  0.0645  0.1465
   24CHL1   C10 1741   1.875   1.088   9.847 -0.3659 -0.0923  0.5730
   24CHL1   C19 1742   2.015   1.146   9.889  0.4474  0.0519 -0.2930
   24CHL1  H19A 1743   2.030   1.247   9.846 -1.6915  0.9535  0.9177
   24CHL1  H19B 1744   2.035   1.153   9.998 -0.6805  0.8855 -0.1274
   24CHL1  H19C 1745   2.098   1.086   9.846 -0.0882 -0.8583 -0.0738
   24CHL1    C1 1746   1.769   1.183   9.886  0.3340 -0.6220 -0.8324
   24CHL1   H1A 1747   1.788   1.289   9.858  0.1272 -0.2627  0.3173
   24CHL1   H1B 1748   1.675   1.156   9.835 -1.8757  1.0798  2.0273
   24CHL1    C2 1749   1.745   1.186  10.041  0.1457 -0.0542 -0.3514
   24CHL1   H2A 1750   1.659   1.253  10.061 -0.3754 -0.6197 -0.7113
   24CHL1   H2B 1751   1.838   1.233  10.081  1.6882 -1.4901 -2.0490
   24CHL1   C20 1752   2.127   1.103   9.184  0.0903 -0.6804  0.0917
   24CHL1   H20 1753   2.224   1.120   9.236  0.9590  0.6976 -1.8702
   24CHL1   C21 1754   2.072   1.238   9.144  0.2365  0.3878  0.6582
   24CHL1  H21A 1755   2.154   1.304   9.107 -0.5245  1.0298  0.0625
   24CHL1  H21B 1756   2.022   1.289   9.229 -1.7432 -0.7002  0.2195
   24CHL1  H21C 1757   1.991   1.217   9.070  0.6347  0.4824  0.1914
   24CHL1   C22 1758   2.157   1.026   9.051 -0.9975  0.7318  0.7187
   24CHL1  H22A 1759   2.185   0.922   9.076 -1.5314  0.1068 -1.0905
   24CHL1  H22B 1760   2.063   1.020   8.992 -0.4308 -0.3978 -0.0957
   24CHL1   C23 1761   2.270   1.090   8.959  0.5374  0.8680  0.5767
   24CHL1  H23A 1762   2.250   1.195   8.928 -0.5989 -0.0129 -1.9184
   24CHL1  H23B 1763   2.366   1.105   9.013  2.1957 -1.6690 -1.4354
   24CHL1   C24 1764   2.283   1.009   8.828 -0.2271  0.1457  0.3994
   24CHL1  H24A 1765   2.328   0.908   8.838 -0.9842 -0.1610  0.7677
   24CHL1  H24B 1766   2.178   0.997   8.793  0.1966 -1.0877 -0.5321
   24CHL1   C25 1767   2.366   1.088   8.728  0.0181 -0.9409  0.1210
   24CHL1   H25 1768   2.328   1.193   8.734  0.7546 -0.4829 -2.1994
   24CHL1   C26 1769   2.513   1.092   8.772  0.3022  0.5313  0.0254
   24CHL1  H26A 1770   2.522   1.161   8.859 -2.0167  0.5167  0.3387
   24CHL1  H26B 1771   2.551   0.989   8.789 -2.4425 -0.9504 -2.0609
   24CHL1  H26C 1772   2.576   1.131   8.689  0.8007 -1.8973 -0.8043
   24CHL1   C27 1773   2.358   1.042   8.589 -0.0451 -0.4670  0.5141
   24CHL1  H27A 1774   2.439   0.975   8.555 -1.6404 -2.3944  0.3555
   24CHL1  H27B 1775   2.260   0.993   8.576 -2.1091  2.6411  2.8201
   24CHL1  H27C 1776   2.362   1.139   8.535 -2.7575 -0.5218  0.0825
   25CHL1    C3 1777   3.228   3.074  10.301  0.1678 -0.0017 -0.1577
   25CHL1    H3 1778   3.219   3.183  10.281 -0.0694 -0.1875 -1.1253
   25CHL1    O3 1779   3.215   3.051  10.444  0.0050  0.2837 -0.0228
   25CHL1   H3' 1780   3.205   2.957  10.460 -1.8534  0.5404  0.5474
   25CHL1    C4 1781   3.119   3.011  10.211  0.0523  0.1495 -0.4109
   25CHL1   H4A 1782   3.102   2.908  10.251 -0.0470  0.5907  0.7121
   25CHL1   H4B 1783   3.019   3.057  10.231 -0.3793 -0.6380 -0.6951
   25CHL1    C5 1784   3.161   3.022  10.064  0.1606  0.4998  0.4569
   25CHL1    C6 1785   3.067   3.086   9.989 -0.2746 -0.0521 -0.6129
   25CHL1    H6 1786   2.970   3.112  10.033  0.0643 -1.0660  0.8105
   25CHL1    C7 1787   3.094   3.113   9.841 -0.6600 -0.3080 -0.3798
   25CHL1   H7A 1788   2.991   3.099   9.801 -1.1335  1.7540 -0.0004
   25CHL1   H7B 1789   3.122   3.216   9.811  1.2150 -0.8073 -0.4233
   25CHL1    C8 1790   3.205   3.022   9.778 -0.5489  0.1914 -0.3240
   25CHL1    H8 1791   3.179   2.914   9.773  2.7873 -0.7627  0.4195
   25CHL1   C14 1792   3.240   3.063   9.633  0.0402 -0.6966  0.1937
   25CHL1   H14 1793   3.271   3.169   9.651 -1.3768 -0.1190 -0.5825
   25CHL1   C15 1794   3.126   3.081   9.530 -0.0882  0.0991 -0.5310
   25CHL1  H15A 1795   3.071   2.985   9.529  2.7389 -1.6820  1.4428
   25CHL1  H15B 1796   3.062   3.168   9.554 -0.5837 -0.1735 -0.8410
   25CHL1   C16 1797   3.201   3.090   9.394  0.1348  0.5551 -0.5396
   25CHL1  H16A 1798   3.167   3.010   9.324 -0.8171  0.1869  0.3102
   25CHL1  H16B 1799   3.190   3.190   9.347 -0.0464 -0.0412 -1.8140
   25CHL1   C17 1800   3.355   3.067   9.421 -0.4138 -0.1315 -0.0854
   25CHL1   H17 1801   3.400   3.168   9.420  0.1100 -0.3648 -0.2817
   25CHL1   C13 1802   3.355   2.996   9.562 -0.5282 -0.4203  0.8366
   25CHL1   C18 1803   3.321   2.846   9.553  0.4705  0.5212  0.6718
   25CHL1  H18A 1804   3.237   2.834   9.482  3.2079  1.5628 -3.0293
   25CHL1  H18B 1805   3.407   2.796   9.504  0.8540  2.1560 -0.3969
   25CHL1  H18C 1806   3.310   2.805   9.656  1.2345 -0.4846  0.3714
   25CHL1   C12 1807   3.478   3.025   9.653 -0.3414  0.4222  0.5860
   25CHL1  H12A 1808   3.569   2.980   9.607 -0.3576 -2.9951  3.4103
   25CHL1  H12B 1809   3.492   3.134   9.669 -0.0769  0.2492  1.6072
   25CHL1   C11 1810   3.455   2.971   9.794 -0.2305  0.0887  0.0156
   25CHL1  H11A 1811   3.444   2.861   9.788 -1.2915  0.1646  0.4644
   25CHL1  H11B 1812   3.543   3.003   9.854  1.0850 -2.7407 -0.2312
   25CHL1    C9 1813   3.334   3.028   9.873  0.4502  0.0295 -0.0974
   25CHL1    H9 1814   3.358   3.136   9.888 -0.4000  0.4392 -1.5336
   25CHL1   C10 1815   3.304   2.982  10.017 -0.2312 -0.2756  0.6488
   25CHL1   C19 1816   3.318   2.829  10.027  0.2936 -0.4236  0.2203
   25CHL1  H19A 1817   3.264   2.779   9.943  1.7052  1.4103 -1.8937
   25CHL1  H19B 1818   3.421   2.795  10.007  0.5130  0.8294 -0.9272
   25CHL1  H19C 1819   3.281   2.791  10.124 -1.6017  2.1096  0.6025
   25CHL1    C1 1820   3.409   3.040  10.119  0.7060  0.1324  0.6276
   25CHL1   H1A 1821   3.508   2.997  10.090 -0.2394 -0.6445 -1.6207
   25CHL1   H1B 1822   3.412   3.148  10.096 -1.3624  0.0478 -0.1713
   25CHL1    C2 1823   3.369   3.026  10.268 -0.5054  0.0519  0.1122
   25CHL1   H2A 1824   3.449   3.078  10.324  1.9431 -3.4467  0.1921
   25CHL1   H2B 1825   3.388   2.917  10.285  1.7748  0.3436 -0.3584
   25CHL1   C20 1826   3.426   3.005   9.300 -0.9600 -0.3195  0.3460
   25CHL1   H20 1827   3.366   2.913   9.279 -2.6901  0.0651  3.0325
   25CHL1   C21 1828   3.573   2.977   9.337  0.0847  0.4977 -0.1123
   25CHL1  H21A 1829   3.617   3.071   9.375  0.5311 -0.0091  0.6540
   25CHL1  H21B 1830   3.632   2.938   9.252 -0.2811 -1.5751  0.5318
   25CHL1  H21C 1831   3.581   2.902   9.419  0.4964 -2.1565 -2.4182
   25CHL1   C22 1832   3.417   3.099   9.170  0.1280  0.4805  0.3294
   25CHL1  H22A 1833   3.312   3.118   9.138  0.2021  0.2973 -0.0209
   25CHL1  H22B 1834   3.467   3.195   9.196 -0.4520  1.3560 -1.6327
   25CHL1   C23 1835   3.506   3.056   9.048  0.0144 -0.1671  0.0115
   25CHL1  H23A 1836   3.610   3.025   9.072 -0.3096 -1.6888 -0.5021
   25CHL1  H23B 1837   3.452   2.964   9.019 -0.6943 -0.2693  1.5499
   25CHL1   C24 1838   3.499   3.153   8.925 -0.9066 -0.8237 -0.5893
   25CHL1  H24A 1839   3.398   3.197   8.916  1.0128  4.1517 -0.9233
   25CHL1  H24B 1840   3.567   3.238   8.944  1.4013 -2.5660 -0.5782
   25CHL1   C25 1841   3.548   3.100   8.795  0.0447  0.6242 -0.0963
   25CHL1   H25 1842   3.551   3.193   8.736 -0.3925  0.5269 -0.2707
   25CHL1   C26 1843   3.683   3.030   8.800  0.3184 -0.4786 -0.6823
   25CHL1  H26A 1844   3.751   3.112   8.832 -1.1481  0.1740  0.9597
   25CHL1  H26B 1845   3.688   2.945   8.872  0.7124 -0.1552 -0.3158
   25CHL1  H26C 1846   3.714   2.990   8.702  0.8246 -0.3168 -0.5916
   25CHL1   C27 1847   3.446   3.001   8.732  0.3868 -0.3535  0.2800
   25CHL1  H27A 1848   3.435   2.906   8.788  1.3594  0.1224  1.3293
   25CHL1  H27B 1849   3.345   3.048   8.738  0.4220  0.1539 -2.2577
   25CHL1  H27C 1850   3.478   2.995   8.626 -0.8342  1.6966 -0.2631
   26CHL1    C3 1851   4.381   5.694  10.189 -0.2321  0.4620 -0.6477
   26CHL1    H3 1852   4.446   5.612  10.152  1.2742  1.4046 -0.1665
   26CHL1    O3 1853   4.346   5.683  10.327  0.2429  0.5257 -0.2079
   26CHL1   H3' 1854   4.288   5.757  10.346  2.0250  2.2190 -1.0298
   26CHL1    C4 1855   4.434   5.836  10.177 -0.5589  0.6407  0.1565
   26CHL1   H4A 1856   4.372   5.914  10.225  0.4352  1.4570  0.1502
   26CHL1   H4B 1857   4.532   5.828  10.229 -1.4466 -1.8333  1.6103
   26CHL1    C5 1858   4.458   5.869  10.031  0.2491  0.7187 -0.9682
   26CHL1    C6 1859   4.584   5.911   9.992 -0.7823  0.2597  0.3397
   26CHL1    H6 1860   4.664   5.940  10.061  1.2414 -2.4076 -0.7419
   26CHL1    C7 1861   4.604   5.963   9.851  0.8650  0.8503 -0.4235
   26CHL1   H7A 1862   4.670   6.052   9.846  1.8877  0.0843 -0.9336
   26CHL1   H7B 1863   4.673   5.883   9.817 -0.5622 -0.9484  0.6896
   26CHL1    C8 1864   4.483   5.966   9.759  0.4655  0.4441 -0.1655
   26CHL1    H8 1865   4.439   6.067   9.776  0.0010 -0.1215  2.6116
   26CHL1   C14 1866   4.534   5.954   9.620 -0.6173  0.0635  0.0380
   26CHL1   H14 1867   4.572   5.849   9.626 -1.6537 -0.2577  2.0961
   26CHL1   C15 1868   4.648   6.043   9.572  1.0286  0.8032  0.2148
   26CHL1  H15A 1869   4.642   6.142   9.622  0.6558  1.5058 -1.1642
   26CHL1  H15B 1870   4.741   5.989   9.597 -0.9421 -2.8550  0.3446
   26CHL1   C16 1871   4.636   6.056   9.425  0.3850 -0.1047 -0.2108
   26CHL1  H16A 1872   4.615   6.159   9.390 -2.0360 -0.0970  1.0791
   26CHL1  H16B 1873   4.722   6.026   9.361 -2.3348 -2.0456 -3.3341
   26CHL1   C17 1874   4.519   5.953   9.384  0.1835 -0.0480  0.7125
   26CHL1   H17 1875   4.558   5.850   9.372 -0.5809 -0.2947  0.2301
   26CHL1   C13 1876   4.429   5.954   9.513 -0.3802  0.0668  0.1492
   26CHL1   C18 1877   4.347   6.090   9.511 -0.2511 -0.2917  0.0695
   26CHL1  H18A 1878   4.417   6.170   9.479 -1.8586  0.4182 -1.9337
   26CHL1  H18B 1879   4.263   6.088   9.438  0.3709  3.0283 -0.8976
   26CHL1  H18C 1880   4.297   6.102   9.610  1.0250  0.9450  0.6030
   26CHL1   C12 1881   4.332   5.838   9.544  0.3703  0.3171  0.1852
   26CHL1  H12A 1882   4.247   5.832   9.471  0.9234 -2.3134 -0.3732
   26CHL1  H12B 1883   4.385   5.740   9.543  0.1864  0.1621  2.1909
   26CHL1   C11 1884   4.271   5.852   9.685  0.3568 -0.4956 -0.5359
   26CHL1  H11A 1885   4.214   5.947   9.700 -1.0291 -1.2770 -0.6589
   26CHL1  H11B 1886   4.199   5.770   9.707 -1.2893  1.0841  0.2154
   26CHL1    C9 1887   4.380   5.855   9.797 -0.6132 -0.6537  1.0916
   26CHL1    H9 1888   4.442   5.764   9.787 -0.4309 -0.7115  2.5676
   26CHL1   C10 1889   4.332   5.854   9.938 -0.6460 -0.2097  0.1748
   26CHL1   C19 1890   4.231   5.967   9.968 -0.4557  0.1856 -0.5143
   26CHL1  H19A 1891   4.290   6.059   9.949  0.3332 -0.2740 -0.3392
   26CHL1  H19B 1892   4.146   5.969   9.896 -0.8528 -3.2476 -0.3427
   26CHL1  H19C 1893   4.191   5.961  10.072  0.6076 -1.5824 -0.1711
   26CHL1    C1 1894   4.272   5.713   9.964  0.1916 -0.3189  0.1885
   26CHL1   H1A 1895   4.179   5.694   9.906 -0.5374 -0.2714  1.3139
   26CHL1   H1B 1896   4.348   5.640   9.930 -0.1064 -0.6701  0.2614
   26CHL1    C2 1897   4.251   5.671  10.105 -0.6545  0.3330 -0.5788
   26CHL1   H2A 1898   4.217   5.566  10.116  0.1795 -0.0035 -1.1433
   26CHL1   H2B 1899   4.165   5.733  10.138 -2.1896 -2.1684  0.3697
   26CHL1   C20 1900   4.448   5.991   9.251 -0.0927  0.0800  0.1436
   26CHL1   H20 1901   4.408   6.095   9.256  0.6895  0.4189 -0.3927
   26CHL1   C21 1902   4.333   5.892   9.219  1.0022 -0.0931  0.8644
   26CHL1  H21A 1903   4.366   5.789   9.243  1.0131 -0.4652 -0.6954
   26CHL1  H21B 1904   4.306   5.891   9.112  0.6668  1.5441  0.9027
   26CHL1  H21C 1905   4.234   5.917   9.264  0.5372  3.3375 -1.6540
   26CHL1   C22 1906   4.548   5.982   9.138  0.2756 -0.2164  0.8809
   26CHL1  H22A 1907   4.644   6.032   9.159  2.2001 -2.6627 -1.4105
   26CHL1  H22B 1908   4.571   5.877   9.110 -0.8347  0.3501 -2.7447
   26CHL1   C23 1909   4.500   6.067   9.018 -0.0320 -0.1853  0.0689
   26CHL1  H23A 1910   4.392   6.050   8.996  0.3510 -1.2130 -1.1827
   26CHL1  H23B 1911   4.507   6.171   9.057  0.4600 -0.6080  1.1435
   26CHL1   C24 1912   4.580   6.057   8.888  0.1878  0.4408 -0.3671
   26CHL1  H24A 1913   4.528   6.134   8.828 -0.4868 -0.2308 -0.6511
   26CHL1  H24B 1914   4.685   6.086   8.912  0.6027 -0.5616 -0.8986
   26CHL1   C25 1915   4.588   5.916   8.816 -0.5156 -0.8267 -0.3192
   26CHL1   H25 1916   4.651   5.845   8.874 -0.9447 -1.4064 -0.5426
   26CHL1   C26 1917   4.449   5.850   8.818  0.0796  0.8252  0.6871
   26CHL1  H26A 1918   4.422   5.813   8.919 -2.0690 -0.7852 -0.3995
   26CHL1  H26B 1919   4.363   5.915   8.791  0.7629  1.4467 -0.0668
   26CHL1  H26C 1920   4.436   5.766   8.747  3.5286 -0.8163  1.7951
   26CHL1   C27 1921   4.630   5.923   8.667 -0.1476 -0.0729 -0.0679
   26CHL1  H27A 1922   4.556   5.979   8.606  2.1022  0.6557 -2.3061
   26CHL1  H27B 1923   4.727   5.974   8.651  0.2924 -0.1294  2.0683
   26CHL1  H27C 1924   4.642   5.815   8.641  0.2357 -0.2688  0.8766
   27CHL1    C3 1925   3.792   2.814  10.167 -0.6839 -0.1357  0.7666
   27CHL1    H3 1926   3.738   2.904  10.130  0.8005  0.4500 -0.0409
   27CHL1    O3 1927   3.789   2.797  10.306  0.4951 -0.3634  0.1126
   27CHL1   H3' 1928   3.812   2.705  10.322 -2.0812 -0.7109  2.5924
   27CHL1    C4 1929   3.738   2.686  10.093 -0.4975  0.0479  0.3131
   27CHL1   H4A 1930   3.799   2.602  10.131  0.5219  1.6173  2.3531
   27CHL1   H4B 1931   3.631   2.685  10.124 -0.7217  3.7189  0.0937
   27CHL1    C5 1932   3.748   2.687   9.942  0.1825  0.2685  1.1668
   27CHL1    C6 1933   3.648   2.665   9.855 -0.1395 -0.1266 -0.1267
   27CHL1    H6 1934   3.550   2.640   9.897 -0.9143  0.9357 -1.1931
   27CHL1    C7 1935   3.656   2.650   9.703  0.1993  0.4651 -0.3980
   27CHL1   H7A 1936   3.604   2.556   9.674  0.0189  0.5826 -0.4579
   27CHL1   H7B 1937   3.598   2.732   9.655  1.5131  1.4294 -0.4077
   27CHL1    C8 1938   3.806   2.658   9.647  0.2413  0.1307 -1.4280
   27CHL1    H8 1939   3.853   2.558   9.658  2.1144  0.7981 -2.7220
   27CHL1   C14 1940   3.810   2.706   9.505  0.0938 -0.4781 -0.6173
   27CHL1   H14 1941   3.770   2.810   9.512 -0.3123 -0.6767  0.1166
   27CHL1   C15 1942   3.714   2.634   9.400  0.4946 -0.2398 -0.6757
   27CHL1  H15A 1943   3.712   2.526   9.423 -0.3060 -0.1825 -0.4559
   27CHL1  H15B 1944   3.616   2.686   9.404  0.1579 -0.9091 -0.1720
   27CHL1   C16 1945   3.780   2.660   9.272  0.3217 -0.0761 -0.0812
   27CHL1  H16A 1946   3.811   2.567   9.219  0.9289 -0.7288  1.3589
   27CHL1  H16B 1947   3.707   2.706   9.202 -1.6064 -1.4195  0.9409
   27CHL1   C17 1948   3.910   2.751   9.302 -0.4033 -0.2283 -0.0251
   27CHL1   H17 1949   3.875   2.857   9.311 -0.6712 -0.3954  0.9950
   27CHL1   C13 1950   3.946   2.713   9.442 -0.3857 -1.2542  0.3804
   27CHL1   C18 1951   4.007   2.569   9.449  1.4842  0.0767 -0.0291
   27CHL1  H18A 1952   3.932   2.493   9.421 -0.5519  1.8304  0.3799
   27CHL1  H18B 1953   4.088   2.568   9.372  0.7914  2.2475 -0.8603
   27CHL1  H18C 1954   4.057   2.534   9.542  0.9582 -1.7939 -0.4255
   27CHL1   C12 1955   4.025   2.821   9.518 -0.0557 -0.5883  0.6574
   27CHL1  H12A 1956   4.130   2.824   9.481 -1.3250  0.4449 -3.3566
   27CHL1  H12B 1957   3.981   2.922   9.504  1.0663  0.3042  3.0236
   27CHL1   C11 1958   4.032   2.778   9.665  0.2618 -0.3291  0.1017
   27CHL1  H11A 1959   4.102   2.692   9.666 -0.0362 -0.5735  0.1863
   27CHL1  H11B 1960   4.092   2.863   9.706  2.1352 -0.4084 -2.2357
   27CHL1    C9 1961   3.894   2.755   9.734  0.0449 -0.2592 -0.4695
   27CHL1    H9 1962   3.840   2.852   9.723 -0.7757 -0.3955  1.7118
   27CHL1   C10 1963   3.892   2.722   9.885  0.3185 -0.5958  0.1719
   27CHL1   C19 1964   3.989   2.599   9.915 -0.0848 -0.6243 -0.1883
   27CHL1  H19A 1965   3.982   2.576  10.024  0.9203  1.1772  0.3044
   27CHL1  H19B 1966   3.954   2.511   9.857  1.7108 -0.1911 -2.0584
   27CHL1  H19C 1967   4.096   2.619   9.890  0.1474  0.3673  1.4162
   27CHL1    C1 1968   3.951   2.846   9.960 -0.4273 -0.3014  0.3718
   27CHL1   H1A 1969   4.059   2.838   9.933  0.0242 -2.2026  2.3832
   27CHL1   H1B 1970   3.904   2.934   9.913 -0.2725 -1.6062 -2.4405
   27CHL1    C2 1971   3.937   2.825  10.113  0.2236 -1.4287 -0.1484
   27CHL1   H2A 1972   3.982   2.914  10.161  0.6296 -2.0699  0.7042
   27CHL1   H2B 1973   3.999   2.741  10.153  2.0309 -0.2905 -0.4559
   27CHL1   C20 1974   4.012   2.742   9.184 -0.1469 -1.0336  0.5347
   27CHL1   H20 1975   4.067   2.645   9.179 -0.6132 -1.3131  0.7482
   27CHL1   C21 1976   4.132   2.842   9.207  0.3311 -0.2893  0.9614
   27CHL1  H21A 1977   4.080   2.937   9.232 -0.1303  0.0129 -0.9784
   27CHL1  H21B 1978   4.198   2.839   9.117  0.4041 -1.2632  1.0404
   27CHL1  H21C 1979   4.187   2.817   9.300  2.9242 -0.6581 -0.5774
   27CHL1   C22 1980   3.939   2.783   9.056 -0.2129  0.4536  0.0589
   27CHL1  H22A 1981   3.844   2.725   9.050 -0.3165  0.0293  3.4550
   27CHL1  H22B 1982   3.891   2.882   9.071 -0.3394  0.4099 -0.0539
   27CHL1   C23 1983   4.020   2.777   8.921 -0.0516 -0.1863 -0.1683
   27CHL1  H23A 1984   4.104   2.847   8.905 -1.4255  1.3403 -1.0180
   27CHL1  H23B 1985   4.071   2.679   8.909 -1.0120 -0.7709  0.3485
   27CHL1   C24 1986   3.925   2.805   8.794  0.2220  1.1383 -0.5405
   27CHL1  H24A 1987   3.826   2.756   8.811  1.7539 -1.5439  1.6807
   27CHL1  H24B 1988   3.906   2.913   8.777  1.4955  1.6124  0.8651
   27CHL1   C25 1989   3.980   2.743   8.665  0.5735 -0.7382 -0.3978
   27CHL1   H25 1990   3.975   2.633   8.680 -0.4729 -0.7740 -0.9032
   27CHL1   C26 1991   3.898   2.789   8.546 -0.1060 -0.1523 -0.5475
   27CHL1  H26A 1992   3.796   2.822   8.574 -0.1318  1.5473 -2.4001
   27CHL1  H26B 1993   3.947   2.880   8.505 -0.8794  1.6798  2.3059
   27CHL1  H26C 1994   3.906   2.720   8.460  0.2636 -0.9092  0.0782
   27CHL1   C27 1995   4.126   2.774   8.645 -0.2646 -0.0829 -0.8305
   27CHL1  H27A 1996   4.163   2.732   8.550 -0.1129 -0.6656 -0.5200
   27CHL1  H27B 1997   4.141   2.883   8.632  1.6962  0.0943  1.9431
   27CHL1  H27C 1998   4.197   2.734   8.721  1.4402  1.6255 -1.4688
   28CHL1    C3 1999   2.399   1.017  10.043  0.0670  0.5555 -0.1259
   28CHL1    H3 2000   2.294   0.983  10.028  0.1360 -0.2090  1.0477
   28CHL1    O3 2001   2.416   1.054  10.179  0.1099 -0.9638 -0.1581
   28CHL1   H3' 2002   2.497   1.104  10.171  0.0092 -0.6194  0.8211
   28CHL1    C4 2003   2.494   0.906  10.017  0.3435 -0.5817  0.2299
   28CHL1   H4A 2004   2.590   0.945  10.058 -0.4748  1.1385  0.5794
   28CHL1   H4B 2005   2.465   0.821  10.083 -1.3534  0.0976  0.3976
   28CHL1    C5 2006   2.500   0.873   9.872  0.2983 -0.2865  0.3911
   28CHL1    C6 2007   2.474   0.749   9.831 -0.5689  1.1648  0.0700
   28CHL1    H6 2008   2.443   0.668   9.898 -1.8453  0.1288 -1.6950
   28CHL1    C7 2009   2.483   0.701   9.688  0.4408 -0.0132 -0.4995
   28CHL1   H7A 2010   2.521   0.596   9.682  0.7218  0.0176  0.5480
   28CHL1   H7B 2011   2.384   0.709   9.640  1.1104  3.0063 -1.5765
   28CHL1    C8 2012   2.569   0.804   9.606  0.4011 -0.1674  0.3821
   28CHL1    H8 2013   2.671   0.795   9.649 -0.2157  2.7710  2.7987
   28CHL1   C14 2014   2.552   0.771   9.457 -0.2393  0.1490  0.3737
   28CHL1   H14 2015   2.444   0.791   9.438 -0.4365 -1.5747 -0.5569
   28CHL1   C15 2016   2.586   0.629   9.413  0.5983  0.0595 -0.0872
   28CHL1  H15A 2017   2.685   0.590   9.446  0.9278  0.4271 -0.6067
   28CHL1  H15B 2018   2.502   0.560   9.433  1.1386 -0.2942  1.0441
   28CHL1   C16 2019   2.607   0.649   9.262 -0.2389  0.7477 -0.2558
   28CHL1  H16A 2020   2.705   0.611   9.227  0.0688  0.3526  0.9712
   28CHL1  H16B 2021   2.527   0.585   9.218 -0.6245 -0.5079  2.0809
   28CHL1   C17 2022   2.589   0.800   9.222 -0.2585  0.6714 -0.3734
   28CHL1   H17 2023   2.485   0.831   9.197 -0.3002 -0.2208 -1.3577
   28CHL1   C13 2024   2.625   0.864   9.358 -0.3101  0.2382 -0.3377
   28CHL1   C18 2025   2.779   0.861   9.382 -0.3364 -0.0853 -0.4826
   28CHL1  H18A 2026   2.812   0.878   9.487  0.6000  1.0667 -0.9524
   28CHL1  H18B 2027   2.816   0.761   9.350 -0.1741 -0.1979  0.0475
   28CHL1  H18C 2028   2.817   0.935   9.309  0.5411  0.2505  0.3012
   28CHL1   C12 2029   2.575   1.005   9.375 -0.0264  0.7607 -0.5091
   28CHL1  H12A 2030   2.630   1.077   9.311  0.4751  0.7694 -0.0751
   28CHL1  H12B 2031   2.473   1.014   9.333  1.2506  1.6555 -3.6444
   28CHL1   C11 2032   2.584   1.051   9.521 -0.1106 -0.3603  0.2188
   28CHL1  H11A 2033   2.692   1.060   9.545 -0.4201  3.1575  0.8958
   28CHL1  H11B 2034   2.542   1.154   9.531  3.7945  1.7763 -2.3351
   28CHL1    C9 2035   2.528   0.953   9.622 -0.3468 -0.0212 -0.6425
   28CHL1    H9 2036   2.418   0.947   9.606 -0.4052 -3.6107  0.2579
   28CHL1   C10 2037   2.533   0.987   9.773  0.4127 -0.1308 -0.0537
   28CHL1   C19 2038   2.682   1.022   9.801  0.6002 -0.4009  0.4348
   28CHL1  H19A 2039   2.758   0.944   9.784  3.4139  2.2198  0.0234
   28CHL1  H19B 2040   2.723   1.106   9.740  2.5273 -0.9318  0.9155
   28CHL1  H19C 2041   2.686   1.038   9.911 -3.2601  0.2256  0.6258
   28CHL1    C1 2042   2.444   1.112   9.804 -0.8073 -0.4174 -0.0181
   28CHL1   H1A 2043   2.485   1.201   9.752  1.3613  0.9328  3.6808
   28CHL1   H1B 2044   2.340   1.092   9.770 -1.1118 -1.0296  1.2190
   28CHL1    C2 2045   2.435   1.140   9.954  0.1106  0.5501 -0.0086
   28CHL1   H2A 2046   2.347   1.206   9.973 -1.8040 -2.4803  2.7273
   28CHL1   H2B 2047   2.524   1.192   9.993  0.9073 -0.5511 -0.3174
   28CHL1   C20 2048   2.676   0.829   9.098  0.4153  0.7566  0.1827
   28CHL1   H20 2049   2.782   0.798   9.104  0.3249  0.5708  0.8524
   28CHL1   C21 2050   2.682   0.985   9.074  0.9311 -0.1539 -0.4369
   28CHL1  H21A 2051   2.739   1.004   8.981 -0.8842 -3.1995 -2.3437
   28CHL1  H21B 2052   2.731   1.046   9.153 -0.2693 -1.4659  1.4192
   28CHL1  H21C 2053   2.577   1.017   9.057  1.2298  1.2502  0.2273
   28CHL1   C22 2054   2.608   0.752   8.979  0.1904 -0.0257  0.1865
   28CHL1  H22A 2055   2.598   0.643   8.997  1.6588 -0.2484 -0.2106
   28CHL1  H22B 2056   2.508   0.795   8.955  0.6992  0.6500 -0.7982
   28CHL1   C23 2057   2.691   0.771   8.850  0.5672  0.1767  0.7243
   28CHL1  H23A 2058   2.730   0.872   8.827  2.6626 -0.4336  1.3889
   28CHL1  H23B 2059   2.779   0.708   8.874  2.4096  3.0534  1.9798
   28CHL1   C24 2060   2.612   0.714   8.727 -0.5058 -0.4121  0.4856
   28CHL1  H24A 2061   2.561   0.617   8.743  1.0747 -1.2322  0.8310
   28CHL1  H24B 2062   2.528   0.783   8.707 -0.8765 -0.4330  1.8608
   28CHL1   C25 2063   2.687   0.710   8.594  0.1266 -0.1321 -0.1124
   28CHL1   H25 2064   2.732   0.809   8.573  0.7312 -0.0766  1.3241
   28CHL1   C26 2065   2.805   0.616   8.591 -0.3972 -0.3810  0.0836
   28CHL1  H26A 2066   2.769   0.515   8.563 -1.0398 -0.0500 -0.3052
   28CHL1  H26B 2067   2.875   0.637   8.508  1.5473 -3.7144  0.7061
   28CHL1  H26C 2068   2.857   0.620   8.689 -2.0995 -0.6019  1.0284
   28CHL1   C27 2069   2.600   0.693   8.471 -0.0368  0.7537 -0.5728
   28CHL1  H27A 2070   2.661   0.708   8.379 -0.9537  0.2817 -1.2647
   28CHL1  H27B 2071   2.551   0.593   8.474 -0.1797  0.8444  0.5085
   28CHL1  H27C 2072   2.516   0.765   8.475 -0.9570 -0.3333 -0.0346
   29CHL1    C3 2073   5.066   4.836   6.635 -0.0985  0.4771  0.8851
   29CHL1    H3 2074   5.175   4.859   6.625 -0.2067  0.2424 -1.4405
   29CHL1    O3 2075   5.020   4.801   6.502 -0.3126  0.0191  0.5744
   29CHL1   H3' 2076   5.035   4.878   6.448 -1.9894 -1.0208 -1.5233
   29CHL1    C4 2077   5.041   4.713   6.729 -0.0524 -0.0665  1.5267
   29CHL1   H4A 2078   4.934   4.688   6.712  0.3890 -2.6281  2.1841
   29CHL1   H4B 2079   5.092   4.627   6.681  0.0237  1.1847 -0.8059
   29CHL1    C5 2080   5.075   4.749   6.874 -0.3820 -0.0542 -0.3197
   29CHL1    C6 2081   5.179   4.688   6.943 -0.0662  0.1342  0.2028
   29CHL1    H6 2082   5.229   4.605   6.891  2.7053  1.0319  1.2495
   29CHL1    C7 2083   5.210   4.726   7.086 -0.6500  0.4612 -0.2462
   29CHL1   H7A 2084   5.239   4.639   7.150  0.8814  0.9600 -0.2281
   29CHL1   H7B 2085   5.301   4.790   7.093  1.9957 -2.8899 -1.2299
   29CHL1    C8 2086   5.095   4.802   7.156  0.4626 -0.1040  0.6635
   29CHL1    H8 2087   5.007   4.733   7.163  0.6629 -0.3575  0.7068
   29CHL1   C14 2088   5.151   4.855   7.290  0.4704 -0.1578 -0.1013
   29CHL1   H14 2089   5.235   4.921   7.257  0.4425 -0.7083 -1.3458
   29CHL1   C15 2090   5.229   4.761   7.386 -0.2097  0.0464 -0.9645
   29CHL1  H15A 2091   5.171   4.667   7.378 -0.2704 -0.0043 -0.0424
   29CHL1  H15B 2092   5.333   4.753   7.349  0.3246  1.5603  0.1099
   29CHL1   C16 2093   5.207   4.818   7.530  0.2204  0.0686  0.3206
   29CHL1  H16A 2094   5.141   4.753   7.590 -0.4406  1.1508  0.7924
   29CHL1  H16B 2095   5.300   4.836   7.588  2.2695  1.2686 -3.0484
   29CHL1   C17 2096   5.140   4.960   7.502 -0.4447  0.5210  0.1023
   29CHL1   H17 2097   5.211   5.042   7.480  1.2348 -1.1575 -1.0198
   29CHL1   C13 2098   5.054   4.936   7.377  0.1046  0.0014  0.0766
   29CHL1   C18 2099   4.929   4.854   7.410 -0.8105  1.1612  0.0640
   29CHL1  H18A 2100   4.862   4.915   7.474 -0.7681  0.4097  0.8506
   29CHL1  H18B 2101   4.869   4.837   7.318 -0.5386 -0.8475  0.2135
   29CHL1  H18C 2102   4.955   4.761   7.465  0.2045  1.0066 -0.6551
   29CHL1   C12 2103   5.020   5.065   7.291 -0.2277  0.0169 -0.3276
   29CHL1  H12A 2104   4.931   5.122   7.326  0.3954  1.0666 -0.4094
   29CHL1  H12B 2105   5.106   5.136   7.288  0.4522 -0.8015 -0.4939
   29CHL1   C11 2106   4.964   5.024   7.154 -0.3928  0.3581  0.4580
   29CHL1  H11A 2107   4.862   4.982   7.164 -0.3237  0.2688  0.7979
   29CHL1  H11B 2108   4.964   5.115   7.089  2.0801 -0.0218 -0.1626
   29CHL1    C9 2109   5.050   4.916   7.071  0.1056  0.9115  0.2105
   29CHL1    H9 2110   5.145   4.972   7.059  1.2201 -0.5853  1.4933
   29CHL1   C10 2111   5.001   4.873   6.925  0.5003  1.0616 -0.1720
   29CHL1   C19 2112   4.856   4.819   6.940  0.5182 -0.9601  0.3868
   29CHL1  H19A 2113   4.854   4.739   7.016  1.7841  1.2143  2.8491
   29CHL1  H19B 2114   4.792   4.901   6.979 -1.9733 -2.6775  0.1408
   29CHL1  H19C 2115   4.808   4.780   6.847  0.2182 -0.8136  0.4804
   29CHL1    C1 2116   5.015   4.994   6.833  0.6897 -0.1767  0.4856
   29CHL1   H1A 2117   4.946   5.075   6.864  3.7534  3.6649 -1.7545
   29CHL1   H1B 2118   5.121   5.027   6.838  1.0511  0.0459 -4.0587
   29CHL1    C2 2119   4.989   4.954   6.687 -0.0876 -0.1768 -0.3294
   29CHL1   H2A 2120   5.000   5.033   6.609 -0.4106  0.1400 -0.0564
   29CHL1   H2B 2121   4.878   4.941   6.682 -0.2353  0.1705  1.4373
   29CHL1   C20 2122   5.076   5.003   7.632  0.2846  0.1871  0.0511
   29CHL1   H20 2123   4.990   4.935   7.654 -0.7077  0.9549 -1.3280
   29CHL1   C21 2124   5.010   5.142   7.628  0.2188 -0.6496 -0.0335
   29CHL1  H21A 2125   4.916   5.150   7.688 -0.2780  0.6210 -0.9183
   29CHL1  H21B 2126   4.969   5.161   7.526  0.1200  0.0118  0.1239
   29CHL1  H21C 2127   5.067   5.230   7.665 -0.2322 -0.1111 -0.5869
   29CHL1   C22 2128   5.167   4.995   7.755  0.1170 -0.3151  1.2871
   29CHL1  H22A 2129   5.203   4.891   7.771 -0.8075 -1.1449 -1.5635
   29CHL1  H22B 2130   5.261   5.053   7.742 -0.3585  0.1360 -0.2969
   29CHL1   C23 2131   5.097   5.037   7.884  0.1256 -0.2368 -0.0463
   29CHL1  H23A 2132   5.080   5.147   7.881 -1.9406 -0.4026  2.3640
   29CHL1  H23B 2133   5.001   4.982   7.892  0.4793 -0.6763  1.4967
   29CHL1   C24 2134   5.184   5.026   8.005 -0.3454 -0.4244 -0.9468
   29CHL1  H24A 2135   5.200   4.921   8.038  2.9413  0.3791  0.3690
   29CHL1  H24B 2136   5.290   5.053   7.985 -0.1760  1.7320  2.1487
   29CHL1   C25 2137   5.132   5.102   8.137  0.9115  0.2348  0.6766
   29CHL1   H25 2138   5.134   5.213   8.129  2.3627  0.3767  2.3091
   29CHL1   C26 2139   4.986   5.052   8.173 -0.0968 -0.1507  0.2164
   29CHL1  H26A 2140   4.913   5.094   8.100  0.6732 -1.0898 -1.1125
   29CHL1  H26B 2141   4.997   4.942   8.182  0.4903 -0.0652  0.5823
   29CHL1  H26C 2142   4.956   5.086   8.275 -1.5950 -2.3578  0.5998
   29CHL1   C27 2143   5.220   5.061   8.255  0.2103 -0.0807 -0.3338
   29CHL1  H27A 2144   5.217   4.950   8.262  1.4633 -0.1560 -0.7427
   29CHL1  H27B 2145   5.329   5.081   8.258  0.0251  0.8591  1.5725
   29CHL1  H27C 2146   5.175   5.109   8.344  0.3502 -0.8565  0.1693
   30CHL1    C3 2147   2.535   4.470   7.304 -0.6103  0.2228 -0.0098
   30CHL1    H3 2148   2.470   4.537   7.365  0.1075  0.4670  0.5004
   30CHL1    O3 2149   2.479   4.467   7.176  0.2045 -0.5610  0.5856
   30CHL1   H3' 2150   2.543   4.429   7.115 -0.2833  0.6234 -0.7017
   30CHL1    C4 2151   2.689   4.502   7.294  0.7843 -0.8624  0.2463
   30CHL1   H4A 2152   2.730   4.426   7.224 -0.8495 -2.5416  1.0458
   30CHL1   H4B 2153   2.701   4.605   7.255 -0.0889 -1.2897 -1.2206
   30CHL1    C5 2154   2.757   4.489   7.425 -0.8148  0.2410  0.2937
   30CHL1    C6 2155   2.840   4.586   7.470 -0.5046 -0.5127 -0.5391
   30CHL1    H6 2156   2.856   4.676   7.408  0.5503 -0.3441 -0.0437
   30CHL1    C7 2157   2.919   4.584   7.599  0.6537 -0.1737  0.9079
   30CHL1   H7A 2158   3.026   4.612   7.592  0.2288  1.3239 -0.4436
   30CHL1   H7B 2159   2.868   4.665   7.655 -0.1209 -1.3976  2.0172
   30CHL1    C8 2160   2.900   4.451   7.674 -0.3484 -0.7385  0.0697
   30CHL1    H8 2161   2.976   4.385   7.627 -0.0251 -0.2887 -0.0507
   30CHL1   C14 2162   2.944   4.481   7.817  0.4998 -0.3903 -0.3550
   30CHL1   H14 2163   2.869   4.555   7.854  1.0672 -0.8031  1.7890
   30CHL1   C15 2164   3.072   4.558   7.837 -0.5565  0.4200 -1.0932
   30CHL1  H15A 2165   3.155   4.516   7.777 -1.3635 -3.4371  0.2224
   30CHL1  H15B 2166   3.053   4.667   7.820 -1.9339  0.6122  1.2076
   30CHL1   C16 2167   3.111   4.530   7.984 -0.4195  0.6447 -0.3810
   30CHL1  H16A 2168   3.207   4.475   7.992 -0.9705 -0.5373 -1.5747
   30CHL1  H16B 2169   3.118   4.623   8.045  0.8287 -0.0040  0.5156
   30CHL1   C17 2170   2.999   4.437   8.034 -0.4451  0.5445  0.2232
   30CHL1   H17 2171   2.919   4.502   8.075 -0.5222  0.1703  0.6766
   30CHL1   C13 2172   2.943   4.360   7.916 -0.7690  0.0233  0.2199
   30CHL1   C18 2173   3.048   4.262   7.867  0.1882  0.1233  0.3387
   30CHL1  H18A 2174   3.132   4.313   7.816  3.1070 -2.0668  2.6539
   30CHL1  H18B 2175   3.099   4.198   7.941 -0.9321 -2.6401 -1.1324
   30CHL1  H18C 2176   2.996   4.195   7.794  0.3795 -1.0774  1.2728
   30CHL1   C12 2177   2.797   4.308   7.912 -1.1824  0.3067 -0.0647
   30CHL1  H12A 2178   2.802   4.214   7.971  0.1193 -1.4477 -2.7550
   30CHL1  H12B 2179   2.748   4.394   7.962 -1.5541  0.8890 -1.3784
   30CHL1   C11 2180   2.742   4.282   7.769 -0.3175 -0.4030  0.5802
   30CHL1  H11A 2181   2.801   4.195   7.733  1.4037  1.2757 -0.8574
   30CHL1  H11B 2182   2.632   4.272   7.763 -0.7918  3.6968 -1.1751
   30CHL1    C9 2183   2.761   4.400   7.666  0.8837  0.2159 -0.3019
   30CHL1    H9 2184   2.694   4.479   7.703 -0.4114 -0.4268 -1.1986
   30CHL1   C10 2185   2.722   4.367   7.519 -0.9282 -0.5620  0.0393
   30CHL1   C19 2186   2.811   4.254   7.465 -1.1437  0.7314 -0.4789
   30CHL1  H19A 2187   2.917   4.287   7.468 -1.1040  0.6031 -0.4685
   30CHL1  H19B 2188   2.797   4.168   7.534  0.8171 -0.7113 -1.7797
   30CHL1  H19C 2189   2.789   4.233   7.358  1.4016 -0.0941 -0.8964
   30CHL1    C1 2190   2.573   4.339   7.513 -0.3285 -0.5472 -1.0813
   30CHL1   H1A 2191   2.555   4.241   7.562 -1.8800  0.7414  1.1292
   30CHL1   H1B 2192   2.528   4.423   7.571  0.9926 -0.6412  0.1135
   30CHL1    C2 2193   2.521   4.332   7.371  0.1010 -0.0722  0.6393
   30CHL1   H2A 2194   2.413   4.304   7.376 -0.4916  1.1899 -2.6882
   30CHL1   H2B 2195   2.570   4.256   7.307  1.0905  0.0698  1.2009
   30CHL1   C20 2196   3.055   4.349   8.148  0.3724  0.2148 -0.6029
   30CHL1   H20 2197   3.142   4.291   8.111  0.4382  0.5572 -1.0021
   30CHL1   C21 2198   2.944   4.260   8.204  0.6450 -0.4338 -0.3087
   30CHL1  H21A 2199   2.977   4.213   8.299 -1.5433  0.7911  1.1554
   30CHL1  H21B 2200   2.911   4.181   8.134  1.1866  1.1360 -2.4499
   30CHL1  H21C 2201   2.853   4.320   8.227  0.6449 -0.3161 -0.6112
   30CHL1   C22 2202   3.120   4.422   8.273  0.0744 -0.0589 -0.2896
   30CHL1  H22A 2203   3.152   4.349   8.350 -1.4152 -0.9734 -0.5018
   30CHL1  H22B 2204   3.210   4.469   8.227 -0.8602  1.1636 -0.9396
   30CHL1   C23 2205   3.032   4.527   8.345 -0.3890  0.4749 -0.1755
   30CHL1  H23A 2206   3.014   4.609   8.272 -0.2798 -1.2118 -2.2015
   30CHL1  H23B 2207   2.930   4.488   8.366  0.5046 -1.7730  0.2509
   30CHL1   C24 2208   3.091   4.566   8.482  0.2046  0.8784 -0.4347
   30CHL1  H24A 2209   3.105   4.473   8.541 -0.5885  0.2911 -1.1588
   30CHL1  H24B 2210   3.196   4.601   8.470  0.7499 -0.3447  0.5360
   30CHL1   C25 2211   3.006   4.660   8.577 -0.1114 -0.1247 -0.4170
   30CHL1   H25 2212   2.900   4.654   8.544  0.5272 -0.1679 -2.6201
   30CHL1   C26 2213   3.017   4.617   8.722  0.5773 -0.1032  0.1301
   30CHL1  H26A 2214   3.116   4.649   8.762  0.6628  1.6228 -1.3177
   30CHL1  H26B 2215   2.928   4.653   8.776  0.4969  1.3990 -0.9497
   30CHL1  H26C 2216   3.014   4.506   8.722 -0.9715 -0.0845  0.2101
   30CHL1   C27 2217   3.059   4.800   8.562  0.2456 -0.4079 -0.6952
   30CHL1  H27A 2218   3.167   4.815   8.585 -0.2726  3.4794 -0.1656
   30CHL1  H27B 2219   3.045   4.834   8.457  1.6955 -1.3114 -1.2198
   30CHL1  H27C 2220   3.005   4.871   8.628 -0.6684 -2.0810  0.4367
   31CHL1    C3 2221   2.581   0.136   6.618  0.0534  0.4274  0.1149
   31CHL1    H3 2222   2.662   0.066   6.648  2.8732  2.2963 -2.4334
   31CHL1    O3 2223   2.569   0.156   6.477 -0.0473  0.2012 -0.1452
   31CHL1   H3' 2224   2.657   0.186   6.455  1.0549  0.0388  3.4015
   31CHL1    C4 2225   2.452   0.072   6.669 -0.4205 -0.2248 -0.0779
   31CHL1   H4A 2226   2.368   0.137   6.635 -0.8261 -0.3204  0.7049
   31CHL1   H4B 2227   2.452  -0.020   6.608 -0.7825  0.7035 -1.5132
   31CHL1    C5 2228   2.451   0.065   6.822 -0.2863  0.8412  0.1893
   31CHL1    C6 2229   2.445  -0.059   6.888 -0.1797  0.0661 -0.8462
   31CHL1    H6 2230   2.420  -0.151   6.832  1.6968 -1.1162  0.1505
   31CHL1    C7 2231   2.452  -0.083   7.037 -0.4734 -0.0346 -0.1633
   31CHL1   H7A 2232   2.365  -0.148   7.059 -0.3502 -0.4537 -0.8607
   31CHL1   H7B 2233   2.543  -0.135   7.073  0.1767  2.3865  1.9983
   31CHL1    C8 2234   2.452   0.049   7.119  0.7773 -0.1315  0.0941
   31CHL1    H8 2235   2.350   0.089   7.135 -0.3357 -2.8985  0.5369
   31CHL1   C14 2236   2.483   0.014   7.266 -0.2780  1.2609 -0.0813
   31CHL1   H14 2237   2.581  -0.038   7.259 -0.8274  0.3229 -1.2371
   31CHL1   C15 2238   2.400  -0.088   7.344 -0.1913 -0.5351 -0.0840
   31CHL1  H15A 2239   2.291  -0.079   7.324 -0.5325 -1.2037  1.3506
   31CHL1  H15B 2240   2.432  -0.189   7.311  0.6417 -0.2500 -0.1778
   31CHL1   C16 2241   2.420  -0.048   7.490 -0.4139  0.3471  0.5706
   31CHL1  H16A 2242   2.324  -0.010   7.532 -0.7634 -0.7196  0.7473
   31CHL1  H16B 2243   2.442  -0.134   7.557 -2.2424 -0.3781  0.3018
   31CHL1   C17 2244   2.525   0.064   7.489  0.4698 -0.2033  0.4167
   31CHL1   H17 2245   2.624   0.015   7.495  0.4694 -0.3384 -0.4958
   31CHL1   C13 2246   2.513   0.137   7.352  0.1931  1.1441  0.4371
   31CHL1   C18 2247   2.392   0.226   7.353 -0.3467 -0.0027  0.0286
   31CHL1  H18A 2248   2.396   0.319   7.414  1.6417  0.3402 -0.5683
   31CHL1  H18B 2249   2.363   0.267   7.253 -0.8444 -1.5219 -0.4888
   31CHL1  H18C 2250   2.303   0.167   7.385  0.8651 -2.0543 -0.2120
   31CHL1   C12 2251   2.635   0.204   7.288 -0.2255 -0.4035 -0.2293
   31CHL1  H12A 2252   2.678   0.283   7.353 -0.6463 -2.8819  3.3686
   31CHL1  H12B 2253   2.714   0.126   7.286  1.6123  1.3364  0.6904
   31CHL1   C11 2254   2.604   0.248   7.143 -0.2239 -0.8924  0.5370
   31CHL1  H11A 2255   2.532   0.333   7.149 -0.3365 -0.9552  0.0908
   31CHL1  H11B 2256   2.695   0.294   7.100 -0.5444 -1.3513 -0.6882
   31CHL1    C9 2257   2.546   0.141   7.050 -0.3554  0.3327  0.6755
   31CHL1    H9 2258   2.638   0.081   7.034  0.9607  2.6312 -1.0890
   31CHL1   C10 2259   2.504   0.184   6.904 -0.1156  0.3333 -0.3547
   31CHL1   C19 2260   2.390   0.291   6.918  0.7635 -0.1847  0.4892
   31CHL1  H19A 2261   2.414   0.380   6.979 -1.9618  0.4915  0.7204
   31CHL1  H19B 2262   2.362   0.320   6.814  0.1418  0.4982  0.8382
   31CHL1  H19C 2263   2.306   0.236   6.965 -1.2804  0.0103 -2.6162
   31CHL1    C1 2264   2.625   0.256   6.837  0.2549  0.1028  0.1675
   31CHL1   H1A 2265   2.635   0.359   6.877  1.1732 -0.4279  1.3940
   31CHL1   H1B 2266   2.721   0.203   6.855  1.2362  1.5945 -0.5191
   31CHL1    C2 2267   2.614   0.267   6.691  0.0490  0.6312  0.5817
   31CHL1   H2A 2268   2.711   0.303   6.649  1.2835 -2.0044  0.9788
   31CHL1   H2B 2269   2.530   0.337   6.676  0.5078  0.7510 -1.8033
   31CHL1   C20 2270   2.504   0.153   7.612  0.2973 -0.1568 -1.0966
   31CHL1   H20 2271   2.411   0.212   7.598  0.1695 -0.6399 -2.3834
   31CHL1   C21 2272   2.620   0.255   7.634  0.3477  0.4975 -0.0236
   31CHL1  H21A 2273   2.721   0.210   7.624  0.3846  0.7305 -0.7416
   31CHL1  H21B 2274   2.600   0.304   7.732 -1.1150 -0.9071  0.4183
   31CHL1  H21C 2275   2.613   0.334   7.556 -1.0493 -0.2910 -0.7390
   31CHL1   C22 2276   2.484   0.076   7.748  0.3590  0.0596  0.1687
   31CHL1  H22A 2277   2.478   0.148   7.832  0.6549 -2.0431  2.0875
   31CHL1  H22B 2278   2.394   0.010   7.748 -0.1905  0.7914 -0.4129
   31CHL1   C23 2279   2.608  -0.005   7.785 -0.0343 -0.5570 -0.0779
   31CHL1  H23A 2280   2.614  -0.085   7.709 -0.2093  0.2522 -0.9694
   31CHL1  H23B 2281   2.695   0.063   7.802  0.5383 -1.2379 -0.2640
   31CHL1   C24 2282   2.582  -0.078   7.923 -0.1094  0.6965 -0.3150
   31CHL1  H24A 2283   2.555  -0.010   8.007  0.1502  1.4209 -0.8133
   31CHL1  H24B 2284   2.496  -0.149   7.915 -1.1116  1.8143  0.2112
   31CHL1   C25 2285   2.696  -0.172   7.977 -0.1182 -0.7301 -0.4121
   31CHL1   H25 2286   2.782  -0.103   7.983 -1.4644  1.1579 -1.7739
   31CHL1   C26 2287   2.667  -0.221   8.114 -0.0598  0.8119  0.1908
   31CHL1  H26A 2288   2.559  -0.245   8.127  0.0399 -0.1290 -0.5235
   31CHL1  H26B 2289   2.725  -0.310   8.147 -1.1991  0.0128  0.1023
   31CHL1  H26C 2290   2.706  -0.152   8.191 -0.5372 -0.1538  1.3290
   31CHL1   C27 2291   2.728  -0.285   7.885 -0.0558  0.1039  0.1405
   31CHL1  H27A 2292   2.667  -0.374   7.911 -0.4633 -0.2472 -1.8631
   31CHL1  H27B 2293   2.830  -0.327   7.890 -0.2248 -0.2546  0.8128
   31CHL1  H27C 2294   2.723  -0.253   7.779  1.6780  0.0140  0.0099
   32CHL1    C3 2295   4.107   4.644   6.948  0.5529  0.1552 -0.5653
   32CHL1    H3 2296   4.126   4.540   6.982  1.7737  0.5562  0.0461
   32CHL1    O3 2297   4.047   4.637   6.823 -0.6101 -0.6780 -0.0397
   32CHL1   H3' 2298   4.050   4.732   6.807  0.2760 -0.9081 -1.2867
   32CHL1    C4 2299   4.008   4.704   7.049 -0.8225  0.3378  0.7155
   32CHL1   H4A 2300   3.976   4.802   7.009  1.3948  0.5271 -0.7301
   32CHL1   H4B 2301   3.921   4.634   7.050 -0.1968 -0.4592  0.3627
   32CHL1    C5 2302   4.073   4.707   7.184 -0.9755  0.2247 -0.3930
   32CHL1    C6 2303   4.019   4.658   7.298  0.0467 -0.5269  0.3418
   32CHL1    H6 2304   3.918   4.615   7.300 -1.9526  3.5950 -0.2613
   32CHL1    C7 2305   4.091   4.661   7.432 -0.9366 -0.4365 -0.0939
   32CHL1   H7A 2306   4.018   4.686   7.511 -0.7987 -0.8027  0.1569
   32CHL1   H7B 2307   4.125   4.558   7.459 -1.3526 -0.7847 -0.8815
   32CHL1    C8 2308   4.209   4.772   7.435 -0.8926  0.5287 -0.3844
   32CHL1    H8 2309   4.158   4.870   7.435  0.9408  1.6345  2.5692
   32CHL1   C14 2310   4.298   4.761   7.552  0.3634  0.2800  0.3984
   32CHL1   H14 2311   4.351   4.666   7.528 -0.9248 -0.1232 -0.9624
   32CHL1   C15 2312   4.230   4.752   7.694  0.5840 -0.1024  0.0950
   32CHL1  H15A 2313   4.163   4.840   7.701 -1.9922 -1.9817  0.1884
   32CHL1  H15B 2314   4.184   4.655   7.721  0.5012  0.0600  0.5474
   32CHL1   C16 2315   4.341   4.770   7.796 -0.5342 -0.2571 -0.0904
   32CHL1  H16A 2316   4.309   4.842   7.874  1.4455  1.6705 -0.9390
   32CHL1  H16B 2317   4.372   4.672   7.840 -0.5407 -0.0390  0.4048
   32CHL1   C17 2318   4.459   4.826   7.710  0.1462  0.1311 -0.3108
   32CHL1   H17 2319   4.532   4.744   7.692  0.8007  1.1865 -2.9122
   32CHL1   C13 2320   4.407   4.869   7.569  0.0951 -1.4343 -0.0958
   32CHL1   C18 2321   4.344   5.018   7.578  0.4840  0.0664 -0.7572
   32CHL1  H18A 2322   4.264   5.022   7.501  0.0890 -0.2241 -0.3696
   32CHL1  H18B 2323   4.295   5.025   7.678 -0.4583  0.0918 -1.2055
   32CHL1  H18C 2324   4.412   5.105   7.570 -0.5764  1.0541  0.4677
   32CHL1   C12 2325   4.495   4.850   7.444  0.4317 -0.3664 -0.2495
   32CHL1  H12A 2326   4.577   4.925   7.440 -0.8020  1.0401 -0.3266
   32CHL1  H12B 2327   4.539   4.748   7.443  0.9771 -0.1335 -1.1931
   32CHL1   C11 2328   4.412   4.874   7.320 -0.2045  1.0540  0.5202
   32CHL1  H11A 2329   4.365   4.974   7.329 -1.4469  0.4023  1.5768
   32CHL1  H11B 2330   4.486   4.863   7.238  2.1721  3.5553  2.1738
   32CHL1    C9 2331   4.294   4.772   7.305 -0.2825 -0.6975  0.6429
   32CHL1    H9 2332   4.339   4.671   7.309  1.7875  0.2021  2.2686
   32CHL1   C10 2333   4.210   4.776   7.176 -0.2684 -0.1838 -0.3693
   32CHL1   C19 2334   4.189   4.933   7.151 -0.0081 -0.1271 -0.0715
   32CHL1  H19A 2335   4.287   4.978   7.124 -0.7170  1.9732  0.6474
   32CHL1  H19B 2336   4.123   4.946   7.063  0.9955 -3.1789 -1.4114
   32CHL1  H19C 2337   4.143   4.979   7.241  1.8946  1.0519  0.3563
   32CHL1    C1 2338   4.303   4.719   7.070  0.4064 -0.2579  0.2598
   32CHL1   H1A 2339   4.400   4.774   7.063 -0.0728  0.7434  1.1818
   32CHL1   H1B 2340   4.328   4.617   7.103 -0.7689 -0.8187 -0.5035
   32CHL1    C2 2341   4.238   4.720   6.931 -0.0267 -0.0693 -0.0803
   32CHL1   H2A 2342   4.298   4.656   6.864 -0.1110  0.9604 -1.1631
   32CHL1   H2B 2343   4.224   4.824   6.894 -0.2183  0.1293  0.5244
   32CHL1   C20 2344   4.549   4.929   7.791  0.4914 -0.5418 -0.1114
   32CHL1   H20 2345   4.482   5.014   7.817  1.4317  0.6296 -1.4008
   32CHL1   C21 2346   4.666   4.990   7.703 -0.3011  0.9464  0.0281
   32CHL1  H21A 2347   4.623   5.062   7.629 -0.9021  3.5350  2.6993
   32CHL1  H21B 2348   4.718   4.902   7.660 -2.0736 -1.4796  2.4785
   32CHL1  H21C 2349   4.744   5.044   7.760  0.3195  1.6946 -1.4638
   32CHL1   C22 2350   4.605   4.869   7.917  0.1475 -0.3165 -0.2666
   32CHL1  H22A 2351   4.658   4.955   7.963 -1.0534  1.1659 -1.5387
   32CHL1  H22B 2352   4.522   4.857   7.990  0.2682  2.9120  0.5808
   32CHL1   C23 2353   4.702   4.754   7.897  0.4025  0.9259 -0.3672
   32CHL1  H23A 2354   4.659   4.652   7.893  0.9027  0.7093 -0.2775
   32CHL1  H23B 2355   4.748   4.770   7.797  0.5114  1.5579 -0.2225
   32CHL1   C24 2356   4.809   4.742   8.012 -0.2789 -0.3452 -0.8872
   32CHL1  H24A 2357   4.858   4.842   8.011  0.8982 -0.8852 -0.1340
   32CHL1  H24B 2358   4.765   4.738   8.114 -0.5668  0.8851 -0.9517
   32CHL1   C25 2359   4.915   4.626   8.034  0.2424 -0.8674 -0.2774
   32CHL1   H25 2360   4.848   4.537   8.025  0.6280 -1.2484  0.5204
   32CHL1   C26 2361   5.018   4.625   7.926  1.0414  0.3774  0.3133
   32CHL1  H26A 2362   5.081   4.717   7.930 -1.0671  1.9001  0.1064
   32CHL1  H26B 2363   5.079   4.536   7.951  0.7141  0.8169  2.9438
   32CHL1  H26C 2364   4.969   4.617   7.827  0.8701  1.2237  0.3189
   32CHL1   C27 2365   4.984   4.631   8.171  0.0179 -0.3790  0.2259
   32CHL1  H27A 2366   5.046   4.723   8.180  1.5916 -0.9782 -3.1564
   32CHL1  H27B 2367   4.904   4.637   8.248  0.3688 -2.5748  0.8085
   32CHL1  H27C 2368   5.051   4.544   8.186 -0.3018 -0.7437 -0.4646
   33CHL1    C3 2369   5.366   5.874   6.550 -0.3989 -0.1638  0.2327
   33CHL1    H3 2370   5.418   5.966   6.517 -2.5908  1.3973  0.8651
   33CHL1    O3 2371   5.308   5.806   6.439 -0.1164  0.2100 -0.5447
   33CHL1   H3' 2372   5.328   5.714   6.458  1.2746 -0.0346 -2.8107
   33CHL1    C4 2373   5.455   5.772   6.623 -0.1492 -0.2334  0.3543
   33CHL1   H4A 2374   5.400   5.676   6.623 -1.2916  0.3556 -1.8254
   33CHL1   H4B 2375   5.550   5.757   6.567 -0.1694  2.2176 -0.4694
   33CHL1    C5 2376   5.491   5.822   6.768 -0.3058  0.6122  0.0093
   33CHL1    C6 2377   5.619   5.824   6.805  0.1402  0.0308 -0.8235
   33CHL1    H6 2378   5.702   5.790   6.741 -0.1868 -0.9709 -0.7354
   33CHL1    C7 2379   5.670   5.872   6.934  0.1027  0.4440 -0.3519
   33CHL1   H7A 2380   5.738   5.789   6.966 -1.5258  0.0543  2.4317
   33CHL1   H7B 2381   5.732   5.963   6.918  1.4866 -0.0019  1.8793
   33CHL1    C8 2382   5.559   5.876   7.039  0.6601 -0.3622  0.5606
   33CHL1    H8 2383   5.533   5.772   7.069 -1.6365  0.4947  1.8021
   33CHL1   C14 2384   5.607   5.940   7.170  0.3321  0.2688  0.2100
   33CHL1   H14 2385   5.620   6.047   7.140  2.8495  0.5024  1.8374
   33CHL1   C15 2386   5.744   5.898   7.218  0.6978  0.0594  0.3838
   33CHL1  H15A 2387   5.758   5.788   7.213  0.7681  0.1217 -1.4208
   33CHL1  H15B 2388   5.822   5.937   7.150 -1.4068 -0.4725 -2.4979
   33CHL1   C16 2389   5.745   5.959   7.363 -0.3927  0.0197 -0.6433
   33CHL1  H16A 2390   5.789   5.886   7.434  0.2108  0.0339 -0.9935
   33CHL1  H16B 2391   5.802   6.054   7.362 -1.8020  0.9310  0.4654
   33CHL1   C17 2392   5.598   6.011   7.392 -0.1236 -0.5297 -0.2752
   33CHL1   H17 2393   5.598   6.120   7.374 -2.7844  0.0589  2.4166
   33CHL1   C13 2394   5.512   5.944   7.286 -0.4384  0.1103 -0.2871
   33CHL1   C18 2395   5.475   5.798   7.328  0.7496  0.4078 -0.2481
   33CHL1  H18A 2396   5.564   5.739   7.357  1.4410  1.9591  0.9555
   33CHL1  H18B 2397   5.416   5.801   7.422 -1.4389  0.4039 -1.5537
   33CHL1  H18C 2398   5.409   5.738   7.263 -0.8346  2.3954 -0.5658
   33CHL1   C12 2399   5.387   6.027   7.242 -0.9486  0.0661 -0.1170
   33CHL1  H12A 2400   5.312   6.022   7.324  0.5440  1.5232  1.4346
   33CHL1  H12B 2401   5.419   6.133   7.232  0.9513 -0.1849  2.2550
   33CHL1   C11 2402   5.325   5.969   7.111  0.3600  0.1822 -0.2759
   33CHL1  H11A 2403   5.293   5.870   7.150  0.5665  0.6159  1.0295
   33CHL1  H11B 2404   5.234   6.030   7.092 -1.4088 -2.1454  0.1971
   33CHL1    C9 2405   5.430   5.946   6.990  0.0979  0.3337 -0.0857
   33CHL1    H9 2406   5.448   6.052   6.962  0.2192 -0.1081 -1.7596
   33CHL1   C10 2407   5.378   5.880   6.859 -0.0798 -0.9205  0.4854
   33CHL1   C19 2408   5.269   5.773   6.900  0.2446  0.1188 -0.4834
   33CHL1  H19A 2409   5.219   5.731   6.810  0.4055  1.2555 -1.1198
   33CHL1  H19B 2410   5.310   5.689   6.960 -0.0967 -0.2594 -0.7793
   33CHL1  H19C 2411   5.180   5.812   6.953  0.5974  0.0428  0.1774
   33CHL1    C1 2412   5.299   5.980   6.769 -0.2089  0.0611 -0.4986
   33CHL1   H1A 2413   5.202   6.015   6.812 -0.6611 -0.9047 -0.7050
   33CHL1   H1B 2414   5.356   6.075   6.759 -1.8891  1.0626 -1.0082
   33CHL1    C2 2415   5.247   5.924   6.638 -0.4691  0.5380  0.7444
   33CHL1   H2A 2416   5.189   6.004   6.587  0.0748  0.5170  0.0825
   33CHL1   H2B 2417   5.172   5.843   6.644 -1.5225  1.3048 -1.2616
   33CHL1   C20 2418   5.570   5.989   7.538 -0.4115 -0.0652 -0.4590
   33CHL1   H20 2419   5.573   5.882   7.569  1.0846  0.4316  1.2889
   33CHL1   C21 2420   5.432   6.041   7.566  0.0874 -0.1164 -0.0077
   33CHL1  H21A 2421   5.404   6.135   7.515  1.7099  0.6164  0.3945
   33CHL1  H21B 2422   5.412   6.062   7.673  1.8503 -0.6827  0.4665
   33CHL1  H21C 2423   5.354   5.972   7.526  1.5496 -0.4436 -2.5237
   33CHL1   C22 2424   5.682   6.062   7.626 -0.1432 -0.5416 -0.0744
   33CHL1  H22A 2425   5.784   6.019   7.612  0.5540 -0.1711  3.1175
   33CHL1  H22B 2426   5.686   6.169   7.599 -1.2987 -0.7994 -1.3763
   33CHL1   C23 2427   5.669   6.052   7.778 -0.5601 -0.4834 -0.5601
   33CHL1  H23A 2428   5.584   6.109   7.820 -2.0197 -2.1390 -1.1315
   33CHL1  H23B 2429   5.653   5.946   7.808 -0.9914 -0.3470 -0.2998
   33CHL1   C24 2430   5.801   6.106   7.846 -0.3039 -0.0143  0.1122
   33CHL1  H24A 2431   5.892   6.046   7.827 -0.4247 -0.9803  2.2722
   33CHL1  H24B 2432   5.808   6.211   7.811  4.3519 -0.1474 -0.0348
   33CHL1   C25 2433   5.801   6.121   8.001  0.1060 -0.4220 -0.2447
   33CHL1   H25 2434   5.801   6.015   8.036 -1.8750 -1.3911 -2.8039
   33CHL1   C26 2435   5.927   6.193   8.044 -0.1511  0.5198  0.3082
   33CHL1  H26A 2436   5.922   6.295   8.000  1.8757  0.6751  0.3459
   33CHL1  H26B 2437   5.946   6.194   8.153 -0.7512 -1.8620  0.4971
   33CHL1  H26C 2438   6.011   6.136   7.999  0.4253 -0.4374  2.4664
   33CHL1   C27 2439   5.681   6.197   8.053 -0.1155 -0.1373  1.2860
   33CHL1  H27A 2440   5.586   6.154   8.014  0.2010  1.0954 -1.0038
   33CHL1  H27B 2441   5.683   6.191   8.164 -2.8469 -2.6140  1.3262
   33CHL1  H27C 2442   5.693   6.303   8.021 -0.4923  0.1026  1.9118
   34CHL1    C3 2443   0.207   3.820   7.058 -0.1249  0.7558  0.2539
   34CHL1    H3 2444   0.297   3.885   7.065  0.1583  0.4929 -0.8320
   34CHL1    O3 2445   0.151   3.819   6.932  0.3335 -0.7021 -0.0275
   34CHL1   H3' 2446   0.219   3.776   6.879  0.3210 -0.4856 -0.2203
   34CHL1    C4 2447   0.258   3.678   7.093 -0.5165 -0.1462 -0.1004
   34CHL1   H4A 2448   0.167   3.615   7.076 -0.9149  0.4757 -0.3015
   34CHL1   H4B 2449   0.327   3.627   7.023 -0.8366  0.0184 -0.5419
   34CHL1    C5 2450   0.312   3.670   7.237  0.1209  0.7419  0.4191
   34CHL1    C6 2451   0.434   3.631   7.259 -0.7965  0.1406 -0.4785
   34CHL1    H6 2452   0.506   3.607   7.179  0.9281  2.2946  0.3095
   34CHL1    C7 2453   0.492   3.609   7.395 -0.0603  0.3985 -0.7440
   34CHL1   H7A 2454   0.565   3.525   7.404 -1.5086 -0.7986  0.4576
   34CHL1   H7B 2455   0.544   3.705   7.413  0.8883  0.2061 -2.2316
   34CHL1    C8 2456   0.396   3.605   7.518  0.3623 -1.2128  0.2127
   34CHL1    H8 2457   0.340   3.509   7.526 -2.1174 -0.0376 -1.3953
   34CHL1   C14 2458   0.467   3.638   7.649 -0.2040  0.0927 -0.3195
   34CHL1   H14 2459   0.492   3.747   7.644  0.3313 -0.0792 -2.3641
   34CHL1   C15 2460   0.606   3.566   7.689  0.1355 -0.6708 -0.4753
   34CHL1  H15A 2461   0.593   3.457   7.673 -0.5085 -0.5600 -0.7587
   34CHL1  H15B 2462   0.697   3.611   7.646  0.9326  0.6036  2.2957
   34CHL1   C16 2463   0.601   3.580   7.844 -0.3504 -0.0578 -0.2636
   34CHL1  H16A 2464   0.591   3.482   7.895 -0.9240  0.1734  0.0733
   34CHL1  H16B 2465   0.700   3.621   7.873 -0.2480  0.5041 -1.3234
   34CHL1   C17 2466   0.482   3.672   7.879  0.3756  0.1331  0.5523
   34CHL1   H17 2467   0.505   3.776   7.847 -1.1286  0.7561  1.3861
   34CHL1   C13 2468   0.375   3.629   7.779  0.4138 -1.4081  0.4798
   34CHL1   C18 2469   0.325   3.486   7.796 -0.2378  0.3359 -0.8795
   34CHL1  H18A 2470   0.256   3.449   7.717 -0.7192 -1.1440  0.1943
   34CHL1  H18B 2471   0.414   3.419   7.791 -0.4912 -0.0154 -0.7514
   34CHL1  H18C 2472   0.277   3.477   7.896 -0.4731 -1.7929 -1.1399
   34CHL1   C12 2473   0.262   3.732   7.756 -0.5462 -0.3879  0.9496
   34CHL1  H12A 2474   0.196   3.735   7.846 -0.7743 -1.4342  0.8360
   34CHL1  H12B 2475   0.309   3.831   7.740 -1.8681  0.4715  2.0702
   34CHL1   C11 2476   0.186   3.709   7.623 -1.0052  0.2175 -0.4197
   34CHL1  H11A 2477   0.149   3.604   7.630  0.0364 -0.0709  1.5266
   34CHL1  H11B 2478   0.101   3.780   7.616 -0.0092  1.7180  1.7873
   34CHL1    C9 2479   0.282   3.713   7.496 -1.1213  0.1098 -0.9123
   34CHL1    H9 2480   0.336   3.809   7.497 -0.6125 -0.1745  0.4238
   34CHL1   C10 2481   0.219   3.690   7.353 -0.6650 -0.1268  0.4324
   34CHL1   C19 2482   0.097   3.584   7.361 -0.4431 -0.7896 -0.4899
   34CHL1  H19A 2483   0.033   3.618   7.445 -0.0048  2.9789 -1.5218
   34CHL1  H19B 2484   0.028   3.583   7.274 -0.2307 -0.3181 -0.6681
   34CHL1  H19C 2485   0.142   3.485   7.385 -1.0756 -1.1433 -0.7238
   34CHL1    C1 2486   0.166   3.827   7.310 -0.1375 -0.1571 -0.3563
   34CHL1   H1A 2487   0.084   3.829   7.384  0.6668 -2.4723  0.6949
   34CHL1   H1B 2488   0.238   3.905   7.340 -1.8671  0.2608  3.2471
   34CHL1    C2 2489   0.106   3.846   7.169  0.3355  0.3628  0.2906
   34CHL1   H2A 2490   0.069   3.950   7.152 -0.0369  0.2347  0.2970
   34CHL1   H2B 2491   0.020   3.775   7.161  0.3128  0.5101 -1.0291
   34CHL1   C20 2492   0.451   3.684   8.032  0.0150  0.3899  0.1059
   34CHL1   H20 2493   0.346   3.715   8.052 -0.0790 -0.5663  1.2487
   34CHL1   C21 2494   0.543   3.797   8.089 -0.4522  0.4060  0.2488
   34CHL1  H21A 2495   0.540   3.891   8.030  1.0104  0.2583 -0.0993
   34CHL1  H21B 2496   0.646   3.756   8.095 -1.7727 -3.5898 -0.6128
   34CHL1  H21C 2497   0.519   3.829   8.192  1.7094  0.4112  0.7877
   34CHL1   C22 2498   0.490   3.563   8.120  0.1956  0.3440  0.5026
   34CHL1  H22A 2499   0.436   3.475   8.081 -0.6291  0.0420  2.2183
   34CHL1  H22B 2500   0.599   3.543   8.117  0.1203 -0.5474  2.3471
   34CHL1   C23 2501   0.448   3.562   8.267 -0.9747  0.0001 -0.2462
   34CHL1  H23A 2502   0.512   3.632   8.326 -1.4361  0.3527 -0.1615
   34CHL1  H23B 2503   0.345   3.601   8.279 -0.0134  2.2497  1.5420
   34CHL1   C24 2504   0.472   3.432   8.331  0.4363 -0.0844 -0.3647
   34CHL1  H24A 2505   0.453   3.422   8.440  0.8894  1.1039 -0.1618
   34CHL1  H24B 2506   0.407   3.355   8.285  2.4488 -2.3098  0.2776
   34CHL1   C25 2507   0.615   3.367   8.328  0.1080  0.6356  0.3402
   34CHL1   H25 2508   0.639   3.348   8.221  0.2824 -0.6928  0.5948
   34CHL1   C26 2509   0.719   3.460   8.387  0.2548 -0.5102  0.3966
   34CHL1  H26A 2510   0.686   3.518   8.475  2.8019  1.0979  0.4108
   34CHL1  H26B 2511   0.814   3.406   8.410  1.0347  1.1014  1.1211
   34CHL1  H26C 2512   0.748   3.540   8.315  1.0248 -0.7751  0.3952
   34CHL1   C27 2513   0.607   3.229   8.399  0.3252 -0.8739 -0.9275
   34CHL1  H27A 2514   0.585   3.244   8.506  0.4296 -0.6532 -0.9364
   34CHL1  H27B 2515   0.536   3.162   8.345 -0.5652 -0.5144 -0.2149
   34CHL1  H27C 2516   0.704   3.175   8.406  0.6437 -0.1541  0.6355
   35CHL1    C3 2517   1.917   4.196   7.332  0.3095 -0.0098  0.2059
   35CHL1    H3 2518   1.861   4.287   7.365 -0.0998  0.3530 -1.4205
   35CHL1    O3 2519   1.908   4.185   7.188 -0.2500  0.0863 -0.1864
   35CHL1   H3' 2520   1.979   4.127   7.162 -0.0999  0.4858 -0.6754
   35CHL1    C4 2521   2.066   4.205   7.373 -0.7221 -0.2217 -0.2018
   35CHL1   H4A 2522   2.125   4.124   7.326  0.9767  1.7347 -1.6382
   35CHL1   H4B 2523   2.102   4.295   7.319  1.0517 -1.4033 -1.0533
   35CHL1    C5 2524   2.089   4.190   7.522  0.6749 -0.5476  0.4321
   35CHL1    C6 2525   2.162   4.283   7.579  0.4339 -0.3511 -0.4428
   35CHL1    H6 2526   2.202   4.367   7.521  1.4427  0.4648  1.3247
   35CHL1    C7 2527   2.175   4.299   7.728 -1.0114 -0.3590  0.1985
   35CHL1   H7A 2528   2.281   4.330   7.742 -0.4731 -1.5518 -1.0092
   35CHL1   H7B 2529   2.118   4.391   7.753  0.8998  1.0638 -0.4449
   35CHL1    C8 2530   2.121   4.182   7.812  0.0690  0.2228 -0.5172
   35CHL1    H8 2531   2.196   4.100   7.808 -0.7983 -0.6206 -0.1117
   35CHL1   C14 2532   2.094   4.232   7.949  0.4360 -0.3226  0.3680
   35CHL1   H14 2533   2.009   4.302   7.933  1.4413  0.9842  0.5920
   35CHL1   C15 2534   2.207   4.314   8.012  0.2027 -0.3929 -0.4684
   35CHL1  H15A 2535   2.305   4.264   8.004 -0.1998 -1.3685  0.4054
   35CHL1  H15B 2536   2.221   4.418   7.974 -3.0503  0.2904 -0.0989
   35CHL1   C16 2537   2.164   4.319   8.161  0.1214 -0.4077 -0.5743
   35CHL1  H16A 2538   2.246   4.276   8.222 -2.4635 -1.4185  2.4941
   35CHL1  H16B 2539   2.139   4.424   8.187  0.7886 -0.6485  1.2119
   35CHL1   C17 2540   2.047   4.212   8.175  0.3652  0.4627  0.0020
   35CHL1   H17 2541   1.953   4.272   8.173  1.1082  1.8016  2.2251
   35CHL1   C13 2542   2.053   4.127   8.054  0.1763  0.1479  0.5021
   35CHL1   C18 2543   2.161   4.012   8.073 -0.3279  0.2383 -0.9262
   35CHL1  H18A 2544   2.179   3.949   7.983 -0.6617 -2.3976  0.7335
   35CHL1  H18B 2545   2.259   4.048   8.111 -1.2867  0.8456  1.1125
   35CHL1  H18C 2546   2.120   3.935   8.143  1.5602 -0.0820 -0.0962
   35CHL1   C12 2547   1.921   4.060   7.997  0.7901  0.4868  0.5491
   35CHL1  H12A 2548   1.890   3.975   8.062 -0.7808  2.1057  2.0318
   35CHL1  H12B 2549   1.840   4.135   7.995  0.1666 -0.1794  0.1003
   35CHL1   C11 2550   1.931   4.018   7.852 -0.3871  1.0106  0.2043
   35CHL1  H11A 2551   1.994   3.927   7.845 -0.6341  0.8296  0.2876
   35CHL1  H11B 2552   1.826   3.995   7.822 -0.1825  0.1999  0.0879
   35CHL1    C9 2553   1.993   4.125   7.759 -0.1784  0.4116  0.1350
   35CHL1    H9 2554   1.928   4.214   7.754  0.5261  0.8768 -1.3505
   35CHL1   C10 2555   2.004   4.087   7.604 -0.1589  0.6034 -0.3577
   35CHL1   C19 2556   2.066   3.949   7.588 -0.2610  0.7828 -0.0603
   35CHL1  H19A 2557   2.005   3.881   7.650  0.8103  1.4220  1.7821
   35CHL1  H19B 2558   2.052   3.915   7.483 -0.7078  0.1304  0.2047
   35CHL1  H19C 2559   2.174   3.937   7.611  0.3065  2.8704 -1.3261
   35CHL1    C1 2560   1.859   4.084   7.548  0.3250  0.0699  0.9924
   35CHL1   H1A 2561   1.799   4.008   7.602 -1.0522 -0.7661 -1.4998
   35CHL1   H1B 2562   1.802   4.176   7.574 -1.1492 -0.0355 -1.4962
   35CHL1    C2 2563   1.848   4.076   7.397 -0.3036 -0.6728  0.4941
   35CHL1   H2A 2564   1.745   4.082   7.358 -0.8076  0.2950  1.8742
   35CHL1   H2B 2565   1.897   3.988   7.351 -0.4787  0.5618 -2.2399
   35CHL1   C20 2566   2.031   4.154   8.320  0.4540  0.3498  0.7017
   35CHL1   H20 2567   2.117   4.085   8.334  0.8822  0.1405 -2.2207
   35CHL1   C21 2568   1.893   4.088   8.341 -0.4154  0.6349  0.3972
   35CHL1  H21A 2569   1.886   3.997   8.278  1.9682  0.3335  0.4696
   35CHL1  H21B 2570   1.810   4.155   8.310  0.3055  1.2340 -0.2893
   35CHL1  H21C 2571   1.871   4.053   8.444 -1.8690  1.4813  0.4049
   35CHL1   C22 2572   2.029   4.272   8.430  0.2119  0.6193 -0.1563
   35CHL1  H22A 2573   2.053   4.367   8.377 -2.4202  0.7014 -1.3777
   35CHL1  H22B 2574   1.930   4.282   8.480  0.0157 -3.0759  0.4825
   35CHL1   C23 2575   2.129   4.253   8.544 -0.2703  0.2903  0.7375
   35CHL1  H23A 2576   2.231   4.213   8.524 -0.0132  1.1565  0.2510
   35CHL1  H23B 2577   2.150   4.357   8.578  1.4976  0.0777  0.3701
   35CHL1   C24 2578   2.074   4.164   8.658  0.4646  0.4598 -0.0016
   35CHL1  H24A 2579   1.988   4.213   8.708  1.6548  0.3202  2.3488
   35CHL1  H24B 2580   2.048   4.066   8.613 -1.3387  0.6660  0.4953
   35CHL1   C25 2581   2.161   4.121   8.781  0.0785 -0.0413  1.1581
   35CHL1   H25 2582   2.229   4.045   8.737  2.4134  2.8229 -0.5502
   35CHL1   C26 2583   2.241   4.238   8.831  0.4293  0.3005  0.2039
   35CHL1  H26A 2584   2.299   4.195   8.916  0.1922  2.0028  1.2668
   35CHL1  H26B 2585   2.314   4.283   8.760 -0.6412 -0.5984 -1.5369
   35CHL1  H26C 2586   2.181   4.325   8.864  1.0084  0.7150  0.1806
   35CHL1   C27 2587   2.065   4.067   8.881  0.2198 -0.1410 -0.0058
   35CHL1  H27A 2588   2.108   4.021   8.973 -2.8064 -0.6144  1.3236
   35CHL1  H27B 2589   1.983   4.010   8.832  0.7673 -0.4686 -0.5474
   35CHL1  H27C 2590   2.011   4.154   8.926  0.1438 -1.0649  1.7790
   36CHL1    C3 2591   2.958   2.585   6.934 -0.3205  0.2240 -0.2829
   36CHL1    H3 2592   3.060   2.545   6.951 -0.9219 -0.6615  1.4585
   36CHL1    O3 2593   2.903   2.536   6.812  0.2995 -0.1994 -0.2689
   36CHL1   H3' 2594   2.885   2.616   6.762 -0.4877  1.5061  2.5117
   36CHL1    C4 2595   2.864   2.538   7.048  0.4189 -0.3560 -0.1050
   36CHL1   H4A 2596   2.763   2.576   7.022  0.2977  0.3603  1.2869
   36CHL1   H4B 2597   2.854   2.428   7.057 -1.7760 -0.4568 -2.6207
   36CHL1    C5 2598   2.892   2.602   7.184  0.4969 -0.6879 -0.1541
   36CHL1    C6 2599   2.922   2.531   7.298 -0.1527 -0.9742  0.5103
   36CHL1    H6 2600   2.907   2.422   7.302 -1.4971 -0.7690  2.2209
   36CHL1    C7 2601   2.949   2.593   7.430  0.0703 -0.5808 -0.3155
   36CHL1   H7A 2602   2.898   2.537   7.511  1.2402 -0.9545  0.1854
   36CHL1   H7B 2603   3.059   2.582   7.443  0.1738  1.5817  1.1439
   36CHL1    C8 2604   2.905   2.749   7.430 -0.7685  0.5414 -0.2444
   36CHL1    H8 2605   2.795   2.763   7.439 -1.2313 -1.9272 -1.2999
   36CHL1   C14 2606   2.979   2.802   7.548  0.4075 -0.0977 -0.8615
   36CHL1   H14 2607   3.083   2.784   7.516 -0.3044 -1.7431 -2.3670
   36CHL1   C15 2608   2.957   2.732   7.686 -0.1722  0.2859  1.4067
   36CHL1  H15A 2609   2.847   2.716   7.696 -0.3235  0.3843  0.0404
   36CHL1  H15B 2610   3.016   2.638   7.693  1.1655  0.8723 -0.9035
   36CHL1   C16 2611   3.005   2.845   7.781  0.5036 -0.1541 -0.3328
   36CHL1  H16A 2612   2.935   2.857   7.866  1.3842 -1.2376  0.5733
   36CHL1  H16B 2613   3.099   2.797   7.815  0.5709 -1.0809 -1.7352
   36CHL1   C17 2614   3.030   2.974   7.705 -0.0413  0.2066  0.2341
   36CHL1   H17 2615   3.132   2.968   7.662 -1.2839 -2.1911 -2.7683
   36CHL1   C13 2616   2.952   2.952   7.574 -0.7509 -0.6234 -0.4996
   36CHL1   C18 2617   2.807   2.991   7.611 -0.0489 -0.1610  0.0436
   36CHL1  H18A 2618   2.775   2.950   7.709  1.1345  1.0131  0.9654
   36CHL1  H18B 2619   2.792   3.101   7.619 -0.7290 -0.1548 -1.1317
   36CHL1  H18C 2620   2.735   2.952   7.537 -1.5713 -1.4834  2.1088
   36CHL1   C12 2621   2.997   3.033   7.453 -0.3558  0.0524  0.4183
   36CHL1  H12A 2622   2.987   3.143   7.470 -0.7919 -0.3551  3.2795
   36CHL1  H12B 2623   3.104   3.017   7.431 -0.3032  1.6043 -0.6569
   36CHL1   C11 2624   2.926   2.976   7.324 -0.3655 -0.2172 -0.2786
   36CHL1  H11A 2625   2.816   2.986   7.324 -0.3706 -0.0726  0.8073
   36CHL1  H11B 2626   2.963   3.031   7.235 -1.4805 -0.9927 -1.2439
   36CHL1    C9 2627   2.947   2.825   7.307 -0.3441 -0.9224 -0.5955
   36CHL1    H9 2628   3.057   2.813   7.295 -0.1021  2.3018 -2.9788
   36CHL1   C10 2629   2.897   2.760   7.178  0.1604 -0.4033  0.4775
   36CHL1   C19 2630   2.752   2.822   7.149  0.2911  0.0653  0.0780
   36CHL1  H19A 2631   2.702   2.781   7.058  0.0790  0.4119  0.0381
   36CHL1  H19B 2632   2.686   2.817   7.239 -0.4659  1.4080 -0.3801
   36CHL1  H19C 2633   2.754   2.931   7.130 -0.7277 -0.2453 -2.1168
   36CHL1    C1 2634   2.996   2.797   7.070  0.0131  0.6273 -0.7376
   36CHL1   H1A 2635   3.000   2.908   7.060  1.3820  0.6520 -0.2077
   36CHL1   H1B 2636   3.099   2.767   7.099 -0.8322 -1.8598 -0.1189
   36CHL1    C2 2637   2.967   2.739   6.931  0.2103 -0.6002 -0.0604
   36CHL1   H2A 2638   3.054   2.762   6.864  0.0822 -0.8330 -0.3067
   36CHL1   H2B 2639   2.879   2.793   6.891 -0.7976 -1.5721  0.8138
   36CHL1   C20 2640   3.018   3.103   7.778 -0.3118 -0.2570 -0.3744
   36CHL1   H20 2641   2.911   3.128   7.797  0.2991  2.1330  0.3130
   36CHL1   C21 2642   3.076   3.230   7.709 -0.7916  0.0204 -0.4302
   36CHL1  H21A 2643   3.014   3.272   7.627 -0.6667 -2.7300 -2.0356
   36CHL1  H21B 2644   3.177   3.214   7.666  0.1374 -0.2464  1.7258
   36CHL1  H21C 2645   3.078   3.322   7.772  0.9626 -0.5883  0.4636
   36CHL1   C22 2646   3.085   3.099   7.914  0.7360 -1.0533 -0.2668
   36CHL1  H22A 2647   3.070   3.193   7.972  0.6779 -0.3525 -1.3906
   36CHL1  H22B 2648   3.027   3.021   7.969  0.3261 -0.0937  0.6921
   36CHL1   C23 2649   3.237   3.048   7.927 -0.0703 -0.6015  0.0730
   36CHL1  H23A 2650   3.248   2.946   7.885  0.2584 -0.7221  0.4447
   36CHL1  H23B 2651   3.298   3.117   7.865 -0.9116 -0.7460 -0.9503
   36CHL1   C24 2652   3.285   3.062   8.070 -0.1604 -0.5222 -0.7766
   36CHL1  H24A 2653   3.394   3.042   8.081  0.4883  2.0413 -1.7382
   36CHL1  H24B 2654   3.269   3.168   8.100  0.6131 -1.1506  2.1619
   36CHL1   C25 2655   3.213   2.977   8.180  0.1767 -0.3869  0.0782
   36CHL1   H25 2656   3.108   3.009   8.164  0.4846  0.0291 -1.2665
   36CHL1   C26 2657   3.228   2.821   8.154 -0.1337 -0.2094  0.6813
   36CHL1  H26A 2658   3.334   2.796   8.177  0.3084  2.6103  2.1645
   36CHL1  H26B 2659   3.156   2.771   8.222 -1.7669 -0.8463 -1.4192
   36CHL1  H26C 2660   3.213   2.801   8.046 -0.7021  5.1719 -0.5369
   36CHL1   C27 2661   3.248   3.030   8.318 -0.4731 -0.5434  0.7675
   36CHL1  H27A 2662   3.346   2.986   8.347 -0.1730 -0.4829 -0.1536
   36CHL1  H27B 2663   3.253   3.141   8.325  0.6028 -0.6539  2.6485
   36CHL1  H27C 2664   3.180   3.004   8.402  0.9752 -2.5616  1.3968
   37CHL1    C3 2665   6.034   6.536   6.664  0.9087 -0.7451  0.0578
   37CHL1    H3 2666   6.123   6.471   6.653 -0.8752 -3.3698  0.2786
   37CHL1    O3 2667   5.991   6.576   6.533  0.1591  0.4820 -0.2501
   37CHL1   H3' 2668   5.915   6.633   6.545 -0.3417 -0.3198  0.4290
   37CHL1    C4 2669   5.928   6.457   6.739 -0.0258  0.6688 -0.0929
   37CHL1   H4A 2670   5.830   6.506   6.753  0.3842  0.8094  3.0088
   37CHL1   H4B 2671   5.902   6.363   6.685 -0.8224 -0.8224  2.6861
   37CHL1    C5 2672   5.964   6.439   6.882 -0.1124 -0.2189  0.5195
   37CHL1    C6 2673   5.960   6.309   6.934  0.7874  0.1251 -0.2975
   37CHL1    H6 2674   5.941   6.222   6.868 -0.8618  0.2827 -0.0875
   37CHL1    C7 2675   5.967   6.293   7.091 -0.1733 -0.8190  0.0030
   37CHL1   H7A 2676   5.896   6.215   7.126 -2.1696 -0.1730 -2.3529
   37CHL1   H7B 2677   6.064   6.252   7.125 -0.1180 -2.3487 -1.8172
   37CHL1    C8 2678   5.954   6.423   7.178  0.0694 -0.4974  0.2764
   37CHL1    H8 2679   5.845   6.447   7.182  0.4036  1.2185  0.0515
   37CHL1   C14 2680   6.008   6.396   7.317 -0.1529  0.0705  0.8799
   37CHL1   H14 2681   6.117   6.383   7.298 -0.6577 -2.3976 -0.9490
   37CHL1   C15 2682   5.957   6.274   7.400 -0.2580  0.2592  0.2432
   37CHL1  H15A 2683   5.848   6.262   7.385 -0.3463  0.2391  0.8838
   37CHL1  H15B 2684   6.016   6.184   7.373 -0.1455  0.2396  0.5507
   37CHL1   C16 2685   5.980   6.315   7.540  0.3166 -0.7088 -0.7768
   37CHL1  H16A 2686   5.890   6.318   7.605  2.1226  3.0068  1.9287
   37CHL1  H16B 2687   6.059   6.250   7.585 -1.5850 -1.9608  0.9333
   37CHL1   C17 2688   6.037   6.465   7.542  0.1723  0.3945 -0.3578
   37CHL1   H17 2689   6.147   6.456   7.543  0.0574 -1.5542 -0.1707
   37CHL1   C13 2690   5.999   6.521   7.405  0.1774 -0.7180  0.9446
   37CHL1   C18 2691   5.850   6.571   7.412 -0.1854 -0.1281  0.2298
   37CHL1  H18A 2692   5.809   6.605   7.315 -0.3858  2.0325  1.0119
   37CHL1  H18B 2693   5.781   6.492   7.448 -1.9951  1.1912 -0.1957
   37CHL1  H18C 2694   5.823   6.658   7.476 -4.7185  0.1005 -1.6004
   37CHL1   C12 2695   6.087   6.629   7.341  0.1229 -0.2990  0.3482
   37CHL1  H12A 2696   6.092   6.725   7.397 -1.3757  0.6632 -1.0944
   37CHL1  H12B 2697   6.194   6.600   7.340  1.5011  4.0928 -1.1124
   37CHL1   C11 2698   6.033   6.665   7.198 -0.2535 -0.2399 -0.4406
   37CHL1  H11A 2699   5.942   6.726   7.216  0.3751  0.4723  0.4144
   37CHL1  H11B 2700   6.110   6.740   7.169 -2.7523  3.1577  0.9685
   37CHL1    C9 2701   6.032   6.539   7.109  0.4645  0.0484  0.2181
   37CHL1    H9 2702   6.138   6.507   7.099  0.3542 -1.4274  2.7697
   37CHL1   C10 2703   5.987   6.567   6.961  0.3370  0.8336 -0.3506
   37CHL1   C19 2704   5.860   6.660   6.974  0.1380 -1.1666  0.3452
   37CHL1  H19A 2705   5.792   6.608   7.045  1.1599 -0.9468  1.5224
   37CHL1  H19B 2706   5.896   6.755   7.018  2.7105 -1.8937  0.0107
   37CHL1  H19C 2707   5.808   6.680   6.878 -0.7573 -2.6348  0.4861
   37CHL1    C1 2708   6.103   6.645   6.894  0.3150 -0.2316  0.4248
   37CHL1   H1A 2709   6.108   6.747   6.937  0.9557  0.5353 -1.3720
   37CHL1   H1B 2710   6.201   6.592   6.903 -0.4060 -1.8402 -0.6717
   37CHL1    C2 2711   6.073   6.662   6.739 -0.0839 -0.1365 -0.4828
   37CHL1   H2A 2712   6.162   6.706   6.689  0.8232 -0.4341  0.8244
   37CHL1   H2B 2713   5.986   6.731   6.737 -1.6404 -2.0480 -1.6517
   37CHL1   C20 2714   5.999   6.541   7.669 -0.3252 -0.7011  0.1833
   37CHL1   H20 2715   5.888   6.552   7.663 -0.0606  2.3769 -1.1230
   37CHL1   C21 2716   6.057   6.691   7.658  0.3423 -0.4899  0.1678
   37CHL1  H21A 2717   6.001   6.754   7.586 -1.7927 -1.9341  0.4726
   37CHL1  H21B 2718   6.161   6.674   7.622 -0.3677 -2.1854 -1.2691
   37CHL1  H21C 2719   6.061   6.737   7.759 -0.9565 -3.9915  1.9900
   37CHL1   C22 2720   6.048   6.475   7.803  0.1587 -0.0302  0.0896
   37CHL1  H22A 2721   6.004   6.518   7.895 -0.0531 -1.7711  0.8390
   37CHL1  H22B 2722   5.997   6.376   7.795 -3.8021  1.9182 -2.4031
   37CHL1   C23 2723   6.196   6.452   7.822  0.0570 -0.0368 -0.0625
   37CHL1  H23A 2724   6.241   6.370   7.761  0.5125 -0.4262  0.7891
   37CHL1  H23B 2725   6.245   6.549   7.803 -0.5183  0.0449 -1.2373
   37CHL1   C24 2726   6.223   6.411   7.958  0.1726  0.0769 -0.5599
   37CHL1  H24A 2727   6.173   6.316   7.988 -0.7650  0.6916 -0.1238
   37CHL1  H24B 2728   6.330   6.382   7.967  0.5591  1.3751 -0.6881
   37CHL1   C25 2729   6.209   6.508   8.074  0.6308 -0.3780  0.1523
   37CHL1   H25 2730   6.107   6.551   8.081  1.2107  0.9464  0.8916
   37CHL1   C26 2731   6.209   6.442   8.211  0.3189  0.1440 -0.2427
   37CHL1  H26A 2732   6.202   6.513   8.297  2.0836 -0.7016  0.6472
   37CHL1  H26B 2733   6.121   6.375   8.221  0.8555 -0.8482 -1.8938
   37CHL1  H26C 2734   6.302   6.382   8.218 -0.4925 -1.1056  0.2190
   37CHL1   C27 2735   6.300   6.637   8.077  0.1890 -0.0251  1.0147
   37CHL1  H27A 2736   6.286   6.678   7.975  0.1841 -1.5850  0.3597
   37CHL1  H27B 2737   6.265   6.704   8.159 -4.7413 -3.0504  1.8358
   37CHL1  H27C 2738   6.405   6.601   8.086  0.0482 -1.5264 -2.0207
   38CHL1    C3 2739   2.909   6.392   6.655 -0.7462  0.4244 -0.4517
   38CHL1    H3 2740   2.989   6.317   6.675 -1.3638  0.1623  1.2360
   38CHL1    O3 2741   2.844   6.391   6.532 -0.0878  0.4252  0.1170
   38CHL1   H3' 2742   2.787   6.468   6.538  0.1248  0.4699  1.8249
   38CHL1    C4 2743   2.800   6.382   6.763  0.0210 -0.0585  0.7146
   38CHL1   H4A 2744   2.725   6.463   6.748 -0.4460 -0.0698  2.7599
   38CHL1   H4B 2745   2.740   6.290   6.750  0.5455 -0.2480 -0.5640
   38CHL1    C5 2746   2.844   6.398   6.904  0.4085  0.5943 -0.3079
   38CHL1    C6 2747   2.829   6.299   6.996  0.1382 -0.6047 -0.3284
   38CHL1    H6 2748   2.784   6.203   6.967  0.9988 -1.3671  0.7805
   38CHL1    C7 2749   2.859   6.317   7.142 -0.0491  0.8931  0.0172
   38CHL1   H7A 2750   2.778   6.282   7.210  2.6789 -0.6584  2.7443
   38CHL1   H7B 2751   2.946   6.247   7.151 -1.6019 -1.1075  0.2507
   38CHL1    C8 2752   2.886   6.460   7.184 -0.2545  0.5106 -0.0551
   38CHL1    H8 2753   2.788   6.508   7.199  0.0107  0.6239  1.4796
   38CHL1   C14 2754   2.959   6.458   7.315  0.7198 -0.0280 -0.1467
   38CHL1   H14 2755   3.056   6.407   7.292 -1.0288 -3.3192 -0.8333
   38CHL1   C15 2756   2.893   6.394   7.437 -0.0633  0.3293 -0.4752
   38CHL1  H15A 2757   2.787   6.427   7.439 -0.4393 -0.8174  1.7087
   38CHL1  H15B 2758   2.902   6.287   7.412  1.4713  1.0619 -3.6175
   38CHL1   C16 2759   2.969   6.439   7.560 -0.3275 -0.4574 -0.4401
   38CHL1  H16A 2760   2.907   6.478   7.644 -0.4523 -1.6758  0.0538
   38CHL1  H16B 2761   3.030   6.354   7.599 -0.9921 -0.3453  0.9113
   38CHL1   C17 2762   3.062   6.551   7.495 -0.1420  0.5772 -0.8237
   38CHL1   H17 2763   3.157   6.503   7.463 -0.1769  0.2037 -0.3788
   38CHL1   C13 2764   2.995   6.598   7.373 -0.1103 -0.1617 -0.6882
   38CHL1   C18 2765   2.870   6.687   7.417 -0.0032 -0.0688  0.7150
   38CHL1  H18A 2766   2.815   6.639   7.501 -3.1065 -0.5769 -1.4316
   38CHL1  H18B 2767   2.902   6.789   7.447 -1.1111  0.5123 -0.0377
   38CHL1  H18C 2768   2.797   6.699   7.335  1.3575  2.1764 -0.2512
   38CHL1   C12 2769   3.081   6.661   7.268  0.8480 -0.4875 -0.4525
   38CHL1  H12A 2770   3.100   6.767   7.296 -0.5900 -0.0099 -1.1649
   38CHL1  H12B 2771   3.186   6.625   7.261  0.9375 -0.3383  0.0711
   38CHL1   C11 2772   3.009   6.676   7.132 -1.0675  0.1862 -0.1870
   38CHL1  H11A 2773   2.912   6.726   7.149 -1.2160 -0.4649  0.9794
   38CHL1  H11B 2774   3.072   6.736   7.063 -0.3063  1.9006  1.8888
   38CHL1    C9 2775   2.970   6.538   7.074  0.1602  0.5395  0.5957
   38CHL1    H9 2776   3.064   6.481   7.058  0.0160  0.4197  0.1704
   38CHL1   C10 2777   2.907   6.532   6.930  0.0822  0.2267  0.8747
   38CHL1   C19 2778   2.803   6.649   6.908  0.5631 -0.0992 -0.8642
   38CHL1  H19A 2779   2.708   6.633   6.962  0.1853  1.3196 -1.0674
   38CHL1  H19B 2780   2.853   6.744   6.938  0.0872  0.3047 -1.3203
   38CHL1  H19C 2781   2.757   6.673   6.809  1.8379  1.7054 -1.0823
   38CHL1    C1 2782   3.015   6.557   6.818  0.0204 -0.5224 -0.6590
   38CHL1   H1A 2783   3.054   6.661   6.826  3.1709 -1.5391 -1.5448
   38CHL1   H1B 2784   3.109   6.502   6.839  0.9404  0.9369 -0.8227
   38CHL1    C2 2785   2.977   6.531   6.672  0.1395  0.1187 -0.2930
   38CHL1   H2A 2786   3.067   6.534   6.607  0.1312 -0.8226 -0.3684
   38CHL1   H2B 2787   2.901   6.609   6.649 -1.2359 -0.6040  1.4964
   38CHL1   C20 2788   3.118   6.654   7.599 -0.1983  0.4941  0.8923
   38CHL1   H20 2789   3.042   6.733   7.613  0.4663  0.9879  1.7716
   38CHL1   C21 2790   3.248   6.708   7.544 -0.0087  0.0761  0.5054
   38CHL1  H21A 2791   3.292   6.762   7.630 -0.4651 -0.1879  0.9075
   38CHL1  H21B 2792   3.235   6.773   7.454 -0.2003  0.6824  0.9663
   38CHL1  H21C 2793   3.320   6.632   7.509 -0.3649 -0.4270  0.8556
   38CHL1   C22 2794   3.139   6.582   7.734 -0.2733  0.3673  0.1661
   38CHL1  H22A 2795   3.050   6.523   7.763 -0.2380  0.3090  0.1565
   38CHL1  H22B 2796   3.233   6.525   7.720  0.1440  0.6008  1.7318
   38CHL1   C23 2797   3.168   6.668   7.857 -0.3103  0.4341  0.0791
   38CHL1  H23A 2798   3.197   6.599   7.939 -3.6955  0.6678  1.6236
   38CHL1  H23B 2799   3.255   6.737   7.849  1.0318 -1.0228  1.2774
   38CHL1   C24 2800   3.044   6.747   7.909 -0.1697  0.3565 -0.2002
   38CHL1  H24A 2801   2.989   6.777   7.817 -1.3390  0.7476  0.6080
   38CHL1  H24B 2802   2.974   6.678   7.960  0.3490 -0.5120 -0.6405
   38CHL1   C25 2803   3.087   6.873   7.985 -0.9064 -0.3055 -0.4241
   38CHL1   H25 2804   3.161   6.847   8.063  2.3065 -0.1782 -3.2030
   38CHL1   C26 2805   3.165   6.980   7.897  0.5880  0.4612  0.2484
   38CHL1  H26A 2806   3.181   7.069   7.961  0.1549  1.0546 -0.4623
   38CHL1  H26B 2807   3.260   6.928   7.874  0.1125 -0.8362  1.0584
   38CHL1  H26C 2808   3.109   7.005   7.804  0.7407  0.1978  0.0850
   38CHL1   C27 2809   2.968   6.944   8.058 -0.6356  0.5338 -0.1755
   38CHL1  H27A 2810   2.892   6.973   7.982 -0.3839  1.1084 -0.2115
   38CHL1  H27B 2811   2.910   6.874   8.123  0.6393 -0.7416 -0.3582
   38CHL1  H27C 2812   3.011   7.031   8.111  1.4733 -1.4053  1.5335
   39CHL1    C3 2813   2.770   5.561   6.704 -0.3313  0.5904 -0.3669
   39CHL1    H3 2814   2.726   5.662   6.688 -1.7968 -0.3613 -3.0660
   39CHL1    O3 2815   2.766   5.498   6.580 -0.0382 -0.8137 -0.1004
   39CHL1   H3' 2816   2.682   5.528   6.545 -0.6620  0.4266  2.2215
   39CHL1    C4 2817   2.914   5.552   6.768 -0.7392 -0.4722 -0.2699
   39CHL1   H4A 2818   2.948   5.448   6.753 -1.0266 -0.6980  0.5870
   39CHL1   H4B 2819   2.971   5.628   6.710 -0.1395  1.5648  2.7218
   39CHL1    C5 2820   2.923   5.575   6.918  0.3884  0.0521 -0.0900
   39CHL1    C6 2821   3.018   5.656   6.965  0.5774  0.5919 -0.1894
   39CHL1    H6 2822   3.091   5.705   6.900  0.7512 -1.3302 -1.5100
   39CHL1    C7 2823   3.042   5.662   7.110 -0.0634 -0.4426 -0.1708
   39CHL1   H7A 2824   3.150   5.669   7.131 -0.4693  0.5984  1.8741
   39CHL1   H7B 2825   3.003   5.763   7.138  1.6790  0.3905 -0.6351
   39CHL1    C8 2826   2.971   5.548   7.196  0.0338 -0.6608 -0.2254
   39CHL1    H8 2827   3.028   5.454   7.183  2.3669  0.5996  0.3441
   39CHL1   C14 2828   2.965   5.584   7.343 -0.0050  0.2338  0.1196
   39CHL1   H14 2829   2.913   5.682   7.353 -0.9429 -0.2528  0.1574
   39CHL1   C15 2830   3.104   5.596   7.409  0.1251  1.0102  0.5060
   39CHL1  H15A 2831   3.162   5.502   7.396 -3.5388 -1.7119  1.9968
   39CHL1  H15B 2832   3.173   5.674   7.369  1.1592  1.9072  3.7334
   39CHL1   C16 2833   3.062   5.617   7.558 -0.3302  0.0330  0.2899
   39CHL1  H16A 2834   3.139   5.568   7.621 -0.9331 -1.8748 -0.3633
   39CHL1  H16B 2835   3.060   5.726   7.580  0.8118  0.1391 -0.0584
   39CHL1   C17 2836   2.919   5.551   7.565  0.3489  0.5099 -0.2606
   39CHL1   H17 2837   2.845   5.632   7.582  0.6697  0.8494 -0.4884
   39CHL1   C13 2838   2.879   5.496   7.429 -1.0362  0.1746 -0.0639
   39CHL1   C18 2839   2.938   5.352   7.420 -0.3407 -0.2690 -0.0756
   39CHL1  H18A 2840   3.038   5.333   7.465 -0.4301 -2.7065 -0.7260
   39CHL1  H18B 2841   2.859   5.296   7.475 -0.4037  0.5394  0.6652
   39CHL1  H18C 2842   2.938   5.304   7.320 -0.4062 -2.3784  0.8643
   39CHL1   C12 2843   2.727   5.503   7.384 -0.6555 -0.2246 -0.0941
   39CHL1  H12A 2844   2.645   5.463   7.447  0.4936 -1.8329  0.4415
   39CHL1  H12B 2845   2.704   5.611   7.371 -1.0458 -0.4731 -1.7046
   39CHL1   C11 2846   2.722   5.458   7.238 -0.2138 -0.5945  0.2625
   39CHL1  H11A 2847   2.736   5.349   7.226  1.4940 -0.3581 -0.2707
   39CHL1  H11B 2848   2.616   5.475   7.211 -0.2102 -0.8334  0.1030
   39CHL1    C9 2849   2.820   5.535   7.145  0.2780 -0.0823 -0.0832
   39CHL1    H9 2850   2.790   5.642   7.145 -0.6353 -0.3305 -0.4170
   39CHL1   C10 2851   2.814   5.495   6.993  0.3264 -0.3960  0.8184
   39CHL1   C19 2852   2.831   5.345   6.987  0.4267  0.0379 -0.6573
   39CHL1  H19A 2853   2.749   5.285   7.032  0.6834 -1.1445 -1.7377
   39CHL1  H19B 2854   2.847   5.312   6.882  2.2092  0.5758 -0.5824
   39CHL1  H19C 2855   2.922   5.308   7.038  1.2802 -1.7094 -3.2692
   39CHL1    C1 2856   2.670   5.512   6.939 -0.0069 -1.1974  0.3138
   39CHL1   H1A 2857   2.601   5.448   6.999 -1.1492 -1.2654 -1.0222
   39CHL1   H1B 2858   2.642   5.619   6.952  0.5282 -0.9795 -0.2853
   39CHL1    C2 2859   2.661   5.484   6.784 -0.2515  0.2381 -0.1891
   39CHL1   H2A 2860   2.557   5.511   6.758  0.4104  0.6022 -2.7013
   39CHL1   H2B 2861   2.669   5.376   6.759  2.7148  0.5530 -1.0013
   39CHL1   C20 2862   2.906   5.471   7.696 -0.4560  0.7611 -0.0215
   39CHL1   H20 2863   2.963   5.375   7.688 -1.3336  0.3429 -1.6308
   39CHL1   C21 2864   2.758   5.436   7.712  0.2680  0.0103 -0.5754
   39CHL1  H21A 2865   2.745   5.361   7.793  1.3460 -0.7814 -1.0948
   39CHL1  H21B 2866   2.729   5.363   7.633 -0.8030 -0.6130  0.3689
   39CHL1  H21C 2867   2.688   5.522   7.715 -2.7447 -2.1938 -2.3069
   39CHL1   C22 2868   2.955   5.539   7.822 -0.2170  0.0035 -0.4922
   39CHL1  H22A 2869   3.062   5.565   7.809 -0.6125  2.7289  0.9508
   39CHL1  H22B 2870   2.901   5.633   7.847 -0.9251 -0.4901 -0.1159
   39CHL1   C23 2871   2.958   5.444   7.946 -0.5353 -0.0197  0.0439
   39CHL1  H23A 2872   2.859   5.432   7.994 -1.1696 -0.6905 -1.3498
   39CHL1  H23B 2873   2.990   5.341   7.917  0.3414 -0.1623  1.4054
   39CHL1   C24 2874   3.072   5.481   8.046  0.0198 -0.2234 -0.0481
   39CHL1  H24A 2875   3.168   5.487   7.991 -0.6256  1.4663 -1.0632
   39CHL1  H24B 2876   3.041   5.580   8.085  0.9674  0.6143 -1.3237
   39CHL1   C25 2877   3.084   5.379   8.156 -0.2317  0.7993  0.0440
   39CHL1   H25 2878   2.983   5.334   8.173 -0.7877  2.0470  0.1661
   39CHL1   C26 2879   3.179   5.266   8.106  0.3890 -0.6402 -0.6110
   39CHL1  H26A 2880   3.192   5.184   8.180  1.7075 -1.1913 -1.4230
   39CHL1  H26B 2881   3.135   5.214   8.018 -0.0855 -1.6727  0.2077
   39CHL1  H26C 2882   3.281   5.306   8.087 -0.4005  1.2604 -1.0940
   39CHL1   C27 2883   3.154   5.448   8.273  0.2780  0.0545  0.0266
   39CHL1  H27A 2884   3.080   5.495   8.341 -2.4357 -2.6007 -0.8795
   39CHL1  H27B 2885   3.198   5.367   8.335 -0.5943 -1.1684 -0.8999
   39CHL1  H27C 2886   3.230   5.525   8.248 -0.8130  0.9014 -0.7480
   40CHL1    C3 2887   4.397   4.318   6.995 -0.2934  0.0713  0.0873
   40CHL1    H3 2888   4.362   4.421   7.014 -0.1027  0.4470 -1.4564
   40CHL1    O3 2889   4.425   4.300   6.857  0.0107  0.6409 -0.4942
   40CHL1   H3' 2890   4.460   4.211   6.852 -1.0745  0.1612  0.1058
   40CHL1    C4 2891   4.527   4.302   7.078 -0.4850 -0.2963 -0.1268
   40CHL1   H4A 2892   4.554   4.195   7.066  0.4868 -0.0426 -0.3097
   40CHL1   H4B 2893   4.619   4.348   7.034 -0.4925 -1.0210 -0.9418
   40CHL1    C5 2894   4.499   4.335   7.224 -0.2052 -0.7025 -0.3800
   40CHL1    C6 2895   4.560   4.430   7.293  0.0298  0.1756  0.1447
   40CHL1    H6 2896   4.638   4.486   7.239  0.5994  1.0441  1.7863
   40CHL1    C7 2897   4.536   4.444   7.440  0.2885 -0.2343 -0.2873
   40CHL1   H7A 2898   4.637   4.456   7.483 -0.0875  1.2177  0.2392
   40CHL1   H7B 2899   4.474   4.535   7.450 -0.5140 -0.3737 -3.0560
   40CHL1    C8 2900   4.476   4.319   7.510 -0.0236 -0.2890  0.1886
   40CHL1    H8 2901   4.556   4.242   7.513 -0.2352 -0.5391 -0.3350
   40CHL1   C14 2902   4.429   4.352   7.651  0.1987 -0.3164 -0.3081
   40CHL1   H14 2903   4.368   4.445   7.651  1.1635  0.3350 -0.2200
   40CHL1   C15 2904   4.535   4.390   7.756 -0.3084 -0.2677 -0.3798
   40CHL1  H15A 2905   4.620   4.319   7.755  0.0036  0.1048 -1.6336
   40CHL1  H15B 2906   4.571   4.494   7.738  1.3211 -0.2178  2.5762
   40CHL1   C16 2907   4.467   4.371   7.890  0.4104 -0.2966 -0.4833
   40CHL1  H16A 2908   4.525   4.303   7.956 -1.4902 -1.9295 -0.3666
   40CHL1  H16B 2909   4.468   4.463   7.953 -0.5684 -1.0519  0.6873
   40CHL1   C17 2910   4.321   4.320   7.856 -0.2330 -0.2038  0.4972
   40CHL1   H17 2911   4.271   4.416   7.829  1.3745  0.3124 -0.8154
   40CHL1   C13 2912   4.345   4.245   7.721  0.4385  0.2895 -0.7487
   40CHL1   C18 2913   4.430   4.115   7.739 -0.2339 -0.1857 -0.2008
   40CHL1  H18A 2914   4.524   4.134   7.795  0.9254 -0.0491 -2.1163
   40CHL1  H18B 2915   4.372   4.041   7.799 -2.0511  0.3730 -1.1967
   40CHL1  H18C 2916   4.469   4.077   7.642  4.9749 -0.1531  1.5823
   40CHL1   C12 2917   4.214   4.224   7.643  0.7734 -0.1123 -0.0985
   40CHL1  H12A 2918   4.159   4.138   7.687 -0.6748 -0.6377 -2.7363
   40CHL1  H12B 2919   4.155   4.318   7.629  0.8367 -0.2224 -1.2361
   40CHL1   C11 2920   4.246   4.179   7.504 -0.1262 -0.1127 -0.2455
   40CHL1  H11A 2921   4.293   4.078   7.496 -0.3993 -0.2609 -0.0312
   40CHL1  H11B 2922   4.151   4.163   7.448 -0.5247 -1.0242  0.6429
   40CHL1    C9 2923   4.349   4.279   7.425  0.4000  1.0527  0.2115
   40CHL1    H9 2924   4.289   4.372   7.420 -1.1743  0.1043  0.7073
   40CHL1   C10 2925   4.396   4.229   7.278  0.7402  0.3915 -0.2316
   40CHL1   C19 2926   4.457   4.091   7.296  0.0053 -0.0456  0.0657
   40CHL1  H19A 2927   4.385   4.007   7.295  2.0267 -1.8768 -1.4602
   40CHL1  H19B 2928   4.535   4.067   7.220  1.9762  2.3428  1.1889
   40CHL1  H19C 2929   4.505   4.078   7.396 -1.5989 -0.2102  0.8461
   40CHL1    C1 2930   4.266   4.232   7.188  0.0685  0.2500 -0.1299
   40CHL1   H1A 2931   4.194   4.153   7.220  0.3308  0.5275  1.1935
   40CHL1   H1B 2932   4.217   4.330   7.201  2.4276  1.7556 -1.7320
   40CHL1    C2 2933   4.285   4.223   7.038  0.1347  0.3196  0.2969
   40CHL1   H2A 2934   4.202   4.251   6.970  1.6636 -2.8933 -3.2571
   40CHL1   H2B 2935   4.310   4.116   7.018  0.1244  0.5359 -0.9573
   40CHL1   C20 2936   4.246   4.250   7.967  0.0828 -0.4254 -0.8430
   40CHL1   H20 2937   4.179   4.172   7.923 -1.1407 -0.3267  0.7683
   40CHL1   C21 2938   4.152   4.353   8.036  0.1964 -0.0245  0.5201
   40CHL1  H21A 2939   4.213   4.435   8.079 -1.7094 -0.1490  3.7511
   40CHL1  H21B 2940   4.085   4.310   8.113 -1.6629  0.0976 -0.9359
   40CHL1  H21C 2941   4.080   4.408   7.972  1.3693  0.4410 -0.4340
   40CHL1   C22 2942   4.329   4.179   8.072  0.2060  0.3979 -0.4344
   40CHL1  H22A 2943   4.388   4.097   8.025  0.2386  0.5186 -0.6049
   40CHL1  H22B 2944   4.405   4.245   8.119  1.6201 -1.8736  0.6508
   40CHL1   C23 2945   4.238   4.100   8.180 -0.4491 -0.2419 -0.1154
   40CHL1  H23A 2946   4.166   4.165   8.234  1.8732  0.9883  1.6643
   40CHL1  H23B 2947   4.176   4.022   8.129 -1.4454  0.7255 -0.4198
   40CHL1   C24 2948   4.330   4.047   8.292 -0.1480  0.5507 -0.0905
   40CHL1  H24A 2949   4.401   3.975   8.247  0.8024 -0.6683  3.1065
   40CHL1  H24B 2950   4.386   4.132   8.338  0.5096  0.3527 -0.5000
   40CHL1   C25 2951   4.250   3.971   8.395  0.0743  0.0426  0.1695
   40CHL1   H25 2952   4.190   3.892   8.344  1.6955 -1.3082  0.2586
   40CHL1   C26 2953   4.341   3.892   8.486 -0.7286  0.4179 -0.5800
   40CHL1  H26A 2954   4.415   3.840   8.421  1.3594  1.3851  0.9024
   40CHL1  H26B 2955   4.396   3.951   8.562 -1.3032 -0.2747  0.4023
   40CHL1  H26C 2956   4.283   3.821   8.549 -1.3760  0.1462 -1.4620
   40CHL1   C27 2957   4.152   4.061   8.475  0.0986  0.4248  0.7161
   40CHL1  H27A 2958   4.078   4.097   8.400 -1.4953  0.4503  2.2640
   40CHL1  H27B 2959   4.108   4.005   8.559 -4.0356  0.7449 -1.0059
   40CHL1  H27C 2960   4.190   4.158   8.515 -0.8016  1.1121 -0.0367
   41CHL1    C3 2961   5.724   4.530   6.957 -0.4843  0.1772 -0.6980
   41CHL1    H3 2962   5.815   4.578   6.999 -0.8204 -0.9931  1.4914
   41CHL1    O3 2963   5.720   4.539   6.811 -0.5422  0.6752 -0.0945
   41CHL1   H3' 2964   5.805   4.508   6.779 -1.3259  0.5000 -2.1472
   41CHL1    C4 2965   5.727   4.381   7.005  0.1810  0.1452  0.2259
   41CHL1   H4A 2966   5.663   4.325   6.933  1.1865  0.6327 -1.0880
   41CHL1   H4B 2967   5.830   4.357   6.972 -0.1441 -0.6072 -0.2632
   41CHL1    C5 2968   5.707   4.353   7.151  0.1130 -0.0289  0.5907
   41CHL1    C6 2969   5.788   4.271   7.218  0.1946 -0.2457 -0.1462
   41CHL1    H6 2970   5.866   4.218   7.161 -1.1734 -0.9497 -1.4169
   41CHL1    C7 2971   5.777   4.249   7.372  0.7346 -0.4405  0.5024
   41CHL1   H7A 2972   5.781   4.144   7.407  0.3417 -0.3662  0.7788
   41CHL1   H7B 2973   5.867   4.300   7.411 -0.1218  0.6335  1.1571
   41CHL1    C8 2974   5.645   4.306   7.437  0.4168 -0.6567 -0.7826
   41CHL1    H8 2975   5.563   4.231   7.429 -0.1369 -0.0422 -0.9525
   41CHL1   C14 2976   5.657   4.335   7.586  0.9776  0.4931  0.3660
   41CHL1   H14 2977   5.730   4.417   7.598 -0.1648  1.9432 -1.8575
   41CHL1   C15 2978   5.716   4.221   7.671 -0.2596 -0.0886 -0.2851
   41CHL1  H15A 2979   5.659   4.130   7.642 -2.7928  1.0469  0.8341
   41CHL1  H15B 2980   5.823   4.203   7.647 -0.7969 -1.3416 -1.9781
   41CHL1   C16 2981   5.672   4.270   7.812 -0.2697  0.6069 -0.3615
   41CHL1  H16A 2982   5.616   4.187   7.861  0.0137  1.8539  2.3032
   41CHL1  H16B 2983   5.767   4.291   7.867 -0.8891  0.0424  0.9884
   41CHL1   C17 2984   5.578   4.395   7.799 -0.2037  0.2950 -0.6392
   41CHL1   H17 2985   5.642   4.485   7.814 -0.2199 -0.0387  2.0840
   41CHL1   C13 2986   5.525   4.384   7.654  0.4772  0.1106 -0.5429
   41CHL1   C18 2987   5.411   4.282   7.638 -0.6810 -0.2797  0.0371
   41CHL1  H18A 2988   5.454   4.186   7.674  1.0960  0.2665 -0.5202
   41CHL1  H18B 2989   5.331   4.313   7.709 -0.3083 -0.1756  0.4197
   41CHL1  H18C 2990   5.377   4.271   7.533  0.6310  0.4788 -0.4916
   41CHL1   C12 2991   5.488   4.521   7.599 -0.2900 -0.4718  0.7076
   41CHL1  H12A 2992   5.397   4.571   7.638 -0.0512  2.2806 -1.9068
   41CHL1  H12B 2993   5.566   4.594   7.630  0.4418 -0.5524 -0.8419
   41CHL1   C11 2994   5.481   4.516   7.441 -0.2506  0.0293 -0.0176
   41CHL1  H11A 2995   5.385   4.464   7.423 -2.0331  2.2621  2.2021
   41CHL1  H11B 2996   5.464   4.618   7.399  0.8925 -0.6325 -2.2690
   41CHL1    C9 2997   5.604   4.441   7.369  0.2964  0.0040  0.3752
   41CHL1    H9 2998   5.695   4.503   7.388  0.1354  0.0836  0.9321
   41CHL1   C10 2999   5.588   4.436   7.215 -0.4732 -0.1176 -0.3626
   41CHL1   C19 3000   5.462   4.354   7.182 -0.1175  0.5636 -0.4814
   41CHL1  H19A 3001   5.445   4.344   7.073 -0.7026 -0.5132 -0.3052
   41CHL1  H19B 3002   5.460   4.254   7.230 -1.4097  1.3726  1.2715
   41CHL1  H19C 3003   5.375   4.414   7.218 -0.3346  1.3252 -2.1962
   41CHL1    C1 3004   5.573   4.580   7.156  0.1780 -0.4172  0.0485
   41CHL1   H1A 3005   5.472   4.618   7.183 -0.5720 -1.5160 -1.1304
   41CHL1   H1B 3006   5.641   4.648   7.214  1.2265  1.0989 -2.7634
   41CHL1    C2 3007   5.598   4.606   7.007  0.2314  0.4364  0.2454
   41CHL1   H2A 3008   5.596   4.716   6.987  1.3643  0.1816 -1.5069
   41CHL1   H2B 3009   5.507   4.560   6.965  0.5047 -0.2046  0.3481
   41CHL1   C20 3010   5.481   4.395   7.922 -0.0398 -0.2322  0.2668
   41CHL1   H20 3011   5.417   4.306   7.905  0.1701 -0.2621 -0.4298
   41CHL1   C21 3012   5.393   4.521   7.907 -1.1478  0.1577 -0.1990
   41CHL1  H21A 3013   5.467   4.604   7.898 -1.7519  0.7201 -0.0667
   41CHL1  H21B 3014   5.332   4.537   7.998 -0.4238 -1.2221  0.5580
   41CHL1  H21C 3015   5.330   4.521   7.815 -1.6146 -0.8199  0.1053
   41CHL1   C22 3016   5.546   4.385   8.062 -0.4456  0.3875  0.2040
   41CHL1  H22A 3017   5.617   4.300   8.068  0.9092  1.4613 -0.0874
   41CHL1  H22B 3018   5.615   4.470   8.079 -1.8224  1.2413  1.7639
   41CHL1   C23 3019   5.448   4.371   8.177 -0.7605 -0.6328 -0.4780
   41CHL1  H23A 3020   5.511   4.353   8.266 -1.1595 -0.6286 -0.1905
   41CHL1  H23B 3021   5.402   4.471   8.193 -0.1221 -0.7559  2.6133
   41CHL1   C24 3022   5.342   4.258   8.164  0.0395  0.2410 -0.0022
   41CHL1  H24A 3023   5.261   4.282   8.092 -0.5866  3.3513  1.5986
   41CHL1  H24B 3024   5.389   4.167   8.120  0.1927 -0.3751  1.3909
   41CHL1   C25 3025   5.270   4.220   8.294 -0.4896 -0.4390  0.2391
   41CHL1   H25 3026   5.354   4.224   8.366 -0.5253  0.9323  0.2268
   41CHL1   C26 3027   5.175   4.330   8.320 -0.0833 -0.1270 -0.0007
   41CHL1  H26A 3028   5.144   4.331   8.426  0.1599  1.3843  0.0706
   41CHL1  H26B 3029   5.218   4.428   8.290 -1.5724  0.7723  0.7012
   41CHL1  H26C 3030   5.083   4.328   8.258  0.6805  0.3791 -1.1832
   41CHL1   C27 3031   5.196   4.087   8.278 -0.1052  0.8443  0.6484
   41CHL1  H27A 3032   5.265   4.002   8.254 -0.5785  0.9331 -1.1830
   41CHL1  H27B 3033   5.153   4.064   8.377  1.6478 -0.0748  1.2336
   41CHL1  H27C 3034   5.112   4.093   8.206  0.5041  0.6350 -0.1056
   42CHL1    C3 3035   6.597   1.557   7.012  0.1442  0.0314  0.2879
   42CHL1    H3 3036   6.693   1.504   7.029  0.6371  0.2687 -1.5534
   42CHL1    O3 3037   6.556   1.510   6.890  0.3397  0.2590 -0.0590
   42CHL1   H3' 3038   6.477   1.563   6.881  1.3667  2.3225  2.0178
   42CHL1    C4 3039   6.483   1.521   7.110  0.8899 -0.6774  0.0939
   42CHL1   H4A 3040   6.387   1.566   7.080  1.8689  1.9145  0.5804
   42CHL1   H4B 3041   6.477   1.410   7.103  0.7312 -0.6121 -0.9975
   42CHL1    C5 3042   6.515   1.584   7.246  0.6123 -0.3943  0.4540
   42CHL1    C6 3043   6.512   1.500   7.356  0.5031 -0.2174  0.7121
   42CHL1    H6 3044   6.505   1.391   7.342  1.3744 -0.7131  3.4451
   42CHL1    C7 3045   6.539   1.543   7.496 -0.1444  0.4392 -0.1772
   42CHL1   H7A 3046   6.475   1.492   7.571  1.5174 -2.3846 -0.5105
   42CHL1   H7B 3047   6.644   1.513   7.520  0.1464  0.8536 -0.9174
   42CHL1    C8 3048   6.547   1.698   7.509 -0.0175  0.8446 -0.6819
   42CHL1    H8 3049   6.441   1.731   7.514  0.3364  1.8489  1.0456
   42CHL1   C14 3050   6.621   1.746   7.632  0.1740  0.7211 -0.0468
   42CHL1   H14 3051   6.728   1.723   7.615  0.0398 -0.7292  0.8696
   42CHL1   C15 3052   6.595   1.664   7.760  0.0871  0.0642 -0.7270
   42CHL1  H15A 3053   6.486   1.644   7.770  0.0074  0.9575  0.3890
   42CHL1  H15B 3054   6.643   1.564   7.760 -1.4346 -0.7363  1.4901
   42CHL1   C16 3055   6.643   1.751   7.877 -0.0112 -0.6531  0.3268
   42CHL1  H16A 3056   6.559   1.764   7.948  0.0050  0.2548  0.1902
   42CHL1  H16B 3057   6.731   1.706   7.929  1.1484 -1.5362 -2.2163
   42CHL1   C17 3058   6.681   1.893   7.817 -0.7446 -1.0438  0.6075
   42CHL1   H17 3059   6.791   1.890   7.798 -0.6839  0.0946  0.7040
   42CHL1   C13 3060   6.620   1.896   7.668 -0.7738  0.1874 -0.4317
   42CHL1   C18 3061   6.481   1.943   7.690 -0.1223 -0.1001  0.0281
   42CHL1  H18A 3062   6.420   1.916   7.601 -0.1676 -2.2999  0.6820
   42CHL1  H18B 3063   6.439   1.900   7.783  1.0373 -0.1202  0.5732
   42CHL1  H18C 3064   6.478   2.054   7.699  0.2043 -0.0902  0.0480
   42CHL1   C12 3065   6.690   1.959   7.550 -0.2754 -0.2941 -0.3623
   42CHL1  H12A 3066   6.696   2.069   7.562 -0.5916 -0.5066  2.2034
   42CHL1  H12B 3067   6.799   1.937   7.544  0.0033  0.8905  0.0852
   42CHL1   C11 3068   6.633   1.923   7.414  0.0890  0.2049 -0.6750
   42CHL1  H11A 3069   6.539   1.979   7.393  0.9655  1.4231 -1.5040
   42CHL1  H11B 3070   6.711   1.964   7.345  0.9594  0.5566  0.4801
   42CHL1    C9 3071   6.612   1.769   7.388  0.2973  0.5355  0.1809
   42CHL1    H9 3072   6.712   1.721   7.386 -0.0991 -0.3532  0.9339
   42CHL1   C10 3073   6.554   1.732   7.248 -0.3195  0.5714  0.2160
   42CHL1   C19 3074   6.434   1.828   7.221 -0.1401  0.0138 -0.6227
   42CHL1  H19A 3075   6.363   1.792   7.144  1.0130  1.8958 -2.7009
   42CHL1  H19B 3076   6.376   1.825   7.316 -0.4731 -1.3540 -0.8514
   42CHL1  H19C 3077   6.466   1.933   7.205  0.4522 -0.0281  0.1787
   42CHL1    C1 3078   6.664   1.770   7.142  0.3258  0.5039 -0.5362
   42CHL1   H1A 3079   6.676   1.880   7.133  0.4551  0.7629  2.1142
   42CHL1   H1B 3080   6.760   1.730   7.182  1.0143  2.4597 -0.1524
   42CHL1    C2 3081   6.624   1.708   7.006  0.1234 -0.2796 -0.3825
   42CHL1   H2A 3082   6.710   1.733   6.941  0.8454 -2.0259 -0.1705
   42CHL1   H2B 3083   6.533   1.761   6.973  1.0119  0.8541 -1.0901
   42CHL1   C20 3084   6.648   2.016   7.909  0.3406  0.2385 -0.0670
   42CHL1   H20 3085   6.539   2.039   7.912  0.2303 -0.3240  0.3744
   42CHL1   C21 3086   6.722   2.143   7.842  0.2303 -0.2895 -0.6185
   42CHL1  H21A 3087   6.713   2.229   7.912  0.6432 -1.8545  1.4737
   42CHL1  H21B 3088   6.675   2.179   7.748 -3.3227  0.3798  1.2344
   42CHL1  H21C 3089   6.829   2.122   7.823  0.6485  0.5140  0.7029
   42CHL1   C22 3090   6.692   1.985   8.051  0.1946 -0.5439 -0.3120
   42CHL1  H22A 3091   6.656   1.891   8.097  0.8718  0.4968  2.6195
   42CHL1  H22B 3092   6.801   1.989   8.068 -0.1674 -2.6871  3.7236
   42CHL1   C23 3093   6.652   2.096   8.157 -0.7681  0.4042  0.0164
   42CHL1  H23A 3094   6.696   2.193   8.124  0.7938 -0.3815 -0.3057
   42CHL1  H23B 3095   6.542   2.098   8.140 -0.7301 -1.0927 -0.5182
   42CHL1   C24 3096   6.681   2.070   8.303  0.7066  0.4278 -0.1205
   42CHL1  H24A 3097   6.645   1.969   8.335  1.1746  0.7145  1.4132
   42CHL1  H24B 3098   6.787   2.090   8.330  0.9405  0.9050 -1.3313
   42CHL1   C25 3099   6.609   2.171   8.400  0.8409  0.3954 -0.4572
   42CHL1   H25 3100   6.632   2.149   8.506  2.3149  0.9735 -0.6283
   42CHL1   C26 3101   6.658   2.317   8.384  0.0973  0.0804 -0.0039
   42CHL1  H26A 3102   6.766   2.302   8.362 -0.5624 -2.1091 -2.2018
   42CHL1  H26B 3103   6.620   2.373   8.296  1.2088 -0.6507 -0.9747
   42CHL1  H26C 3104   6.639   2.392   8.464  4.3011  1.2779  0.1206
   42CHL1   C27 3105   6.453   2.167   8.388 -0.6086  0.3090 -0.1542
   42CHL1  H27A 3106   6.417   2.062   8.392 -1.9418  0.7618  0.2299
   42CHL1  H27B 3107   6.421   2.222   8.297  0.5390 -0.7506 -1.2422
   42CHL1  H27C 3108   6.408   2.213   8.478  0.1007 -0.1141  0.4313
   43CHL1    C3 3109   0.602   6.091   6.932  0.4787  0.3829  0.8327
   43CHL1    H3 3110   0.556   5.991   6.918 -0.7226  0.4454  3.6727
   43CHL1    O3 3111   0.626   6.151   6.804 -0.8933  0.2352 -0.3321
   43CHL1   H3' 3112   0.539   6.175   6.769 -1.1224  1.4090  0.9734
   43CHL1    C4 3113   0.526   6.183   7.017  0.8895  0.5423 -0.1108
   43CHL1   H4A 3114   0.589   6.270   7.045 -0.7553  0.8886  3.0418
   43CHL1   H4B 3115   0.445   6.230   6.957  0.8138  0.5898  0.0265
   43CHL1    C5 3116   0.492   6.123   7.150  0.5256  0.4440  0.3717
   43CHL1    C6 3117   0.368   6.118   7.196 -0.7685 -0.3601 -0.5058
   43CHL1    H6 3118   0.292   6.169   7.135 -1.1578 -0.2134  0.0902
   43CHL1    C7 3119   0.334   6.055   7.327  0.4965  0.0876  1.2121
   43CHL1   H7A 3120   0.257   6.115   7.381 -1.4152 -2.5430  1.5543
   43CHL1   H7B 3121   0.276   5.963   7.309  1.0014  0.2598 -2.0046
   43CHL1    C8 3122   0.451   6.025   7.422  0.0286 -0.2179  0.5069
   43CHL1    H8 3123   0.481   6.124   7.463  2.4972 -0.1027 -1.3296
   43CHL1   C14 3124   0.420   5.923   7.526 -0.2068 -0.1008 -0.3474
   43CHL1   H14 3125   0.405   5.823   7.478 -1.3151 -0.6666  1.1083
   43CHL1   C15 3126   0.293   5.945   7.606  0.5415  0.2060  0.1384
   43CHL1  H15A 3127   0.283   6.054   7.627 -0.8130  0.1285 -0.0224
   43CHL1  H15B 3128   0.214   5.915   7.534  0.4507  1.4605 -0.3068
   43CHL1   C16 3129   0.306   5.868   7.731 -0.1217  0.3974 -0.3929
   43CHL1  H16A 3130   0.292   5.931   7.821 -1.2415  1.3184 -1.1735
   43CHL1  H16B 3131   0.236   5.782   7.729  3.0030 -2.3562  0.4031
   43CHL1   C17 3132   0.459   5.824   7.738  0.1611 -0.0595 -0.1567
   43CHL1   H17 3133   0.463   5.726   7.686 -1.1828  1.2728 -2.9798
   43CHL1   C13 3134   0.529   5.916   7.632 -0.4042  0.3252  0.1527
   43CHL1   C18 3135   0.566   6.050   7.697  0.1458  0.7854  0.4026
   43CHL1  H18A 3136   0.648   6.040   7.771  0.4463  0.1800 -0.0131
   43CHL1  H18B 3137   0.595   6.124   7.619  0.0442  0.4534  0.0474
   43CHL1  H18C 3138   0.473   6.081   7.751  0.3361  1.4554  0.3547
   43CHL1   C12 3139   0.657   5.857   7.568 -0.6676  0.3127 -0.1188
   43CHL1  H12A 3140   0.746   5.853   7.635 -1.8900 -2.5545  1.4956
   43CHL1  H12B 3141   0.642   5.752   7.535  0.6129 -0.1718  0.7408
   43CHL1   C11 3142   0.700   5.943   7.439 -0.6912  0.6374  0.6131
   43CHL1  H11A 3143   0.745   6.034   7.484  1.8326  0.0609 -0.5522
   43CHL1  H11B 3144   0.778   5.882   7.387 -1.3010  0.5293 -0.1960
   43CHL1    C9 3145   0.583   5.979   7.346  0.3817 -0.0093  0.1413
   43CHL1    H9 3146   0.555   5.881   7.301  0.6487  0.0719 -0.2060
   43CHL1   C10 3147   0.614   6.071   7.226  0.2435  0.5311  0.3623
   43CHL1   C19 3148   0.690   6.198   7.279 -0.9248 -0.5211  0.3261
   43CHL1  H19A 3149   0.780   6.162   7.333 -0.4988  1.1629  0.7965
   43CHL1  H19B 3150   0.720   6.267   7.197 -4.1600  0.4935 -0.1419
   43CHL1  H19C 3151   0.621   6.262   7.339 -2.0536 -1.3386 -0.0625
   43CHL1    C1 3152   0.707   5.990   7.134  0.0131  0.5640  0.2296
   43CHL1   H1A 3153   0.800   5.956   7.184  1.0913  0.5504 -1.6960
   43CHL1   H1B 3154   0.646   5.899   7.122 -2.1799  1.5755  2.7766
   43CHL1    C2 3155   0.733   6.049   6.999 -0.5200 -0.2677  0.0422
   43CHL1   H2A 3156   0.794   5.993   6.925 -2.0770  1.0299 -2.3877
   43CHL1   H2B 3157   0.799   6.137   7.007  2.7371 -2.6076  1.1078
   43CHL1   C20 3158   0.519   5.826   7.879 -0.1144  0.2294 -0.7851
   43CHL1   H20 3159   0.506   5.919   7.938 -0.9200 -0.3591 -0.0063
   43CHL1   C21 3160   0.669   5.790   7.886  0.4842  0.4925  0.4269
   43CHL1  H21A 3161   0.738   5.862   7.836  0.7929 -0.6637 -0.8557
   43CHL1  H21B 3162   0.689   5.689   7.844  2.8984  0.9959  0.2163
   43CHL1  H21C 3163   0.699   5.784   7.993  1.0585  0.6308  0.2762
   43CHL1   C22 3164   0.437   5.723   7.974 -0.4529  0.6405 -0.0275
   43CHL1  H22A 3165   0.330   5.726   7.942 -0.3116  2.7050 -0.4692
   43CHL1  H22B 3166   0.474   5.621   7.953  0.0414  0.8310 -0.0921
   43CHL1   C23 3167   0.434   5.737   8.129 -0.7886 -0.5601  0.6847
   43CHL1  H23A 3168   0.540   5.729   8.163 -0.3320 -3.0125 -1.0265
   43CHL1  H23B 3169   0.380   5.825   8.168 -0.8620 -0.1425 -0.3188
   43CHL1   C24 3170   0.364   5.612   8.182  0.0322  0.6111 -0.4865
   43CHL1  H24A 3171   0.269   5.599   8.126  2.1274 -1.1564 -3.9916
   43CHL1  H24B 3172   0.417   5.518   8.157  0.4971  1.2420 -2.0026
   43CHL1   C25 3173   0.348   5.610   8.332 -0.5436 -0.1951 -0.5633
   43CHL1   H25 3174   0.326   5.713   8.367  4.2873  0.2066  2.1406
   43CHL1   C26 3175   0.240   5.510   8.382 -0.0507 -0.0130 -0.1616
   43CHL1  H26A 3176   0.254   5.402   8.357 -0.2377 -0.2403  0.6770
   43CHL1  H26B 3177   0.234   5.514   8.493  0.4900  0.5912 -0.1478
   43CHL1  H26C 3178   0.139   5.545   8.351  0.0311  0.2412 -0.1344
   43CHL1   C27 3179   0.484   5.573   8.391  0.2872  0.5268 -0.1916
   43CHL1  H27A 3180   0.481   5.572   8.502  2.8482  0.3931 -0.0540
   43CHL1  H27B 3181   0.532   5.480   8.355 -0.7198  0.6486 -1.9407
   43CHL1  H27C 3182   0.554   5.658   8.374 -2.2571  2.9783  0.8270
   44CHL1    C3 3183   0.060   4.998   6.712  0.0728 -0.3273 -0.1595
   44CHL1    H3 3184  -0.023   4.930   6.739 -0.1370 -0.3110 -0.7374
   44CHL1    O3 3185   0.057   5.039   6.580  0.3734  0.3195 -0.0310
   44CHL1   H3' 3186   0.099   5.124   6.566  0.5419  0.1029 -0.9167
   44CHL1    C4 3187   0.077   5.126   6.798  0.4365 -0.2963  0.3301
   44CHL1   H4A 3188   0.171   5.177   6.769  0.5820  0.0332  1.3409
   44CHL1   H4B 3189  -0.003   5.202   6.786 -0.4015 -0.8249  2.2709
   44CHL1    C5 3190   0.076   5.092   6.942 -0.0351  0.3991  0.0129
   44CHL1    C6 3191  -0.015   5.143   7.028 -0.7887 -0.1793  0.6681
   44CHL1    H6 3192  -0.098   5.192   6.975  0.2192 -0.7892 -1.5739
   44CHL1    C7 3193  -0.023   5.121   7.174 -0.3026  0.1833 -0.3704
   44CHL1   H7A 3194  -0.059   5.215   7.220 -2.6848 -0.1407 -1.3884
   44CHL1   H7B 3195  -0.092   5.043   7.214  0.6693 -0.0932  0.8268
   44CHL1    C8 3196   0.123   5.073   7.226 -0.2250  0.0193 -0.0488
   44CHL1    H8 3197   0.181   5.168   7.219  0.8338 -0.7217 -2.6260
   44CHL1   C14 3198   0.103   5.019   7.369 -0.3455  1.1402  0.4889
   44CHL1   H14 3199   0.030   4.936   7.370  1.2151 -0.3012  1.8167
   44CHL1   C15 3200   0.067   5.122   7.477 -0.1527 -0.0962  0.0476
   44CHL1  H15A 3201   0.113   5.220   7.452 -1.2040  0.0621 -1.4174
   44CHL1  H15B 3202  -0.043   5.139   7.479 -0.4800 -1.9790  1.9070
   44CHL1   C16 3203   0.113   5.056   7.607  0.1362 -0.0283 -0.4826
   44CHL1  H16A 3204   0.183   5.116   7.670 -1.0941  0.3011  0.6135
   44CHL1  H16B 3205   0.018   5.045   7.665  0.1980 -1.0366 -0.5601
   44CHL1   C17 3206   0.183   4.923   7.575  0.1336  0.4290  0.1263
   44CHL1   H17 3207   0.106   4.843   7.572 -0.0751  0.6019  0.7472
   44CHL1   C13 3208   0.229   4.948   7.423  0.8233 -0.7233  0.7298
   44CHL1   C18 3209   0.349   5.045   7.427  0.4152 -0.0236 -0.0291
   44CHL1  H18A 3210   0.432   4.990   7.477  0.6047 -0.5452 -0.8920
   44CHL1  H18B 3211   0.369   5.082   7.324 -0.8892  0.9634  0.0448
   44CHL1  H18C 3212   0.334   5.142   7.478  1.7075  0.6097 -0.8028
   44CHL1   C12 3213   0.258   4.824   7.337 -0.1694 -0.2470  0.5296
   44CHL1  H12A 3214   0.341   4.759   7.373 -1.1346 -1.6252  0.3674
   44CHL1  H12B 3215   0.163   4.769   7.321 -0.2449 -0.1930  0.7790
   44CHL1   C11 3216   0.294   4.874   7.200 -0.5917 -0.8102 -0.1687
   44CHL1  H11A 3217   0.386   4.936   7.204 -0.4338 -1.0959  1.5607
   44CHL1  H11B 3218   0.321   4.785   7.139 -0.1941 -0.6952 -0.1643
   44CHL1    C9 3219   0.178   4.960   7.129 -0.0990 -0.1714 -0.2521
   44CHL1    H9 3220   0.090   4.892   7.121 -0.0139 -0.1149 -2.4127
   44CHL1   C10 3221   0.196   5.009   6.989 -0.1932  0.8873  0.6491
   44CHL1   C19 3222   0.327   5.092   6.980 -0.1322  0.1051 -0.3103
   44CHL1  H19A 3223   0.334   5.177   7.051 -0.4421  0.1355 -0.3159
   44CHL1  H19B 3224   0.416   5.029   7.001  0.2741  0.8661  0.2965
   44CHL1  H19C 3225   0.357   5.120   6.877  2.4202 -2.2706 -0.3582
   44CHL1    C1 3226   0.204   4.887   6.889 -0.0133  0.2264  0.2532
   44CHL1   H1A 3227   0.301   4.834   6.899  0.2526  0.6245 -0.1786
   44CHL1   H1B 3228   0.119   4.815   6.894  0.7418 -1.1518 -3.6092
   44CHL1    C2 3229   0.193   4.923   6.741 -0.2884  0.3482 -0.4774
   44CHL1   H2A 3230   0.198   4.825   6.688 -1.4941  1.0190 -1.8953
   44CHL1   H2B 3231   0.282   4.979   6.707 -1.3630  3.4854  1.4683
   44CHL1   C20 3232   0.283   4.885   7.684  0.1200  0.6041  1.0976
   44CHL1   H20 3233   0.366   4.958   7.670  1.2073 -0.5872  1.1169
   44CHL1   C21 3234   0.357   4.755   7.648 -0.3456  0.6705  0.6212
   44CHL1  H21A 3235   0.418   4.769   7.556  1.3669  0.3500  1.6449
   44CHL1  H21B 3236   0.298   4.661   7.650  0.3758  0.1944  2.8637
   44CHL1  H21C 3237   0.437   4.750   7.725 -0.3059  0.1611  0.5504
   44CHL1   C22 3238   0.226   4.876   7.828 -0.3079  0.4183 -0.5138
   44CHL1  H22A 3239   0.244   4.976   7.873 -0.4995 -0.0660  0.6670
   44CHL1  H22B 3240   0.114   4.876   7.830 -0.3134  1.7408  1.2943
   44CHL1   C23 3241   0.274   4.769   7.927 -0.0920  0.0976  0.1448
   44CHL1  H23A 3242   0.232   4.677   7.882 -1.0449  0.0282  1.1265
   44CHL1  H23B 3243   0.384   4.753   7.923 -0.3013 -1.4345 -0.0350
   44CHL1   C24 3244   0.212   4.800   8.059  0.5104 -0.5962 -0.2152
   44CHL1  H24A 3245   0.247   4.898   8.098 -1.5317 -0.3227  1.1159
   44CHL1  H24B 3246   0.104   4.825   8.047  0.8969  1.4240  0.1969
   44CHL1   C25 3247   0.214   4.686   8.162 -0.0019 -0.3494 -1.2531
   44CHL1   H25 3248   0.164   4.598   8.115  0.2326 -2.2210  1.7169
   44CHL1   C26 3249   0.363   4.652   8.188 -0.6861  0.2874 -0.2153
   44CHL1  H26A 3250   0.380   4.551   8.230  1.9175 -0.1060 -1.9961
   44CHL1  H26B 3251   0.430   4.647   8.099  2.2300 -3.0211  1.8827
   44CHL1  H26C 3252   0.403   4.723   8.264 -0.2354 -1.4077  1.2001
   44CHL1   C27 3253   0.138   4.731   8.298  0.1484  0.1724 -0.4793
   44CHL1  H27A 3254   0.138   4.652   8.376 -0.9746 -1.0310 -1.6398
   44CHL1  H27B 3255   0.186   4.824   8.335  0.1969 -0.0936  0.1437
   44CHL1  H27C 3256   0.036   4.757   8.264  0.4459  1.7351 -0.2303
   45CHL1    C3 3257   1.606   2.518   6.671  0.3072  0.0817 -0.2560
   45CHL1    H3 3258   1.541   2.434   6.640  1.2548 -1.0484  0.7268
   45CHL1    O3 3259   1.645   2.585   6.555  0.1044  0.1866 -0.2759
   45CHL1   H3' 3260   1.688   2.663   6.590 -2.2896  0.5248  2.3123
   45CHL1    C4 3261   1.536   2.617   6.764  0.2198  0.8867  0.2491
   45CHL1   H4A 3262   1.604   2.704   6.778 -1.7951  2.4520  0.9191
   45CHL1   H4B 3263   1.453   2.658   6.702  1.3546 -1.0121 -2.7497
   45CHL1    C5 3264   1.498   2.556   6.900 -0.3730  0.0925 -0.3284
   45CHL1    C6 3265   1.373   2.550   6.950 -0.1389  0.7121  0.1397
   45CHL1    H6 3266   1.283   2.595   6.904 -1.4018  1.6198  3.2490
   45CHL1    C7 3267   1.340   2.515   7.096 -0.4004  0.1334 -0.3780
   45CHL1   H7A 3268   1.274   2.592   7.140  0.0234 -0.6685  1.8010
   45CHL1   H7B 3269   1.287   2.418   7.092  0.5336 -0.3742 -0.9106
   45CHL1    C8 3270   1.468   2.512   7.181 -0.1996 -0.4081  0.2664
   45CHL1    H8 3271   1.509   2.615   7.187  0.6954 -0.5829 -1.8814
   45CHL1   C14 3272   1.446   2.450   7.313  0.6705  0.1739 -0.8037
   45CHL1   H14 3273   1.398   2.353   7.291  0.9307  0.0507 -0.8360
   45CHL1   C15 3274   1.333   2.517   7.399  0.3695  0.1136  0.2905
   45CHL1  H15A 3275   1.322   2.623   7.366  0.3963  0.0389  0.0390
   45CHL1  H15B 3276   1.236   2.468   7.377  0.2129  0.1066  0.9757
   45CHL1   C16 3277   1.369   2.497   7.544 -0.4734 -0.4191  0.4090
   45CHL1  H16A 3278   1.394   2.600   7.580 -3.3566  0.8367 -0.8294
   45CHL1  H16B 3279   1.281   2.473   7.608 -0.0041  3.7873  3.0656
   45CHL1   C17 3280   1.502   2.415   7.542 -0.7164  0.1545  0.9936
   45CHL1   H17 3281   1.471   2.308   7.536 -1.2779  0.3904 -0.7213
   45CHL1   C13 3282   1.566   2.445   7.404  0.5085  0.0387  0.0061
   45CHL1   C18 3283   1.631   2.585   7.408  0.0035 -0.6295  0.1821
   45CHL1  H18A 3284   1.670   2.622   7.311 -3.1099  0.8185 -0.6641
   45CHL1  H18B 3285   1.560   2.661   7.447  0.8071  0.5805 -0.6443
   45CHL1  H18C 3286   1.714   2.584   7.482  2.0485  0.8442 -1.9343
   45CHL1   C12 3287   1.657   2.337   7.339 -0.5516  0.2890  0.4728
   45CHL1  H12A 3288   1.750   2.312   7.394 -1.2622 -1.3096  0.9935
   45CHL1  H12B 3289   1.586   2.253   7.327  0.7541 -0.6786 -0.8313
   45CHL1   C11 3290   1.699   2.381   7.195  0.0404  0.3686 -0.5441
   45CHL1  H11A 3291   1.788   2.444   7.217  0.2315  0.2659 -1.0078
   45CHL1  H11B 3292   1.752   2.303   7.137 -0.3033  0.6660 -1.2691
   45CHL1    C9 3293   1.579   2.432   7.101 -0.3416  0.3372 -0.6812
   45CHL1    H9 3294   1.536   2.332   7.077  0.1762  0.2557 -1.3035
   45CHL1   C10 3295   1.622   2.503   6.974  0.7536  0.1039  0.3009
   45CHL1   C19 3296   1.727   2.606   7.015 -0.4932 -0.0630 -0.1522
   45CHL1  H19A 3297   1.749   2.677   6.932  3.5027  2.6528  2.8720
   45CHL1  H19B 3298   1.688   2.658   7.104  1.6625 -0.0984  0.8810
   45CHL1  H19C 3299   1.816   2.546   7.045 -0.4648 -0.3278 -0.7510
   45CHL1    C1 3300   1.682   2.395   6.875 -0.2261  0.0781  0.6204
   45CHL1   H1A 3301   1.774   2.356   6.923  0.3635  1.5831  0.7625
   45CHL1   H1B 3302   1.608   2.315   6.854  1.1398 -1.4312  1.3190
   45CHL1    C2 3303   1.729   2.456   6.743  0.2839 -0.0907  0.2217
   45CHL1   H2A 3304   1.772   2.375   6.680  1.9917  0.3640  0.7589
   45CHL1   H2B 3305   1.803   2.539   6.756  2.5329 -2.1637  1.5135
   45CHL1   C20 3306   1.578   2.422   7.674 -0.2984 -0.1928 -0.7728
   45CHL1   H20 3307   1.622   2.522   7.697 -0.7012  0.2270 -1.7515
   45CHL1   C21 3308   1.689   2.317   7.677 -0.0964  0.0248  0.5639
   45CHL1  H21A 3309   1.734   2.313   7.778 -0.2976  0.5111  0.6769
   45CHL1  H21B 3310   1.769   2.340   7.604 -2.1157  0.2736 -1.6945
   45CHL1  H21C 3311   1.653   2.216   7.646 -1.9071  0.4542  1.1561
   45CHL1   C22 3312   1.475   2.409   7.793 -0.1901  0.3586 -0.0528
   45CHL1  H22A 3313   1.415   2.503   7.794 -0.2671  0.3097  0.8952
   45CHL1  H22B 3314   1.396   2.332   7.780  0.4650 -0.8040  2.3438
   45CHL1   C23 3315   1.532   2.394   7.930  0.5249 -0.5788 -0.2156
   45CHL1  H23A 3316   1.596   2.304   7.937  1.2735 -0.0066  0.4413
   45CHL1  H23B 3317   1.590   2.483   7.963 -0.7052 -0.3373  1.4113
   45CHL1   C24 3318   1.403   2.375   8.022 -0.0469 -0.2400  0.0467
   45CHL1  H24A 3319   1.351   2.473   8.008  2.3222  0.7759 -2.5702
   45CHL1  H24B 3320   1.345   2.288   7.984  0.1483 -1.5140  2.4485
   45CHL1   C25 3321   1.434   2.341   8.168 -0.7589  0.3758  0.2442
   45CHL1   H25 3322   1.509   2.413   8.207 -2.3200  1.3494  1.5432
   45CHL1   C26 3323   1.316   2.332   8.261  0.1621 -0.3850 -0.3450
   45CHL1  H26A 3324   1.255   2.424   8.254  1.0882  0.2475 -0.3601
   45CHL1  H26B 3325   1.253   2.245   8.233  0.8224 -1.8518  2.3007
   45CHL1  H26C 3326   1.349   2.312   8.366 -2.9147 -4.0783  0.1458
   45CHL1   C27 3327   1.511   2.199   8.181  0.1828  0.0650  1.2900
   45CHL1  H27A 3328   1.612   2.215   8.136 -0.0896 -0.3008  0.5262
   45CHL1  H27B 3329   1.524   2.170   8.287 -2.4901 -1.4898  1.2774
   45CHL1  H27C 3330   1.465   2.116   8.123  1.1488  1.6321 -1.9507
   46CHL1    C3 3331   1.068   3.624   7.079 -0.3458 -0.1624 -0.9250
   46CHL1    H3 3332   1.176   3.641   7.098 -0.5041 -1.0053  0.9444
   46CHL1    O3 3333   1.027   3.660   6.948 -0.3001  0.0731  0.5053
   46CHL1   H3' 3334   1.089   3.617   6.889 -0.0046  1.3191 -0.1455
   46CHL1    C4 3335   1.033   3.484   7.112 -0.1006  0.5097 -0.0331
   46CHL1   H4A 3336   0.924   3.483   7.093 -0.8818  4.6058  2.8671
   46CHL1   H4B 3337   1.082   3.410   7.044 -1.8763  0.4450 -1.3105
   46CHL1    C5 3338   1.066   3.460   7.262 -0.6923 -0.7318 -0.7194
   46CHL1    C6 3339   1.139   3.350   7.293 -0.5766 -0.2699  0.1036
   46CHL1    H6 3340   1.165   3.283   7.210  2.0617  0.4918  0.2192
   46CHL1    C7 3341   1.175   3.309   7.436 -0.0463  0.3476 -0.4370
   46CHL1   H7A 3342   1.151   3.201   7.446 -3.5144  1.1895  3.0340
   46CHL1   H7B 3343   1.281   3.336   7.458 -0.7189  3.1509 -0.1496
   46CHL1    C8 3344   1.087   3.383   7.544 -0.1510  0.1532  0.4316
   46CHL1    H8 3345   0.980   3.353   7.542 -1.4715  4.1661  1.0558
   46CHL1   C14 3346   1.147   3.368   7.681 -0.2757 -0.6597 -0.7520
   46CHL1   H14 3347   1.244   3.423   7.677 -1.1147  1.0671  1.2098
   46CHL1   C15 3348   1.184   3.230   7.725  0.5547  0.7986  0.3092
   46CHL1  H15A 3349   1.096   3.164   7.704  1.6784 -0.2759 -1.2755
   46CHL1  H15B 3350   1.268   3.177   7.675 -0.0129  0.8989 -0.7812
   46CHL1   C16 3351   1.188   3.238   7.877 -0.2756 -0.1980  0.1960
   46CHL1  H16A 3352   1.121   3.159   7.917 -1.6833 -0.0963 -1.8517
   46CHL1  H16B 3353   1.290   3.229   7.920 -0.4093  1.8842  1.0817
   46CHL1   C17 3354   1.130   3.376   7.913 -0.0450  0.9319  0.6929
   46CHL1   H17 3355   1.215   3.448   7.920  0.6702  0.1832  0.0012
   46CHL1   C13 3356   1.063   3.427   7.790  0.4243  0.1978  0.3354
   46CHL1   C18 3357   0.918   3.373   7.789  0.3633 -0.1781 -0.3064
   46CHL1  H18A 3358   0.866   3.408   7.880 -0.0730 -0.3132 -0.5024
   46CHL1  H18B 3359   0.862   3.404   7.698 -0.9460 -1.9874 -0.1877
   46CHL1  H18C 3360   0.921   3.262   7.793  4.7514 -0.2376  0.0921
   46CHL1   C12 3361   1.053   3.579   7.770 -0.8011 -0.4078 -0.0684
   46CHL1  H12A 3362   0.978   3.622   7.840  2.0402  2.3174  1.5957
   46CHL1  H12B 3363   1.142   3.636   7.804 -0.4801 -1.3946  0.7920
   46CHL1   C11 3364   1.007   3.621   7.623  0.1419  0.0703 -0.1964
   46CHL1  H11A 3365   0.901   3.588   7.632  0.7723 -1.5703  4.9299
   46CHL1  H11B 3366   1.018   3.728   7.598 -0.3066  0.3165  0.6050
   46CHL1    C9 3367   1.078   3.538   7.513  0.1613  0.1847 -0.1013
   46CHL1    H9 3368   1.179   3.584   7.511 -0.4157  1.4745 -1.4498
   46CHL1   C10 3369   1.025   3.561   7.368  0.2148 -0.3168  0.2153
   46CHL1   C19 3370   0.864   3.549   7.382 -0.1552  0.0726 -0.7337
   46CHL1  H19A 3371   0.824   3.461   7.437  0.3426 -0.5943 -1.4280
   46CHL1  H19B 3372   0.829   3.641   7.435  0.5951 -0.4050  0.6409
   46CHL1  H19C 3373   0.811   3.560   7.285 -0.7077  0.4182 -0.4010
   46CHL1    C1 3374   1.066   3.703   7.319 -0.1519  0.2598  0.7344
   46CHL1   H1A 3375   1.026   3.785   7.383 -1.2177 -0.6299  1.2392
   46CHL1   H1B 3376   1.177   3.705   7.323 -0.1099  1.8130 -0.3689
   46CHL1    C2 3377   1.013   3.731   7.178 -0.0409  0.3516 -0.4403
   46CHL1   H2A 3378   1.063   3.827   7.154  1.4223  0.0020  1.0174
   46CHL1   H2B 3379   0.902   3.734   7.176 -0.0199  1.7383 -0.2181
   46CHL1   C20 3380   1.070   3.381   8.054 -0.6155 -0.2918  0.3039
   46CHL1   H20 3381   0.986   3.310   8.062 -2.3748  1.2111 -2.8841
   46CHL1   C21 3382   1.019   3.516   8.092 -0.1770  0.3255 -0.5165
   46CHL1  H21A 3383   0.923   3.548   8.048 -0.9438 -1.7869 -0.4946
   46CHL1  H21B 3384   1.102   3.586   8.070  1.3903 -1.4501 -0.5387
   46CHL1  H21C 3385   1.009   3.523   8.203 -1.3457  1.5003 -0.6853
   46CHL1   C22 3386   1.174   3.334   8.156  1.0213  0.1768  0.0077
   46CHL1  H22A 3387   1.134   3.358   8.256  1.3881 -0.6223  0.3567
   46CHL1  H22B 3388   1.182   3.224   8.153 -4.5266 -0.4689 -1.2022
   46CHL1   C23 3389   1.313   3.399   8.148 -0.2079 -0.6356 -0.6782
   46CHL1  H23A 3390   1.361   3.367   8.053 -1.1724 -1.4089 -0.9161
   46CHL1  H23B 3391   1.308   3.510   8.148 -0.1260 -0.6282 -0.0606
   46CHL1   C24 3392   1.397   3.359   8.273  0.0737 -0.2198 -0.3259
   46CHL1  H24A 3393   1.342   3.396   8.362 -0.3911 -1.6812  0.0207
   46CHL1  H24B 3394   1.403   3.249   8.265  0.6162 -0.2425  0.3326
   46CHL1   C25 3395   1.535   3.415   8.279 -0.1895 -0.0435  0.4242
   46CHL1   H25 3396   1.536   3.524   8.258 -2.3524 -0.1695 -0.5897
   46CHL1   C26 3397   1.595   3.373   8.416 -0.2091  0.0952 -0.0969
   46CHL1  H26A 3398   1.611   3.264   8.423  0.6703  0.2615  0.6126
   46CHL1  H26B 3399   1.698   3.412   8.433  0.1600 -0.4797 -0.9342
   46CHL1  H26C 3400   1.524   3.417   8.489  0.1747  1.0797 -0.2922
   46CHL1   C27 3401   1.627   3.356   8.168 -0.3191  0.0971  0.1591
   46CHL1  H27A 3402   1.735   3.357   8.192  0.0555 -0.4070 -1.3956
   46CHL1  H27B 3403   1.595   3.251   8.149  0.8945 -0.4106  0.8671
   46CHL1  H27C 3404   1.606   3.416   8.076  0.4426  1.2592  0.7113
   47CHL1    C3 3405   0.281   4.380   6.625 -0.2039 -0.0872  0.4301
   47CHL1    H3 3406   0.192   4.316   6.604 -1.1029  1.5332 -0.9501
   47CHL1    O3 3407   0.321   4.442   6.505 -0.2432  0.0974  0.4390
   47CHL1   H3' 3408   0.414   4.463   6.516 -0.2302  1.3435 -1.5057
   47CHL1    C4 3409   0.248   4.497   6.717  0.1238 -0.1211 -0.6326
   47CHL1   H4A 3410   0.332   4.570   6.713  0.6099 -0.7091 -1.4090
   47CHL1   H4B 3411   0.165   4.558   6.674  0.8257  0.0900 -1.7224
   47CHL1    C5 3412   0.236   4.456   6.864  0.1660 -0.8880  0.5661
   47CHL1    C6 3413   0.128   4.500   6.930 -0.4389  0.7083  0.0017
   47CHL1    H6 3414   0.050   4.556   6.876  0.2418  1.7329  0.0623
   47CHL1    C7 3415   0.109   4.473   7.079  0.3040 -0.3842  0.3251
   47CHL1   H7A 3416   0.064   4.559   7.133 -0.1162 -0.8837  0.7790
   47CHL1   H7B 3417   0.047   4.382   7.091  0.1230 -0.5319 -1.3914
   47CHL1    C8 3418   0.239   4.428   7.153  0.4888  0.3968 -0.0780
   47CHL1    H8 3419   0.300   4.519   7.170 -0.9841  1.5550 -0.7622
   47CHL1   C14 3420   0.212   4.363   7.288 -0.0931 -0.3582  0.0715
   47CHL1   H14 3421   0.185   4.258   7.266  2.2442 -0.8096 -0.8570
   47CHL1   C15 3422   0.114   4.421   7.395  0.5804  0.3797  0.9142
   47CHL1  H15A 3423   0.135   4.530   7.402  0.3705  0.8013 -3.0455
   47CHL1  H15B 3424   0.008   4.405   7.368  0.5593 -3.0284  2.5453
   47CHL1   C16 3425   0.155   4.352   7.524 -0.2157  0.5248  0.0369
   47CHL1  H16A 3426   0.179   4.429   7.600 -1.8234  0.2008  0.9144
   47CHL1  H16B 3427   0.065   4.300   7.562  0.2859 -0.6283 -0.2954
   47CHL1   C17 3428   0.282   4.266   7.491 -0.2868  1.2108 -0.5845
   47CHL1   H17 3429   0.249   4.166   7.458  3.7276 -0.6248  0.2519
   47CHL1   C13 3430   0.343   4.333   7.369 -0.3632 -0.3140  0.7188
   47CHL1   C18 3431   0.414   4.468   7.415 -0.1676  0.2481  0.0973
   47CHL1  H18A 3432   0.346   4.513   7.491 -0.4766 -2.0353  1.2874
   47CHL1  H18B 3433   0.515   4.452   7.459  1.8718  1.8193 -3.5908
   47CHL1  H18C 3434   0.433   4.540   7.333  2.4694  0.7766  1.0742
   47CHL1   C12 3435   0.436   4.246   7.288  0.4918 -0.1588  0.5360
   47CHL1  H12A 3436   0.535   4.237   7.337  0.9259 -0.1587 -0.3153
   47CHL1  H12B 3437   0.382   4.149   7.288  1.9937 -1.0248  0.5001
   47CHL1   C11 3438   0.455   4.299   7.141  0.2087  0.1425 -0.8265
   47CHL1  H11A 3439   0.528   4.382   7.150  0.6057 -0.2785  0.0474
   47CHL1  H11B 3440   0.526   4.229   7.090  2.1813 -0.9726  2.9967
   47CHL1    C9 3441   0.325   4.327   7.072  0.5775  0.0406  0.0674
   47CHL1    H9 3442   0.271   4.231   7.060  0.7383  0.0206 -0.4774
   47CHL1   C10 3443   0.347   4.374   6.924  0.1346 -0.6687 -0.4153
   47CHL1   C19 3444   0.468   4.472   6.921 -0.0070 -0.0929 -0.2961
   47CHL1  H19A 3445   0.457   4.564   6.984  0.4244 -1.7296  2.3266
   47CHL1  H19B 3446   0.561   4.417   6.947  0.5963  0.6538 -0.8327
   47CHL1  H19C 3447   0.476   4.521   6.822 -2.6271  0.8785 -0.1308
   47CHL1    C1 3448   0.379   4.262   6.828  0.2223  0.1985  0.5108
   47CHL1   H1A 3449   0.475   4.220   6.863  0.2269 -0.6356 -0.4610
   47CHL1   H1B 3450   0.304   4.180   6.835  2.2219 -1.8506 -0.7082
   47CHL1    C2 3451   0.401   4.307   6.677  0.0149  0.0475 -0.3511
   47CHL1   H2A 3452   0.419   4.217   6.613  0.7071 -0.7191  0.8756
   47CHL1   H2B 3453   0.493   4.370   6.675 -0.6016  0.9709  0.1447
   47CHL1   C20 3454   0.362   4.255   7.625 -0.3971  0.8172  0.0379
   47CHL1   H20 3455   0.408   4.350   7.658 -1.3084  0.2178  3.3442
   47CHL1   C21 3456   0.481   4.158   7.595  0.2707  0.1692  0.1277
   47CHL1  H21A 3457   0.460   4.068   7.533  1.8979 -1.2842  1.5752
   47CHL1  H21B 3458   0.537   4.125   7.685  0.1684  2.9448  1.2941
   47CHL1  H21C 3459   0.556   4.217   7.538 -0.0230  2.6747  2.1437
   47CHL1   C22 3460   0.273   4.206   7.738  0.0745 -0.4561  0.2993
   47CHL1  H22A 3461   0.199   4.288   7.755  1.2788  1.0071 -1.1315
   47CHL1  H22B 3462   0.229   4.107   7.718  1.5834 -1.3536  1.2011
   47CHL1   C23 3463   0.342   4.170   7.874 -0.5623  0.2969 -0.4489
   47CHL1  H23A 3464   0.399   4.076   7.857 -0.5786  0.2560 -0.2831
   47CHL1  H23B 3465   0.405   4.259   7.898 -0.2872  0.1468 -0.6136
   47CHL1   C24 3466   0.239   4.149   7.984 -0.1912  0.9152 -0.6163
   47CHL1  H24A 3467   0.182   4.244   7.999 -3.4493 -0.7959 -1.1043
   47CHL1  H24B 3468   0.166   4.067   7.968  0.8818 -0.6051  1.7823
   47CHL1   C25 3469   0.304   4.126   8.126  0.1411  0.6165 -0.6866
   47CHL1   H25 3470   0.395   4.064   8.110 -1.1039 -1.5178  0.1979
   47CHL1   C26 3471   0.337   4.263   8.192 -0.0639  0.3856 -0.0409
   47CHL1  H26A 3472   0.241   4.311   8.220  0.3388  0.1073  1.9832
   47CHL1  H26B 3473   0.404   4.249   8.279  1.0741 -0.4456 -1.0075
   47CHL1  H26C 3474   0.392   4.331   8.123  0.8456 -0.3667 -0.0779
   47CHL1   C27 3475   0.205   4.051   8.210  0.9845 -0.4321 -0.3038
   47CHL1  H27A 3476   0.231   4.050   8.318  0.6334 -0.0823 -0.2151
   47CHL1  H27B 3477   0.099   4.081   8.198  0.2950 -2.5188  0.0839
   47CHL1  H27C 3478   0.200   3.950   8.164  2.3690  0.0413 -1.5677
   48CHL1    C3 3479   3.552   5.853   6.339  0.3414  0.3610  0.1681
   48CHL1    H3 3480   3.658   5.877   6.316  0.9286 -0.9050  1.4152
   48CHL1    O3 3481   3.474   5.840   6.225  0.3349 -0.4086 -0.3171
   48CHL1   H3' 3482   3.406   5.773   6.239 -0.3218 -0.3591 -2.8399
   48CHL1    C4 3483   3.543   5.720   6.426 -0.4474 -0.3058 -0.0147
   48CHL1   H4A 3484   3.435   5.716   6.454 -0.1610 -2.8183  0.9278
   48CHL1   H4B 3485   3.559   5.627   6.368  0.2690 -1.4490  1.9302
   48CHL1    C5 3486   3.628   5.736   6.557  0.1494  0.3742 -0.2499
   48CHL1    C6 3487   3.731   5.655   6.588 -0.4185  0.5776  0.7683
   48CHL1    H6 3488   3.754   5.563   6.533  2.3593 -0.4571  3.4147
   48CHL1    C7 3489   3.810   5.662   6.715  0.1476 -0.0042 -0.6593
   48CHL1   H7A 3490   3.817   5.559   6.757  0.4104  0.4571  0.4793
   48CHL1   H7B 3491   3.910   5.705   6.694  0.5413 -0.3583  0.4037
   48CHL1    C8 3492   3.743   5.760   6.822 -0.1915  0.1167  0.5287
   48CHL1    H8 3493   3.656   5.711   6.872  0.6694  0.2314  2.2181
   48CHL1   C14 3494   3.838   5.791   6.929  0.1608 -0.7441  0.1504
   48CHL1   H14 3495   3.919   5.840   6.871 -0.2750 -0.2968 -0.0869
   48CHL1   C15 3496   3.912   5.676   7.011  0.7608  0.2459 -0.4425
   48CHL1  H15A 3497   3.827   5.617   7.051  0.2382  2.1933  1.5168
   48CHL1  H15B 3498   3.980   5.614   6.948  0.7454  1.8294 -2.0881
   48CHL1   C16 3499   3.973   5.756   7.118  0.3398  0.0638 -0.4117
   48CHL1  H16A 3500   3.960   5.712   7.219  0.3854 -1.3543 -1.0005
   48CHL1  H16B 3501   4.084   5.751   7.112  0.5822  0.8895  2.0684
   48CHL1   C17 3502   3.933   5.907   7.103 -0.6218 -0.2829 -0.1182
   48CHL1   H17 3503   4.012   5.941   7.034  0.8276 -0.5668  1.3570
   48CHL1   C13 3504   3.798   5.897   7.029 -0.0540  0.5359  1.0446
   48CHL1   C18 3505   3.671   5.855   7.111  0.1322  0.3168 -0.8252
   48CHL1  H18A 3506   3.700   5.776   7.183  1.7235  2.5189  1.1206
   48CHL1  H18B 3507   3.643   5.946   7.169 -3.3490 -1.3849  0.4719
   48CHL1  H18C 3508   3.574   5.825   7.066 -0.4483  1.8265 -0.6638
   48CHL1   C12 3509   3.778   6.024   6.946  0.6744 -0.0202  0.2013
   48CHL1  H12A 3510   3.749   6.113   7.007  0.4861  1.1777 -1.5529
   48CHL1  H12B 3511   3.868   6.044   6.884 -0.7895 -0.3578 -2.1409
   48CHL1   C11 3512   3.665   6.008   6.840 -0.2964 -0.1914  0.1056
   48CHL1  H11A 3513   3.572   5.985   6.898 -0.1058  0.1585  0.5566
   48CHL1  H11B 3514   3.657   6.104   6.786  0.8784  0.3087  0.7856
   48CHL1    C9 3515   3.692   5.884   6.745  0.6264  0.1914  0.1267
   48CHL1    H9 3516   3.789   5.920   6.703  1.6125  0.1566  2.2168
   48CHL1   C10 3517   3.587   5.860   6.637 -0.1508 -0.7076 -1.1235
   48CHL1   C19 3518   3.446   5.841   6.703  0.4532  0.3533 -0.2088
   48CHL1  H19A 3519   3.365   5.848   6.627 -0.1490  3.7167  0.6009
   48CHL1  H19B 3520   3.445   5.744   6.757  1.5129  0.3379 -0.1984
   48CHL1  H19C 3521   3.424   5.923   6.775  0.7184 -0.1572  0.4626
   48CHL1    C1 3522   3.581   5.986   6.544  0.1996  0.0052  0.3188
   48CHL1   H1A 3523   3.544   6.061   6.617 -1.8053  0.5130 -1.1229
   48CHL1   H1B 3524   3.686   6.013   6.519  0.1672  0.5973  0.7936
   48CHL1    C2 3525   3.490   5.971   6.421 -0.4456  0.0561  0.3912
   48CHL1   H2A 3526   3.493   6.063   6.357  0.0409 -0.7565 -0.7952
   48CHL1   H2B 3527   3.382   5.953   6.442  0.5420 -4.6976  2.7878
   48CHL1   C20 3528   3.926   6.006   7.221 -0.0359  0.3552  0.1050
   48CHL1   H20 3529   3.871   6.101   7.208 -0.4892  0.2630  1.1703
   48CHL1   C21 3530   4.066   6.055   7.246 -0.4737 -0.1316  0.1574
   48CHL1  H21A 3531   4.095   6.122   7.162  0.5493 -0.6802  0.0549
   48CHL1  H21B 3532   4.148   5.981   7.254  0.7183  1.1501  0.2117
   48CHL1  H21C 3533   4.077   6.120   7.335  0.8709 -0.1047 -0.0088
   48CHL1   C22 3534   3.866   5.943   7.350 -0.3886 -0.5907 -0.7075
   48CHL1  H22A 3535   3.773   5.886   7.330 -1.0500  0.2850 -0.1806
   48CHL1  H22B 3536   3.940   5.878   7.402  0.3001  0.3024 -0.5411
   48CHL1   C23 3537   3.827   6.047   7.459  0.3702  0.2227  0.1475
   48CHL1  H23A 3538   3.917   6.105   7.488  0.6142 -0.6285  1.1525
   48CHL1  H23B 3539   3.768   6.125   7.405  2.1472  0.3131 -1.7913
   48CHL1   C24 3540   3.744   6.006   7.583 -0.7924  0.0205 -0.7498
   48CHL1  H24A 3541   3.722   6.099   7.640 -1.8948 -0.8172  0.2536
   48CHL1  H24B 3542   3.654   5.946   7.557 -1.0444 -0.5147  1.1551
   48CHL1   C25 3543   3.814   5.905   7.684  0.2479  1.0499 -0.1345
   48CHL1   H25 3544   3.863   5.829   7.619  0.0237 -0.9291  1.8905
   48CHL1   C26 3545   3.933   5.971   7.748 -0.2933 -0.5358  0.0232
   48CHL1  H26A 3546   3.988   6.034   7.675 -0.1562 -2.2802 -1.4779
   48CHL1  H26B 3547   3.905   6.032   7.836  3.3773  5.0781 -2.1625
   48CHL1  H26C 3548   4.007   5.905   7.798 -0.8813 -0.7614  0.6177
   48CHL1   C27 3549   3.708   5.849   7.776  0.4568  0.6837 -0.5198
   48CHL1  H27A 3550   3.754   5.781   7.851  1.7693  1.1546 -0.8600
   48CHL1  H27B 3551   3.640   5.922   7.824 -1.3830 -2.1775  1.5665
   48CHL1  H27C 3552   3.638   5.790   7.712  1.2926  0.9414 -1.7086
   49CHL1    C3 3553   2.121   6.746   6.617  0.6748 -0.1017  0.5844
   49CHL1    H3 3554   2.225   6.750   6.655  1.0179 -0.4482 -0.3028
   49CHL1    O3 3555   2.112   6.723   6.476  0.0528  0.4881  0.2738
   49CHL1   H3' 3556   2.025   6.752   6.449  1.3791  1.5335 -3.4124
   49CHL1    C4 3557   2.037   6.639   6.689 -0.5930  0.0853 -0.7574
   49CHL1   H4A 3558   1.937   6.633   6.641 -0.8656  0.3552 -0.2326
   49CHL1   H4B 3559   2.082   6.538   6.684 -0.2217  0.1031  1.3682
   49CHL1    C5 3560   2.031   6.670   6.842  0.2673  0.0206  0.5647
   49CHL1    C6 3561   2.064   6.583   6.943  0.6069 -0.1622  0.2946
   49CHL1    H6 3562   2.096   6.482   6.914  1.0940  0.6764 -2.3867
   49CHL1    C7 3563   2.048   6.617   7.092 -0.1446  0.0535  0.1890
   49CHL1   H7A 3564   1.996   6.533   7.143  0.7321 -0.7315 -0.1924
   49CHL1   H7B 3565   2.151   6.636   7.128  1.9065 -1.8604 -3.9776
   49CHL1    C8 3566   1.963   6.745   7.127  0.0686  0.0157  0.3869
   49CHL1    H8 3567   1.855   6.723   7.114 -0.1131  1.2639 -0.3829
   49CHL1   C14 3568   1.997   6.787   7.267 -0.1837 -0.0174 -0.2209
   49CHL1   H14 3569   2.104   6.817   7.264 -0.1391 -0.2272 -1.3568
   49CHL1   C15 3570   2.007   6.676   7.379  0.0993  0.2505 -0.4759
   49CHL1  H15A 3571   1.914   6.619   7.361  0.7231 -0.9798  0.0844
   49CHL1  H15B 3572   2.084   6.597   7.370 -0.6713 -0.6251  0.4750
   49CHL1   C16 3573   1.998   6.755   7.511 -0.5341 -0.1662  0.5537
   49CHL1  H16A 3574   1.916   6.710   7.571  0.3835 -0.4849  1.6073
   49CHL1  H16B 3575   2.093   6.742   7.568  0.3648 -0.1271 -0.9045
   49CHL1   C17 3576   1.975   6.908   7.464 -0.0041 -0.3079 -0.2834
   49CHL1   H17 3577   2.073   6.959   7.449 -0.4130  0.3881 -0.6197
   49CHL1   C13 3578   1.921   6.908   7.321 -0.1817 -0.4389  0.5405
   49CHL1   C18 3579   1.770   6.880   7.317  0.6016  0.2433  0.5194
   49CHL1  H18A 3580   1.720   6.962   7.371 -0.6960  1.6085 -2.5356
   49CHL1  H18B 3581   1.729   6.870   7.214 -0.1379  0.1947  0.8154
   49CHL1  H18C 3582   1.747   6.788   7.375  2.3388  0.5126  1.7360
   49CHL1   C12 3583   1.965   7.019   7.225 -0.4535 -0.4347 -0.7698
   49CHL1  H12A 3584   1.919   7.115   7.256  2.0417  0.8612 -0.8598
   49CHL1  H12B 3585   2.072   7.043   7.236 -0.3137 -0.9651 -0.9402
   49CHL1   C11 3586   1.932   6.993   7.080 -0.2219  0.6366  0.6393
   49CHL1  H11A 3587   1.823   7.005   7.067  0.1542  2.0079 -1.7633
   49CHL1  H11B 3588   1.977   7.069   7.012 -0.0119  1.4946  1.7048
   49CHL1    C9 3589   1.996   6.855   7.029  0.5243 -0.7536  0.1140
   49CHL1    H9 3590   2.106   6.864   7.041  0.7893 -2.7412 -0.4135
   49CHL1   C10 3591   1.977   6.810   6.880  0.0886  0.3038 -0.5423
   49CHL1   C19 3592   1.822   6.809   6.844  0.8350  0.5847 -0.1459
   49CHL1  H19A 3593   1.790   6.915   6.859  0.7490  0.3264  1.7007
   49CHL1  H19B 3594   1.800   6.785   6.738  3.0515  0.9690 -0.7260
   49CHL1  H19C 3595   1.772   6.734   6.909  0.8268  0.3391 -0.4360
   49CHL1    C1 3596   2.052   6.914   6.791 -0.1321 -0.4528  0.2181
   49CHL1   H1A 3597   2.005   7.014   6.805 -1.1230 -0.6077 -1.6386
   49CHL1   H1B 3598   2.156   6.911   6.829  0.9088  0.2634 -2.3708
   49CHL1    C2 3599   2.050   6.879   6.637 -0.8099 -0.7225 -0.0320
   49CHL1   H2A 3600   2.115   6.954   6.587 -1.0120 -2.8818 -3.9259
   49CHL1   H2B 3601   1.949   6.888   6.593  0.2067 -0.6971 -2.5398
   49CHL1   C20 3602   1.898   6.982   7.574 -0.5906 -0.5926 -0.3582
   49CHL1   H20 3603   1.793   6.949   7.587 -0.6995 -0.1330 -0.0091
   49CHL1   C21 3604   1.898   7.127   7.531 -0.4187 -0.3576 -0.4192
   49CHL1  H21A 3605   1.992   7.148   7.476 -0.1321 -0.5983 -0.0214
   49CHL1  H21B 3606   1.886   7.203   7.611  1.8835  0.3254 -0.6622
   49CHL1  H21C 3607   1.809   7.154   7.469 -1.0701  1.5836  1.2177
   49CHL1   C22 3608   1.953   6.979   7.721 -0.2190  0.4852  0.4271
   49CHL1  H22A 3609   1.889   7.047   7.781  2.1427  2.2510  1.1045
   49CHL1  H22B 3610   1.937   6.873   7.750  0.0872  0.5782  0.9351
   49CHL1   C23 3611   2.107   7.008   7.745  0.8111 -0.2456 -0.0636
   49CHL1  H23A 3612   2.160   6.933   7.682 -1.3589 -0.6153 -1.5843
   49CHL1  H23B 3613   2.145   7.104   7.703 -0.5299  1.4819  2.4200
   49CHL1   C24 3614   2.151   6.986   7.896 -0.4972 -0.4420 -0.5668
   49CHL1  H24A 3615   2.121   6.883   7.924  1.0988 -0.3515  1.7582
   49CHL1  H24B 3616   2.262   6.982   7.892 -0.5578 -2.1498 -2.0629
   49CHL1   C25 3617   2.096   7.084   7.996  0.3732  0.1029 -0.3809
   49CHL1   H25 3618   1.986   7.081   7.976 -0.3253  0.3326  2.8470
   49CHL1   C26 3619   2.118   7.057   8.144  0.1172  0.3311  0.7198
   49CHL1  H26A 3620   2.225   7.065   8.172  0.5459 -1.7563 -0.1185
   49CHL1  H26B 3621   2.065   7.125   8.215 -2.3377 -1.3025  0.5687
   49CHL1  H26C 3622   2.091   6.954   8.174  1.5623 -0.7630 -1.4559
   49CHL1   C27 3623   2.121   7.231   7.962  0.2152 -0.0412 -0.0189
   49CHL1  H27A 3624   2.126   7.301   8.048  0.1976 -0.6616  0.4975
   49CHL1  H27B 3625   2.221   7.236   7.913  1.0121  2.0303  1.6341
   49CHL1  H27C 3626   2.057   7.269   7.880  1.4637  1.1203 -0.4794
   50CHL1    C3 3627   3.530   1.617   6.777 -0.0759 -0.2645 -0.4821
   50CHL1    H3 3628   3.626   1.644   6.825 -1.9382  1.3047  2.7202
   50CHL1    O3 3629   3.546   1.589   6.638 -0.0379  0.0730  0.2344
   50CHL1   H3' 3630   3.457   1.567   6.611  0.9615 -3.5091 -0.7864
   50CHL1    C4 3631   3.487   1.495   6.850  0.3046  0.3024  0.1997
   50CHL1   H4A 3632   3.390   1.459   6.809  1.1779  0.2364 -1.9117
   50CHL1   H4B 3633   3.565   1.421   6.824 -0.3428 -0.6866  0.9711
   50CHL1    C5 3634   3.482   1.536   7.000 -0.4580  1.0173 -0.0533
   50CHL1    C6 3635   3.549   1.472   7.101 -0.1326  0.0450 -0.2267
   50CHL1    H6 3636   3.613   1.384   7.085 -0.0133  0.4732 -2.3563
   50CHL1    C7 3637   3.532   1.514   7.250  0.1586  0.1158 -0.4559
   50CHL1   H7A 3638   3.531   1.431   7.324  0.5886 -0.8313 -1.4658
   50CHL1   H7B 3639   3.606   1.588   7.286 -1.2339  0.7434  1.2266
   50CHL1    C8 3640   3.399   1.588   7.279  0.4331 -0.0207 -0.2654
   50CHL1    H8 3641   3.315   1.518   7.257  1.1625 -0.7240 -0.9100
   50CHL1   C14 3642   3.387   1.625   7.422  0.8665 -0.4837  0.8048
   50CHL1   H14 3643   3.472   1.696   7.432  0.0997  1.0654 -2.3952
   50CHL1   C15 3644   3.385   1.521   7.534 -0.7480  0.3977  0.0154
   50CHL1  H15A 3645   3.325   1.432   7.505 -0.9083  0.5744 -0.2007
   50CHL1  H15B 3646   3.486   1.481   7.556 -1.5924 -0.1847  3.4508
   50CHL1   C16 3647   3.330   1.605   7.653  0.3472  0.5539  0.3277
   50CHL1  H16A 3648   3.246   1.553   7.704  0.6682  1.3328  1.7162
   50CHL1  H16B 3649   3.428   1.603   7.706  2.5454 -2.3009 -3.3669
   50CHL1   C17 3650   3.288   1.740   7.605 -0.2964  0.1206  0.8586
   50CHL1   H17 3651   3.373   1.812   7.607 -0.2965  0.1565  0.0675
   50CHL1   C13 3652   3.263   1.712   7.455  0.0032 -0.2192  0.2373
   50CHL1   C18 3653   3.124   1.632   7.437 -0.0659  0.7536 -0.2420
   50CHL1  H18A 3654   3.126   1.535   7.492 -0.2992  1.2129  0.6011
   50CHL1  H18B 3655   3.031   1.680   7.475 -0.9187  0.2706 -1.6274
   50CHL1  H18C 3656   3.110   1.597   7.332  0.9224 -0.2853 -0.0512
   50CHL1   C12 3657   3.278   1.842   7.367 -0.3817 -0.2535 -0.1998
   50CHL1  H12A 3658   3.198   1.919   7.376  1.9659  2.7489 -2.6107
   50CHL1  H12B 3659   3.371   1.897   7.393  0.5203 -2.0510  0.5489
   50CHL1   C11 3660   3.277   1.797   7.224  0.3955  0.2762 -0.4182
   50CHL1  H11A 3661   3.173   1.768   7.199  1.0788 -1.6231 -1.2435
   50CHL1  H11B 3662   3.295   1.896   7.177 -2.5625  0.7680 -0.7120
   50CHL1    C9 3663   3.390   1.703   7.179  0.6326 -0.9383  0.4784
   50CHL1    H9 3664   3.487   1.757   7.180 -0.0571  0.6169 -2.7698
   50CHL1   C10 3665   3.378   1.647   7.031 -0.2646  0.0519  0.6705
   50CHL1   C19 3666   3.242   1.581   7.004 -0.6357  0.5284  0.6457
   50CHL1  H19A 3667   3.202   1.522   7.089  1.9220 -0.2526  1.3767
   50CHL1  H19B 3668   3.171   1.667   7.003 -1.4229 -0.0996 -0.2551
   50CHL1  H19C 3669   3.234   1.521   6.910 -0.8381  0.3446  0.7781
   50CHL1    C1 3670   3.399   1.765   6.937 -0.6549 -0.8912 -0.5588
   50CHL1   H1A 3671   3.315   1.838   6.944  0.0272 -0.0396 -1.0183
   50CHL1   H1B 3672   3.489   1.819   6.973 -0.8021 -0.5156 -0.7505
   50CHL1    C2 3673   3.434   1.737   6.791 -0.3549 -0.7051  0.2362
   50CHL1   H2A 3674   3.488   1.826   6.753  1.4668 -0.7184  2.5503
   50CHL1   H2B 3675   3.342   1.720   6.731 -0.2979  0.4776 -0.2024
   50CHL1   C20 3676   3.171   1.787   7.692  0.3963 -0.3506 -0.7682
   50CHL1   H20 3677   3.100   1.703   7.706  2.1999 -1.9249 -0.6852
   50CHL1   C21 3678   3.089   1.904   7.627 -0.6334 -0.2329  0.4328
   50CHL1  H21A 3679   3.144   1.997   7.651 -1.0163 -0.1830  1.1359
   50CHL1  H21B 3680   2.992   1.921   7.678 -0.3370  0.9464  0.6304
   50CHL1  H21C 3681   3.068   1.897   7.518 -1.2039 -1.5545  0.6086
   50CHL1   C22 3682   3.227   1.830   7.834  0.6619 -0.0543  0.0249
   50CHL1  H22A 3683   3.280   1.739   7.868  0.0877 -0.1455  0.6938
   50CHL1  H22B 3684   3.297   1.914   7.814 -2.1172  2.1347 -1.4356
   50CHL1   C23 3685   3.112   1.872   7.935  0.1446 -0.9453 -0.3878
   50CHL1  H23A 3686   3.023   1.925   7.895 -1.7056 -2.3914  1.5837
   50CHL1  H23B 3687   3.084   1.772   7.975  0.6767 -1.4201 -1.1773
   50CHL1   C24 3688   3.166   1.957   8.042 -0.1830 -0.2736 -0.6977
   50CHL1  H24A 3689   3.246   1.903   8.097  1.9148  0.2684 -3.0021
   50CHL1  H24B 3690   3.218   2.045   7.997  0.2195  0.7814  1.6653
   50CHL1   C25 3691   3.070   2.018   8.151 -0.2372 -0.5813  0.2789
   50CHL1   H25 3692   2.993   2.065   8.086 -0.0006 -0.8718 -0.2190
   50CHL1   C26 3693   3.008   1.908   8.236  0.6684 -0.2916 -0.4788
   50CHL1  H26A 3694   2.920   1.940   8.297  0.8751  0.8501 -0.7517
   50CHL1  H26B 3695   2.969   1.827   8.172 -1.7182 -0.3195  0.8638
   50CHL1  H26C 3696   3.090   1.867   8.298  0.1015 -1.4232 -0.4530
   50CHL1   C27 3697   3.128   2.129   8.240 -0.4352  0.4384  0.0727
   50CHL1  H27A 3698   3.181   2.213   8.189 -0.0606  0.3871  0.3722
   50CHL1  H27B 3699   3.041   2.169   8.296  0.0813  2.1224 -0.2621
   50CHL1  H27C 3700   3.202   2.089   8.312  0.4763  2.1473  0.1340
   51CHL1    C3 3701   3.354   0.678   6.662 -0.3700 -0.0181 -0.0769
   51CHL1    H3 3702   3.331   0.787   6.663 -0.9020 -0.1030 -1.2715
   51CHL1    O3 3703   3.302   0.616   6.545 -0.8502  0.0117  0.0259
   51CHL1   H3' 3704   3.341   0.529   6.538 -1.2957 -0.3480  1.6397
   51CHL1    C4 3705   3.506   0.659   6.671  0.3070  0.3016  0.8215
   51CHL1   H4A 3706   3.520   0.549   6.659  0.0364  0.3657 -0.1375
   51CHL1   H4B 3707   3.556   0.703   6.582 -0.4694  1.7489  1.0769
   51CHL1    C5 3708   3.556   0.688   6.813  0.0291 -0.0324  1.4263
   51CHL1    C6 3709   3.660   0.774   6.831 -0.7141 -0.0247  0.4924
   51CHL1    H6 3710   3.714   0.819   6.746 -0.2196 -0.5612  0.5231
   51CHL1    C7 3711   3.732   0.790   6.962 -0.3020 -0.2587  0.4422
   51CHL1   H7A 3712   3.838   0.780   6.930 -0.3261  0.6189  0.0666
   51CHL1   H7B 3713   3.709   0.894   6.994 -1.7435 -0.6285  0.6947
   51CHL1    C8 3714   3.691   0.687   7.069 -0.5261  0.0786  0.0977
   51CHL1    H8 3715   3.744   0.591   7.050  0.8313  0.3682  2.0740
   51CHL1   C14 3716   3.742   0.729   7.209  0.2483 -0.4041 -0.7304
   51CHL1   H14 3717   3.699   0.827   7.239 -0.8522 -0.9220 -0.5594
   51CHL1   C15 3718   3.892   0.741   7.226  0.3077 -0.8649 -0.1249
   51CHL1  H15A 3719   3.958   0.656   7.198  2.8097  0.8470  0.2541
   51CHL1  H15B 3720   3.935   0.823   7.166  1.6903  0.0277  1.9637
   51CHL1   C16 3721   3.899   0.755   7.380 -0.0082 -0.1455 -0.5501
   51CHL1  H16A 3722   3.999   0.718   7.411  0.8262  1.0249 -1.7340
   51CHL1  H16B 3723   3.899   0.862   7.410  0.6909 -0.4617  0.6649
   51CHL1   C17 3724   3.767   0.700   7.440 -0.0473  0.3967 -0.3888
   51CHL1   H17 3725   3.711   0.791   7.470 -2.4910 -1.1760  0.1444
   51CHL1   C13 3726   3.689   0.641   7.321 -0.4671  0.2847  0.7568
   51CHL1   C18 3727   3.730   0.490   7.301  0.5247 -0.1533 -0.1343
   51CHL1  H18A 3728   3.692   0.451   7.203  0.5463  4.1894 -2.1158
   51CHL1  H18B 3729   3.840   0.475   7.305  0.8897  1.6704 -1.5996
   51CHL1  H18C 3730   3.689   0.424   7.381  1.2094  0.2166  0.5239
   51CHL1   C12 3731   3.535   0.653   7.319 -0.3668  0.7312 -0.0674
   51CHL1  H12A 3732   3.482   0.591   7.394 -0.6823  2.3865  1.1135
   51CHL1  H12B 3733   3.507   0.760   7.327 -3.2695  0.1047 -0.5786
   51CHL1   C11 3734   3.472   0.603   7.190  0.5554  0.0230  0.1280
   51CHL1  H11A 3735   3.494   0.494   7.191  0.3093 -0.0440 -0.8862
   51CHL1  H11B 3736   3.362   0.614   7.193  0.5739  1.8537 -2.7134
   51CHL1    C9 3737   3.532   0.675   7.066 -1.0584 -0.3034  0.0900
   51CHL1    H9 3738   3.514   0.784   7.083  3.1564  0.5539  0.2889
   51CHL1   C10 3739   3.486   0.626   6.931 -0.7346 -0.1112 -0.1387
   51CHL1   C19 3740   3.518   0.473   6.920 -0.0538 -0.1198 -0.5288
   51CHL1  H19A 3741   3.481   0.445   6.820  1.7591 -3.1451 -0.4589
   51CHL1  H19B 3742   3.626   0.450   6.928  0.0514 -0.3263 -2.2176
   51CHL1  H19C 3743   3.456   0.423   6.998 -0.7246  0.5056 -0.6475
   51CHL1    C1 3744   3.329   0.650   6.910  0.6243  0.3759 -0.3399
   51CHL1   H1A 3745   3.271   0.583   6.977 -0.5201  0.5227 -1.1586
   51CHL1   H1B 3746   3.304   0.758   6.919  0.2426  0.3118 -0.6084
   51CHL1    C2 3747   3.276   0.608   6.770 -0.2162 -0.0278 -1.0679
   51CHL1   H2A 3748   3.167   0.628   6.777 -0.3413 -1.0875  0.5699
   51CHL1   H2B 3749   3.290   0.498   6.764  1.5056  0.1616 -0.8702
   51CHL1   C20 3750   3.797   0.606   7.564 -0.0913  0.1777 -0.5136
   51CHL1   H20 3751   3.834   0.509   7.523  0.0225  1.0564 -2.6019
   51CHL1   C21 3752   3.662   0.580   7.627 -0.1379 -0.2662  0.2739
   51CHL1  H21A 3753   3.623   0.679   7.660  0.2539  0.3975 -1.1715
   51CHL1  H21B 3754   3.671   0.512   7.714  1.9163  1.1562  1.2385
   51CHL1  H21C 3755   3.596   0.532   7.551  2.7136  0.4777 -2.9153
   51CHL1   C22 3756   3.896   0.657   7.672  0.7801  0.4749  0.1396
   51CHL1  H22A 3757   3.911   0.573   7.743  1.1165  0.2029 -0.2464
   51CHL1  H22B 3758   3.987   0.691   7.617  0.2097  2.6252  0.4469
   51CHL1   C23 3759   3.853   0.783   7.747 -0.6185  0.1511 -0.4777
   51CHL1  H23A 3760   3.846   0.865   7.672 -0.2504  0.2274 -0.4306
   51CHL1  H23B 3761   3.753   0.767   7.792 -0.1311 -0.9326  0.2667
   51CHL1   C24 3762   3.944   0.835   7.861 -0.2009 -0.5200 -0.1830
   51CHL1  H24A 3763   4.049   0.850   7.826 -0.8238  0.0192 -1.9244
   51CHL1  H24B 3764   3.896   0.931   7.888 -0.9721 -0.9216 -0.1206
   51CHL1   C25 3765   3.961   0.742   7.986  0.6344 -0.3440  1.4713
   51CHL1   H25 3766   4.033   0.661   7.958  1.0041  0.8683 -1.5111
   51CHL1   C26 3767   4.016   0.812   8.108 -0.0972  0.5773 -0.1778
   51CHL1  H26A 3768   3.948   0.895   8.137 -0.8449  0.3851 -1.3101
   51CHL1  H26B 3769   4.024   0.726   8.177  1.0691  1.3642  0.6998
   51CHL1  H26C 3770   4.114   0.861   8.093 -0.9236  2.4927  0.2885
   51CHL1   C27 3771   3.830   0.670   8.019  0.2284  0.2398  0.2689
   51CHL1  H27A 3772   3.742   0.736   8.033  0.2268 -0.0685  1.8793
   51CHL1  H27B 3773   3.803   0.609   7.930  2.4317  0.2663 -0.4784
   51CHL1  H27C 3774   3.842   0.612   8.112 -0.9493 -0.5147 -0.0287
   52CHL1    C3 3775   3.812   3.396   6.952  0.0623 -0.4107 -0.2212
   52CHL1    H3 3776   3.875   3.310   6.921 -0.0014 -0.1357 -1.1566
   52CHL1    O3 3777   3.740   3.438   6.834  0.3967 -0.9715  0.2568
   52CHL1   H3' 3778   3.655   3.469   6.866 -0.1501 -2.4510  0.3347
   52CHL1    C4 3779   3.714   3.338   7.050 -0.0650 -0.5404  0.3364
   52CHL1   H4A 3780   3.633   3.412   7.068  1.6434  0.8949  2.7475
   52CHL1   H4B 3781   3.686   3.247   6.993  1.6636  0.0490 -1.5864
   52CHL1    C5 3782   3.771   3.308   7.189  0.7456 -0.0233 -0.3583
   52CHL1    C6 3783   3.743   3.184   7.235 -0.0981 -0.0708 -0.2776
   52CHL1    H6 3784   3.667   3.131   7.175 -0.4600  0.5114 -0.3468
   52CHL1    C7 3785   3.787   3.135   7.368  0.6282 -0.0963  0.3609
   52CHL1   H7A 3786   3.691   3.122   7.424  0.4103  0.1620  0.0503
   52CHL1   H7B 3787   3.847   3.042   7.367 -0.3448 -0.7392  0.1512
   52CHL1    C8 3788   3.862   3.250   7.452  0.2058 -0.0276 -0.0505
   52CHL1    H8 3789   3.785   3.316   7.498 -0.8845 -2.0011  1.1311
   52CHL1   C14 3790   3.955   3.184   7.553 -0.3846  0.1093 -0.4625
   52CHL1   H14 3791   4.029   3.124   7.495  1.6303 -0.0472  2.0598
   52CHL1   C15 3792   3.890   3.079   7.652  0.3963  0.5161  0.9206
   52CHL1  H15A 3793   3.793   3.118   7.689 -0.2858 -0.6200  0.3505
   52CHL1  H15B 3794   3.872   2.991   7.588 -0.5052  0.2462  1.5330
   52CHL1   C16 3795   3.997   3.058   7.759  0.0104 -0.0164 -0.7762
   52CHL1  H16A 3796   3.941   3.088   7.850 -0.6982  2.1194 -1.8594
   52CHL1  H16B 3797   4.042   2.956   7.761  3.1677  1.2586 -1.6967
   52CHL1   C17 3798   4.105   3.165   7.736 -0.1588 -0.3018  0.8441
   52CHL1   H17 3799   4.178   3.110   7.673 -2.0847 -0.9896 -0.8923
   52CHL1   C13 3800   4.044   3.272   7.643 -0.3812 -0.1342 -0.5691
   52CHL1   C18 3801   3.967   3.373   7.734  0.3920  0.3625  0.0453
   52CHL1  H18A 3802   4.031   3.438   7.799  1.0019 -0.4326  0.2624
   52CHL1  H18B 3803   3.893   3.435   7.681 -1.2054 -1.0208  0.5794
   52CHL1  H18C 3804   3.908   3.310   7.804  1.4145 -0.7717 -0.0732
   52CHL1   C12 3805   4.128   3.362   7.554  0.3862  0.3462 -0.5459
   52CHL1  H12A 3806   4.177   3.445   7.611 -0.8396  0.5309  0.2862
   52CHL1  H12B 3807   4.208   3.295   7.516  0.5386  1.3663 -2.0980
   52CHL1   C11 3808   4.031   3.424   7.446 -0.5082 -0.0558  0.3735
   52CHL1  H11A 3809   3.972   3.504   7.496  1.1210  0.6723  1.1824
   52CHL1  H11B 3810   4.095   3.482   7.376  0.8490 -1.9756 -0.0707
   52CHL1    C9 3811   3.947   3.328   7.361  0.2412 -0.1894  0.2523
   52CHL1    H9 3812   4.016   3.254   7.313 -0.5907 -1.3726  0.8428
   52CHL1   C10 3813   3.863   3.410   7.252 -0.5134  0.3127  0.3142
   52CHL1   C19 3814   3.772   3.525   7.317 -0.4652  0.3648  0.1473
   52CHL1  H19A 3815   3.693   3.568   7.252 -0.5634 -1.0100 -0.6787
   52CHL1  H19B 3816   3.706   3.486   7.398  0.4572  1.5687  1.5365
   52CHL1  H19C 3817   3.849   3.592   7.360  2.2253 -1.9077 -0.8730
   52CHL1    C1 3818   3.954   3.474   7.148  0.1967  0.0422 -0.3088
   52CHL1   H1A 3819   3.999   3.568   7.186 -0.2251 -0.2663  1.0296
   52CHL1   H1B 3820   4.036   3.405   7.120 -0.2253 -0.8746  0.6509
   52CHL1    C2 3821   3.888   3.510   7.014  0.1900  0.1144  0.3595
   52CHL1   H2A 3822   3.954   3.551   6.934 -0.7049  0.3756 -0.2738
   52CHL1   H2B 3823   3.823   3.597   7.040 -0.5868 -0.2106 -0.4294
   52CHL1   C20 3824   4.191   3.208   7.862 -0.5811 -0.1167  0.2073
   52CHL1   H20 3825   4.121   3.234   7.943 -1.4966 -0.5463 -0.4280
   52CHL1   C21 3826   4.284   3.320   7.828  0.2425  0.2667 -0.1950
   52CHL1  H21A 3827   4.230   3.416   7.814 -0.9306 -0.1588  1.1364
   52CHL1  H21B 3828   4.353   3.298   7.744  1.7334  0.1089  1.0227
   52CHL1  H21C 3829   4.343   3.346   7.919  1.1897 -0.5352 -0.5629
   52CHL1   C22 3830   4.261   3.081   7.928 -0.0386  0.2173  0.1548
   52CHL1  H22A 3831   4.184   3.000   7.924  1.0747 -0.8993  0.6755
   52CHL1  H22B 3832   4.342   3.045   7.861  0.7280 -0.3279  1.3469
   52CHL1   C23 3833   4.318   3.095   8.067 -0.6063 -0.4019 -0.1490
   52CHL1  H23A 3834   4.399   3.171   8.068  1.0027 -2.0278 -1.1353
   52CHL1  H23B 3835   4.237   3.123   8.138  0.3364 -1.4634  1.4288
   52CHL1   C24 3836   4.370   2.954   8.115 -0.2197  0.1325 -0.2992
   52CHL1  H24A 3837   4.277   2.896   8.099 -0.8401  1.0735 -0.2291
   52CHL1  H24B 3838   4.447   2.923   8.041  0.3692 -2.0639  1.1572
   52CHL1   C25 3839   4.436   2.952   8.251  0.0387  0.2853 -0.4343
   52CHL1   H25 3840   4.519   3.025   8.244  1.0933 -1.0238 -2.5369
   52CHL1   C26 3841   4.339   2.973   8.368 -0.4855 -0.4174  0.3559
   52CHL1  H26A 3842   4.239   2.926   8.352 -1.5195  2.5486 -3.6857
   52CHL1  H26B 3843   4.385   2.966   8.469  1.0581  1.8133 -0.1211
   52CHL1  H26C 3844   4.295   3.075   8.368  0.2162 -0.0840 -0.9486
   52CHL1   C27 3845   4.494   2.812   8.280 -0.0796  1.1789  0.1502
   52CHL1  H27A 3846   4.413   2.744   8.313  0.4449  0.8843  0.8497
   52CHL1  H27B 3847   4.533   2.777   8.183 -0.0592 -1.7135  1.1214
   52CHL1  H27C 3848   4.577   2.816   8.354 -1.3710  1.2538  1.6575
   53CHL1    C3 3849   1.012   5.727   6.954 -0.6165  0.7584  0.4002
   53CHL1    H3 3850   0.916   5.782   6.963 -1.6418 -1.0575  1.0828
   53CHL1    O3 3851   1.035   5.700   6.816 -0.1006  0.1764 -0.3407
   53CHL1   H3' 3852   1.103   5.632   6.816  0.5474  0.6508 -3.6099
   53CHL1    C4 3853   1.113   5.824   7.019 -0.5906 -0.7116  0.0087
   53CHL1   H4A 3854   1.211   5.780   6.988 -0.2574 -0.3404  0.5093
   53CHL1   H4B 3855   1.109   5.926   6.974 -0.4026 -0.6092  0.2226
   53CHL1    C5 3856   1.097   5.834   7.168 -0.5713  0.3279 -0.0022
   53CHL1    C6 3857   1.081   5.955   7.228  0.8492 -0.2990  0.9872
   53CHL1    H6 3858   1.084   6.040   7.158  1.5233 -0.7045  0.5158
   53CHL1    C7 3859   1.076   5.968   7.373  0.1190 -0.2203 -1.4620
   53CHL1   H7A 3860   1.151   6.040   7.415 -0.3330 -1.8940  2.7087
   53CHL1   H7B 3861   0.974   6.001   7.401  0.2652 -0.2493 -0.8730
   53CHL1    C8 3862   1.107   5.841   7.455 -0.5733  0.1998  0.4074
   53CHL1    H8 3863   1.218   5.836   7.462 -0.5771 -0.3907  0.0817
   53CHL1   C14 3864   1.066   5.840   7.610 -0.0860  0.1305 -0.2804
   53CHL1   H14 3865   0.956   5.836   7.596 -0.1924  1.8312 -0.0696
   53CHL1   C15 3866   1.103   5.965   7.696  0.0491  0.5555 -0.4577
   53CHL1  H15A 3867   1.206   6.001   7.673 -1.2129  2.6069 -3.6458
   53CHL1  H15B 3868   1.032   6.047   7.671  0.1663  1.0299  0.7192
   53CHL1   C16 3869   1.078   5.913   7.839 -1.2086  0.0273 -0.7171
   53CHL1  H16A 3870   1.165   5.934   7.905  1.3996 -1.3117 -3.4809
   53CHL1  H16B 3871   0.986   5.961   7.878 -0.1499  2.4115 -1.0405
   53CHL1   C17 3872   1.055   5.756   7.834 -0.4538  0.3343 -0.3975
   53CHL1   H17 3873   0.945   5.745   7.827 -0.5996  1.6587 -0.5596
   53CHL1   C13 3874   1.113   5.721   7.692 -0.2345 -0.0248 -1.0042
   53CHL1   C18 3875   1.267   5.714   7.705  0.7311  0.4597 -0.0984
   53CHL1  H18A 3876   1.308   5.698   7.604  0.0441  0.0528 -0.3140
   53CHL1  H18B 3877   1.323   5.804   7.739 -0.3661  0.5469  1.6093
   53CHL1  H18C 3878   1.299   5.627   7.766  0.5834  0.7851  0.4604
   53CHL1   C12 3879   1.050   5.596   7.631  0.5705 -0.4845 -0.3920
   53CHL1  H12A 3880   1.081   5.503   7.683  2.3203  0.6852  0.7751
   53CHL1  H12B 3881   0.940   5.610   7.641  0.2792  0.9998 -4.0804
   53CHL1   C11 3882   1.090   5.587   7.478  0.1531  0.3657 -0.0238
   53CHL1  H11A 3883   1.200   5.570   7.476  0.3771  1.6851  0.5493
   53CHL1  H11B 3884   1.039   5.500   7.430 -0.5338  1.8853 -2.2136
   53CHL1    C9 3885   1.060   5.714   7.391 -0.7854  0.7453  0.6034
   53CHL1    H9 3886   0.950   5.729   7.394 -0.6462  1.6734  2.1049
   53CHL1   C10 3887   1.095   5.699   7.245  0.0363 -0.5848  0.6029
   53CHL1   C19 3888   1.239   5.641   7.239  0.2983  0.2465 -0.3490
   53CHL1  H19A 3889   1.244   5.535   7.273 -1.6094  0.2840  0.1791
   53CHL1  H19B 3890   1.268   5.625   7.133 -0.0291  0.3479 -0.4529
   53CHL1  H19C 3891   1.318   5.702   7.289 -0.2412  0.4657  0.2589
   53CHL1    C1 3892   0.994   5.611   7.170  0.0133  0.5101 -0.3733
   53CHL1   H1A 3893   0.994   5.509   7.215  0.1856  0.9958  0.7441
   53CHL1   H1B 3894   0.891   5.650   7.186 -0.6853 -1.0542 -0.8396
   53CHL1    C2 3895   1.014   5.584   7.020  0.2324 -0.5825 -0.2213
   53CHL1   H2A 3896   0.923   5.532   6.983  0.1548  0.4037 -1.4977
   53CHL1   H2B 3897   1.100   5.517   6.997 -1.0684 -2.9073  1.2864
   53CHL1   C20 3898   1.117   5.690   7.957 -0.3354 -0.0394  0.1941
   53CHL1   H20 3899   1.228   5.700   7.958 -0.1225 -1.9684  0.7955
   53CHL1   C21 3900   1.089   5.541   7.965 -0.3528  0.5422 -0.5672
   53CHL1  H21A 3901   0.994   5.501   8.007  1.9803 -4.7705  0.5008
   53CHL1  H21B 3902   1.164   5.497   8.035 -1.5216  1.3866  1.3009
   53CHL1  H21C 3903   1.101   5.483   7.871  0.8183 -1.7441  0.9079
   53CHL1   C22 3904   1.061   5.749   8.085 -0.3478 -0.4826 -0.2887
   53CHL1  H22A 3905   1.062   5.860   8.074  2.5642 -0.4073  0.0405
   53CHL1  H22B 3906   0.955   5.723   8.104 -1.1347  3.3864  1.8546
   53CHL1   C23 3907   1.145   5.728   8.205  0.5046 -0.1916  0.1267
   53CHL1  H23A 3908   1.162   5.621   8.229  0.0088 -0.9214 -2.5314
   53CHL1  H23B 3909   1.241   5.778   8.180 -0.2553  0.5083 -1.4852
   53CHL1   C24 3910   1.071   5.795   8.330 -0.0962 -0.3105  0.1376
   53CHL1  H24A 3911   1.072   5.906   8.318  1.2240 -0.2122  0.9767
   53CHL1  H24B 3912   0.963   5.769   8.336 -0.0759 -0.1607  1.3099
   53CHL1   C25 3913   1.129   5.753   8.465  0.4374  0.0027 -0.4510
   53CHL1   H25 3914   1.139   5.642   8.467  2.5491  0.1589  0.3698
   53CHL1   C26 3915   1.269   5.803   8.488 -0.1883  0.3633  0.1795
   53CHL1  H26A 3916   1.343   5.742   8.432 -0.3108 -2.5611  2.9507
   53CHL1  H26B 3917   1.270   5.910   8.456 -0.6902  0.3471  0.0950
   53CHL1  H26C 3918   1.306   5.787   8.591  1.3828 -2.4565 -0.7246
   53CHL1   C27 3919   1.035   5.805   8.580 -0.5319  0.5273 -0.1695
   53CHL1  H27A 3920   0.962   5.724   8.603  0.8508 -0.9896 -0.9187
   53CHL1  H27B 3921   1.101   5.842   8.661  1.7559 -0.7269 -1.3352
   53CHL1  H27C 3922   0.982   5.895   8.541 -1.9054 -0.1386  0.1215
   54CHL1    C3 3923   0.027   0.252   7.161 -0.3845  0.1650  1.0598
   54CHL1    H3 3924  -0.069   0.300   7.189 -0.1346  1.1081  0.3431
   54CHL1    O3 3925   0.035   0.261   7.014  0.3363  0.4431 -0.2033
   54CHL1   H3' 3926   0.120   0.222   6.996  1.5739  2.3642  1.0699
   54CHL1    C4 3927   0.138   0.329   7.232 -0.1369 -0.2519 -0.5472
   54CHL1   H4A 3928   0.234   0.297   7.187 -0.7155 -2.2735 -0.4311
   54CHL1   H4B 3929   0.137   0.438   7.209 -0.3622  0.0113  0.6233
   54CHL1    C5 3930   0.144   0.307   7.387  0.2837 -0.1533  0.3109
   54CHL1    C6 3931   0.136   0.408   7.475 -0.1128  0.0352 -0.2363
   54CHL1    H6 3932   0.111   0.509   7.440 -0.2239 -0.2608 -1.0194
   54CHL1    C7 3933   0.142   0.384   7.621 -0.4717 -0.0416  0.4231
   54CHL1   H7A 3934   0.210   0.459   7.668 -0.6954  0.3254  0.1718
   54CHL1   H7B 3935   0.038   0.401   7.656 -1.1088  1.7477 -2.0375
   54CHL1    C8 3936   0.192   0.241   7.655 -0.0947 -0.4615 -0.1340
   54CHL1    H8 3937   0.302   0.233   7.644 -0.0891 -1.2396  0.4663
   54CHL1   C14 3938   0.178   0.214   7.804  1.4266  0.0149  0.8054
   54CHL1   H14 3939   0.067   0.205   7.811  1.2326  1.0756 -0.4701
   54CHL1   C15 3940   0.216   0.325   7.905  0.1475 -0.8159 -1.0826
   54CHL1  H15A 3941   0.316   0.372   7.891 -1.1224  3.6664  2.3734
   54CHL1  H15B 3942   0.145   0.408   7.884  2.1976  0.5680 -3.0646
   54CHL1   C16 3943   0.214   0.249   8.032 -0.2665  0.1909 -0.1014
   54CHL1  H16A 3944   0.314   0.252   8.081  0.2867  0.1162 -1.2144
   54CHL1  H16B 3945   0.141   0.289   8.105  0.8275  1.7131  0.2104
   54CHL1   C17 3946   0.198   0.097   8.004  0.6685  0.6478  0.2193
   54CHL1   H17 3947   0.090   0.071   8.006  0.6438  0.5539 -1.0380
   54CHL1   C13 3948   0.235   0.082   7.855 -0.2936  0.0816  0.3098
   54CHL1   C18 3949   0.390   0.088   7.850 -0.1019  0.3579  1.0856
   54CHL1  H18A 3950   0.429   0.171   7.913  0.8435  0.7131  0.0504
   54CHL1  H18B 3951   0.435  -0.005   7.891  3.0101  0.7924 -1.0086
   54CHL1  H18C 3952   0.438   0.114   7.753  1.4550  2.9316  2.4346
   54CHL1   C12 3953   0.162  -0.039   7.779 -0.2431 -0.7602  0.0462
   54CHL1  H12A 3954   0.212  -0.137   7.795 -0.7872 -1.2082 -0.8779
   54CHL1  H12B 3955   0.058  -0.053   7.818 -0.0200  0.0394  0.9474
   54CHL1   C11 3956   0.168  -0.010   7.631 -0.7794  0.6539 -0.2064
   54CHL1  H11A 3957   0.274  -0.037   7.611 -0.6956  0.5053  0.4242
   54CHL1  H11B 3958   0.102  -0.080   7.574 -1.0626  3.2178 -3.3162
   54CHL1    C9 3959   0.130   0.130   7.580 -0.3970 -0.5593  0.3873
   54CHL1    H9 3960   0.020   0.133   7.592 -0.4121  0.0831  0.1496
   54CHL1   C10 3961   0.148   0.153   7.421  0.5624 -0.4582 -0.1331
   54CHL1   C19 3962   0.287   0.095   7.373 -0.1848  0.1191  1.0977
   54CHL1  H19A 3963   0.370   0.159   7.410  0.5605  0.0151 -0.3180
   54CHL1  H19B 3964   0.297  -0.011   7.408 -2.9325 -0.4844  0.2673
   54CHL1  H19C 3965   0.288   0.072   7.265 -0.5149  0.1178  1.0941
   54CHL1    C1 3966   0.029   0.079   7.340 -1.1294 -1.1395 -0.7297
   54CHL1   H1A 3967   0.038  -0.030   7.359  0.2884 -0.9566 -0.2058
   54CHL1   H1B 3968  -0.067   0.112   7.384 -0.2486  0.3077  0.2123
   54CHL1    C2 3969   0.030   0.105   7.188 -0.4893  0.4982 -0.4478
   54CHL1   H2A 3970  -0.052   0.043   7.148  1.0222 -0.5357 -2.0892
   54CHL1   H2B 3971   0.121   0.066   7.138 -0.9910 -0.0931 -0.9128
   54CHL1   C20 3972   0.269   0.015   8.119  0.3990  0.1338 -0.0559
   54CHL1   H20 3973   0.379   0.029   8.115  0.7264 -1.7305  1.1450
   54CHL1   C21 3974   0.255  -0.134   8.096 -0.5776  1.0335 -0.0764
   54CHL1  H21A 3975   0.266  -0.145   7.986 -1.0951  3.4677 -0.4262
   54CHL1  H21B 3976   0.149  -0.167   8.108 -0.2820  0.5013  1.2881
   54CHL1  H21C 3977   0.315  -0.192   8.169 -1.7599  0.3300  0.3573
   54CHL1   C22 3978   0.245   0.060   8.268  0.4956 -0.6915  0.3395
   54CHL1  H22A 3979   0.312  -0.002   8.332 -1.6447 -4.2238 -0.5558
   54CHL1  H22B 3980   0.262   0.169   8.275 -0.6233 -0.3232 -1.7841
   54CHL1   C23 3981   0.101   0.049   8.311  0.3185 -0.4364  0.1307
   54CHL1  H23A 3982   0.037   0.110   8.244  1.4774 -0.5413 -1.1120
   54CHL1  H23B 3983   0.057  -0.052   8.294  1.6170 -1.2583  1.4730
   54CHL1   C24 3984   0.090   0.091   8.457  0.9334  0.3956 -0.3011
   54CHL1  H24A 3985   0.156   0.021   8.513  0.2639  1.2508  1.6388
   54CHL1  H24B 3986   0.122   0.197   8.460  1.8281  0.1045  0.9748
   54CHL1   C25 3987  -0.051   0.079   8.523 -0.2106 -0.2263  0.6604
   54CHL1   H25 3988  -0.082  -0.028   8.523 -0.1135 -0.2613  1.4654
   54CHL1   C26 3989  -0.041   0.139   8.665  0.4555  0.4331  0.5561
   54CHL1  H26A 3990  -0.014   0.247   8.654  1.5180  0.1143 -0.1852
   54CHL1  H26B 3991  -0.140   0.132   8.714 -0.5902 -1.8696 -1.6552
   54CHL1  H26C 3992   0.038   0.084   8.721  1.2545  0.7428 -0.2287
   54CHL1   C27 3993  -0.151   0.168   8.446 -0.6182 -0.3821  0.7667
   54CHL1  H27A 3994  -0.187   0.113   8.356  3.8672 -0.8017 -0.9942
   54CHL1  H27B 3995  -0.245   0.194   8.500 -0.8536  1.4891 -0.4704
   54CHL1  H27C 3996  -0.103   0.264   8.418 -0.4732 -0.5788  0.3412
   55CHL1    C3 3997   0.486   0.398   6.937  0.4457 -0.6722  0.3970
   55CHL1    H3 3998   0.390   0.366   6.982 -0.6411 -0.5487 -1.7016
   55CHL1    O3 3999   0.473   0.415   6.796  0.0409  0.5523 -0.1905
   55CHL1   H3' 4000   0.563   0.426   6.764 -0.3326  1.4169 -0.9704
   55CHL1    C4 4001   0.525   0.530   6.999 -0.0687 -0.5345  0.1736
   55CHL1   H4A 4002   0.612   0.582   6.953 -0.6848  0.0851 -0.3219
   55CHL1   H4B 4003   0.444   0.603   6.978 -0.4242 -0.7515  0.7605
   55CHL1    C5 4004   0.562   0.522   7.147 -0.5575 -0.4371  1.2378
   55CHL1    C6 4005   0.496   0.600   7.234  0.4107  0.4697  0.2293
   55CHL1    H6 4006   0.418   0.672   7.204 -2.2773 -1.8415  1.1987
   55CHL1    C7 4007   0.517   0.588   7.380  0.0048 -0.0621  0.4046
   55CHL1   H7A 4008   0.535   0.683   7.434  2.9138 -0.7594  0.8306
   55CHL1   H7B 4009   0.422   0.546   7.421 -0.9947  3.1245  1.6358
   55CHL1    C8 4010   0.634   0.490   7.425 -0.3594 -0.2608 -0.1812
   55CHL1    H8 4011   0.729   0.546   7.411  0.6771 -2.0395 -0.4784
   55CHL1   C14 4012   0.614   0.449   7.569  0.3457 -0.9431 -0.2242
   55CHL1   H14 4013   0.517   0.396   7.582 -1.0085  1.4816  0.1441
   55CHL1   C15 4014   0.588   0.560   7.679  0.7357 -0.5046  0.4733
   55CHL1  H15A 4015   0.651   0.652   7.673 -1.1002  0.7515 -1.0272
   55CHL1  H15B 4016   0.483   0.598   7.680  0.1555 -2.0295  1.9255
   55CHL1   C16 4017   0.622   0.489   7.805  0.2931  0.2731 -0.8465
   55CHL1  H16A 4018   0.712   0.535   7.852 -1.3427  2.1093  0.6425
   55CHL1  H16B 4019   0.544   0.471   7.881  2.6319 -4.5669  0.7788
   55CHL1   C17 4020   0.670   0.341   7.777  0.4091  0.1874 -0.0003
   55CHL1   H17 4021   0.580   0.275   7.772  2.3746 -2.6690 -0.4011
   55CHL1   C13 4022   0.719   0.355   7.624  0.9513  0.0302 -0.5720
   55CHL1   C18 4023   0.864   0.417   7.612 -0.2729 -0.5298  0.1172
   55CHL1  H18A 4024   0.873   0.516   7.662  0.9704 -0.3149 -0.4693
   55CHL1  H18B 4025   0.938   0.341   7.645 -1.8349 -1.2054  2.3035
   55CHL1  H18C 4026   0.870   0.440   7.503 -2.5096  0.6550  0.1963
   55CHL1   C12 4027   0.710   0.225   7.539 -0.7462  0.5823  0.6408
   55CHL1  H12A 4028   0.795   0.159   7.566 -0.7322 -0.7845 -2.3704
   55CHL1  H12B 4029   0.612   0.177   7.561 -0.2925 -0.5083  0.3211
   55CHL1   C11 4030   0.739   0.258   7.388  0.0561  0.0319  0.9147
   55CHL1  H11A 4031   0.848   0.279   7.378  0.4990 -0.8906  3.1912
   55CHL1  H11B 4032   0.726   0.161   7.336  2.2220  0.1166  0.1052
   55CHL1    C9 4033   0.638   0.368   7.338 -0.8150  0.3734  0.5801
   55CHL1    H9 4034   0.540   0.317   7.351 -0.8365 -0.4919 -2.3342
   55CHL1   C10 4035   0.656   0.405   7.183  0.8260  0.7464  0.1948
   55CHL1   C19 4036   0.805   0.449   7.159 -0.3580 -0.3420 -0.1744
   55CHL1  H19A 4037   0.876   0.367   7.180 -0.5890 -0.2907  0.8351
   55CHL1  H19B 4038   0.818   0.479   7.053  0.0683 -0.4615 -0.1571
   55CHL1  H19C 4039   0.832   0.546   7.206 -2.4030 -0.1553  0.7306
   55CHL1    C1 4040   0.616   0.274   7.109 -0.9862 -0.2526 -0.4050
   55CHL1   H1A 4041   0.699   0.203   7.126  1.6476  2.9000  1.0110
   55CHL1   H1B 4042   0.521   0.234   7.150 -0.5900 -1.0328 -0.2403
   55CHL1    C2 4043   0.592   0.297   6.962 -0.2603 -0.1339 -0.1935
   55CHL1   H2A 4044   0.560   0.197   6.927 -0.5704  0.0593 -0.4597
   55CHL1   H2B 4045   0.687   0.320   6.909  2.3748 -0.2834  3.9952
   55CHL1   C20 4046   0.762   0.273   7.882  0.3467 -0.4719  0.1011
   55CHL1   H20 4047   0.862   0.316   7.858  0.5755 -1.6237 -1.0754
   55CHL1   C21 4048   0.769   0.124   7.864 -0.4211 -0.0166 -0.5923
   55CHL1  H21A 4049   0.671   0.076   7.884  1.4371 -3.2329  1.6805
   55CHL1  H21B 4050   0.844   0.076   7.930  2.0872  1.7642 -2.0080
   55CHL1  H21C 4051   0.793   0.102   7.757  0.2820 -1.3947 -0.1739
   55CHL1   C22 4052   0.728   0.305   8.026  0.3853  0.0425 -0.6465
   55CHL1  H22A 4053   0.718   0.414   8.048  2.2678 -0.1386  1.4037
   55CHL1  H22B 4054   0.634   0.255   8.058  1.5902 -1.3337  0.9245
   55CHL1   C23 4055   0.849   0.268   8.112  0.1102 -0.0003 -0.1002
   55CHL1  H23A 4056   0.858   0.158   8.117  0.4122  0.0747  1.2856
   55CHL1  H23B 4057   0.949   0.305   8.079  1.2401 -0.5589  2.5158
   55CHL1   C24 4058   0.833   0.310   8.256  0.9566 -0.2827  0.3174
   55CHL1  H24A 4059   0.793   0.414   8.246 -1.5055 -1.3375 -2.7742
   55CHL1  H24B 4060   0.742   0.260   8.296 -0.8126  1.6627 -1.0199
   55CHL1   C25 4061   0.963   0.293   8.339  0.1570 -0.0985 -0.0096
   55CHL1   H25 4062   0.997   0.189   8.320 -1.6632 -0.8933  0.8184
   55CHL1   C26 4063   1.072   0.402   8.304 -0.1246 -0.2707 -0.7950
   55CHL1  H26A 4064   1.113   0.382   8.202 -0.9622  1.5790 -1.5572
   55CHL1  H26B 4065   1.031   0.505   8.299 -2.5270 -1.1723 -0.8945
   55CHL1  H26C 4066   1.154   0.398   8.379 -1.2097  2.8222  0.7338
   55CHL1   C27 4067   0.939   0.298   8.487  0.3149 -0.1402 -0.6410
   55CHL1  H27A 4068   0.906   0.399   8.521 -1.6127 -1.1604  0.7453
   55CHL1  H27B 4069   0.877   0.212   8.519  1.8911 -0.9201  0.4685
   55CHL1  H27C 4070   1.037   0.270   8.531  0.7291 -1.1563 -2.1689
   56CHL1    C3 4071   1.267   0.520   6.995 -0.0072  0.4751  0.2870
   56CHL1    H3 4072   1.367   0.568   6.984  1.0287 -1.2852  1.4878
   56CHL1    O3 4073   1.222   0.507   6.861 -0.4972 -0.1652 -0.4710
   56CHL1   H3' 4074   1.127   0.512   6.861 -0.7038 -2.7487 -1.5320
   56CHL1    C4 4075   1.291   0.380   7.075  0.4166 -0.5897  0.1208
   56CHL1   H4A 4076   1.205   0.312   7.055 -0.5265  0.3460  0.9071
   56CHL1   H4B 4077   1.368   0.335   7.008 -1.2352 -1.5613 -1.2365
   56CHL1    C5 4078   1.331   0.390   7.216 -0.1136  0.1878  0.1469
   56CHL1    C6 4079   1.430   0.320   7.269 -0.2545 -0.1984 -0.1814
   56CHL1    H6 4080   1.491   0.253   7.207 -1.8084 -0.4518 -1.5279
   56CHL1    C7 4081   1.464   0.323   7.416  0.2252  0.1632  0.8248
   56CHL1   H7A 4082   1.468   0.219   7.455  1.3073 -0.3100 -0.4744
   56CHL1   H7B 4083   1.562   0.374   7.422  1.9234 -2.4429 -1.9927
   56CHL1    C8 4084   1.371   0.398   7.511  0.6619  0.5956 -0.4176
   56CHL1    H8 4085   1.288   0.327   7.529  1.8590 -0.7790 -0.1452
   56CHL1   C14 4086   1.430   0.427   7.647  0.1676  0.2201  0.0972
   56CHL1   H14 4087   1.511   0.500   7.628  1.7118 -2.0931 -3.0340
   56CHL1   C15 4088   1.505   0.313   7.723 -0.0068  0.1335 -0.1425
   56CHL1  H15A 4089   1.438   0.226   7.709 -0.3351  0.4015 -0.2649
   56CHL1  H15B 4090   1.609   0.302   7.685 -0.1341 -1.1197 -0.1407
   56CHL1   C16 4091   1.496   0.363   7.867  0.4386 -0.2929 -1.0175
   56CHL1  H16A 4092   1.442   0.288   7.929  0.0617 -0.5279 -1.6127
   56CHL1  H16B 4093   1.593   0.379   7.917  0.0958  1.5036 -0.8565
   56CHL1   C17 4094   1.417   0.502   7.862  0.4683 -0.4085 -0.8280
   56CHL1   H17 4095   1.504   0.571   7.851  0.6001 -0.2199  1.0315
   56CHL1   C13 4096   1.331   0.499   7.731  0.6135  0.6220  0.1281
   56CHL1   C18 4097   1.204   0.417   7.771 -0.2985  0.0262 -0.3229
   56CHL1  H18A 4098   1.125   0.473   7.825  0.3365  0.2626  0.3594
   56CHL1  H18B 4099   1.148   0.381   7.682 -0.3611 -0.2014 -0.1918
   56CHL1  H18C 4100   1.238   0.334   7.836  3.3244  1.7875  0.2378
   56CHL1   C12 4101   1.286   0.630   7.660 -0.0314 -0.3006 -0.6163
   56CHL1  H12A 4102   1.201   0.677   7.714 -0.5576 -2.6735  0.7296
   56CHL1  H12B 4103   1.374   0.699   7.654 -0.8911  1.0598  1.3212
   56CHL1   C11 4104   1.220   0.607   7.523  0.4350 -0.0339 -0.3068
   56CHL1  H11A 4105   1.124   0.552   7.536 -0.0157  1.1414  1.6200
   56CHL1  H11B 4106   1.195   0.702   7.471  1.4338  0.5363  0.2302
   56CHL1    C9 4107   1.311   0.520   7.438 -0.3494 -0.5205  0.1970
   56CHL1    H9 4108   1.393   0.593   7.418 -1.2281  1.1456  2.2138
   56CHL1   C10 4109   1.244   0.491   7.298 -0.5075  0.3033 -0.3082
   56CHL1   C19 4110   1.113   0.424   7.325 -0.4859  0.1292  0.9312
   56CHL1  H19A 4111   1.080   0.365   7.237  3.3207 -3.0426  1.3733
   56CHL1  H19B 4112   1.110   0.358   7.415 -2.0305 -1.5440 -0.2826
   56CHL1  H19C 4113   1.032   0.499   7.337 -0.9106 -0.1180 -0.3021
   56CHL1    C1 4114   1.224   0.626   7.219  0.6591  0.5797  1.1181
   56CHL1   H1A 4115   1.148   0.688   7.271  1.8905  2.4532  0.8071
   56CHL1   H1B 4116   1.317   0.686   7.215 -0.1800  1.8930 -1.8242
   56CHL1    C2 4117   1.176   0.610   7.072  0.5186  0.1659 -0.2588
   56CHL1   H2A 4118   1.163   0.703   7.012  0.0242  0.7530  0.7270
   56CHL1   H2B 4119   1.076   0.563   7.077  0.7905 -0.3328  0.7983
   56CHL1   C20 4120   1.341   0.536   7.992  0.3976  0.0310 -0.5325
   56CHL1   H20 4121   1.252   0.471   8.006 -0.1673  0.9606  0.3248
   56CHL1   C21 4122   1.284   0.677   7.986  0.4389  0.5280 -0.0952
   56CHL1  H21A 4123   1.361   0.756   7.974  2.0480 -0.8493  0.7322
   56CHL1  H21B 4124   1.255   0.708   8.089  0.9684  2.0215 -0.3625
   56CHL1  H21C 4125   1.205   0.704   7.913  0.8852  0.2889 -0.6756
   56CHL1   C22 4126   1.417   0.514   8.123 -0.1753  0.6624  0.2566
   56CHL1  H22A 4127   1.351   0.538   8.209 -0.7104 -0.3647  0.1488
   56CHL1  H22B 4128   1.440   0.406   8.135 -0.0514  0.8572  2.0933
   56CHL1   C23 4129   1.546   0.588   8.148  0.4816  0.0047 -0.6264
   56CHL1  H23A 4130   1.622   0.564   8.070  0.0118 -0.3752 -0.9748
   56CHL1  H23B 4131   1.535   0.697   8.164 -1.3380 -0.2674  0.2524
   56CHL1   C24 4132   1.593   0.529   8.280 -0.1902 -0.0615 -0.0126
   56CHL1  H24A 4133   1.518   0.522   8.362  1.5402 -0.6966  1.5927
   56CHL1  H24B 4134   1.631   0.429   8.251  1.3463  0.8022 -1.1595
   56CHL1   C25 4135   1.719   0.592   8.348  0.3954 -0.3660  0.3219
   56CHL1   H25 4136   1.705   0.702   8.353  0.2419 -0.3334 -0.5866
   56CHL1   C26 4137   1.735   0.536   8.485 -0.2742  0.0708  0.4831
   56CHL1  H26A 4138   1.636   0.553   8.532 -0.5486 -0.8298  0.2645
   56CHL1  H26B 4139   1.813   0.588   8.544  0.5602  0.0527 -0.5616
   56CHL1  H26C 4140   1.755   0.427   8.498 -1.0109 -0.1624 -0.2427
   56CHL1   C27 4141   1.847   0.565   8.269 -0.9240 -0.6269 -1.2563
   56CHL1  H27A 4142   1.930   0.631   8.303  0.2772 -2.9559  0.7330
   56CHL1  H27B 4143   1.880   0.459   8.262  1.7655  0.0712 -0.3860
   56CHL1  H27C 4144   1.827   0.598   8.165 -3.1171 -0.4714 -0.8334
   57SAPC     N 4145   0.611   3.230  10.827  1.1895 -0.5743 -0.8802
   57SAPC   C12 4146   0.583   3.084  10.800  0.0863  0.4760 -0.6527
   57SAPC  H12A 4147   0.507   3.045  10.867  1.3169 -0.9617 -0.0450
   57SAPC  H12B 4148   0.673   3.035  10.832 -0.1991  0.6720  0.5176
   57SAPC   C13 4149   0.676   3.254  10.962  0.8810  0.2660  0.5011
   57SAPC  H13A 4150   0.602   3.223  11.034 -0.6956 -0.7279 -1.4315
   57SAPC  H13B 4151   0.770   3.199  10.965  0.0728 -1.1374  0.9352
   57SAPC  H13C 4152   0.680   3.359  10.984 -1.1550  0.5824 -0.3835
   57SAPC   C14 4153   0.716   3.276  10.730  0.5704  0.1556  0.8299
   57SAPC  H14A 4154   0.689   3.260  10.627  2.1487  1.2007  0.2187
   57SAPC  H14B 4155   0.752   3.376  10.751  1.3295 -0.6664  3.9560
   57SAPC  H14C 4156   0.799   3.213  10.759  0.2140 -0.4630  0.5341
   57SAPC   C15 4157   0.486   3.312  10.819  0.7503 -0.3673  0.7033
   57SAPC  H15A 4158   0.501   3.419  10.815 -2.1655  0.1298  0.8045
   57SAPC  H15B 4159   0.431   3.281  10.731  1.8407 -0.2166 -0.0499
   57SAPC  H15C 4160   0.425   3.293  10.906 -0.5798 -1.0208 -0.3352
   57SAPC   C11 4161   0.532   3.039  10.664 -1.0499 -0.2683 -0.0288
   57SAPC  H11A 4162   0.436   3.092  10.649 -0.5207  0.4751 -0.9169
   57SAPC  H11B 4163   0.511   2.930  10.660  1.6904 -0.8782 -0.1508
   57SAPC     P 4164   0.752   2.989  10.540  0.2701 -0.2800  0.0362
   57SAPC   O13 4165   0.849   3.059  10.449  0.0051 -0.0209 -0.3987
   57SAPC   O14 4166   0.817   2.952  10.664 -0.0636  0.4962 -0.6627
   57SAPC   O12 4167   0.622   3.078  10.561 -0.1879 -0.0881 -0.2668
   57SAPC   O11 4168   0.694   2.856  10.472  0.1084  0.1650  0.6410
   57SAPC    C1 4169   0.647   2.861  10.336 -0.5561  0.8072  0.7299
   57SAPC    HA 4170   0.557   2.796  10.344  1.1068 -1.3964  2.9313
   57SAPC    HB 4171   0.630   2.962  10.293 -1.7043 -0.4800 -2.1137
   57SAPC    C2 4172   0.737   2.782  10.237 -1.2183 -0.1890 -1.4699
   57SAPC    HS 4173   0.823   2.849  10.216  1.1409 -2.3884  0.4483
   57SAPC   O21 4174   0.653   2.755  10.123 -0.3513  0.1245 -0.1944
   57SAPC   C21 4175   0.720   2.764  10.012  0.8820 -0.7369 -0.4540
   57SAPC   O22 4176   0.835   2.797   9.997  0.4354 -0.4100 -0.2210
   57SAPC   C22 4177   0.632   2.741   9.890 -0.0546  0.4587  0.4634
   57SAPC   H2R 4178   0.535   2.694   9.918  0.5549  0.9278  3.7610
   57SAPC   H2S 4179   0.612   2.843   9.851  1.9544  0.7519  0.1262
   57SAPC    C3 4180   0.786   2.648  10.304  0.1824 -0.1282 -0.3449
   57SAPC    HX 4181   0.696   2.612  10.359  0.1374  1.9972  1.0628
   57SAPC    HY 4182   0.856   2.681  10.383  1.4599 -2.6654 -0.3315
   57SAPC   O31 4183   0.863   2.564  10.216 -0.2582 -0.1468 -0.2287
   57SAPC   C31 4184   0.828   2.434  10.225  0.2677 -0.1570 -0.0085
   57SAPC   O32 4185   0.740   2.393  10.299 -0.4184  0.3738  0.6354
   57SAPC   C32 4186   0.916   2.354  10.131  0.7991 -0.1499 -0.1340
   57SAPC   H2X 4187   1.013   2.343  10.185  1.0886 -0.2381 -0.6668
   57SAPC   H2Y 4188   0.936   2.416  10.041  1.0715  0.2148  0.1724
   57SAPC   C23 4189   0.692   2.656   9.777 -0.0593 -0.2232 -0.6001
   57SAPC   H3R 4190   0.749   2.569   9.815 -0.4083 -0.8922 -1.5673
   57SAPC   H3S 4191   0.756   2.717   9.709 -0.5798  1.1475  0.0938
   57SAPC   C24 4192   0.574   2.587   9.704 -0.4969  0.5376 -0.2413
   57SAPC   H4R 4193   0.510   2.531   9.776  0.3922  1.0139  0.9510
   57SAPC   H4S 4194   0.632   2.508   9.653 -1.2758  0.2416 -0.6913
   57SAPC   C25 4195   0.494   2.678   9.615  0.6838  0.5704 -0.3337
   57SAPC   H5R 4196   0.538   2.729   9.528 -1.0066  2.1795 -0.3094
   57SAPC   C26 4197   0.362   2.713   9.643 -0.3339  0.0608 -0.6860
   57SAPC   H6R 4198   0.306   2.792   9.592  3.2263  4.1030  1.0189
   57SAPC   C27 4199   0.272   2.651   9.755 -0.1434 -0.0578 -0.3989
   57SAPC   H7R 4200   0.341   2.627   9.839  1.6788  0.2560 -1.7445
   57SAPC   H7S 4201   0.250   2.549   9.718  1.0176 -0.8519  0.9685
   57SAPC   C28 4202   0.142   2.719   9.804 -0.1465  0.1227 -0.0056
   57SAPC   H8R 4203   0.151   2.743   9.911  0.4783 -1.8442  0.4262
   57SAPC   C29 4204   0.034   2.762   9.737 -0.4488 -0.3175 -0.3332
   57SAPC   H9R 4205  -0.039   2.809   9.804  2.0631 -0.4745  2.7417
   57SAPC  C210 4206   0.004   2.758   9.592  0.3105 -0.2620  0.4775
   57SAPC  H10R 4207   0.076   2.687   9.546 -0.2657 -0.5018 -0.0677
   57SAPC  H10S 4208   0.020   2.857   9.544  0.0888 -0.5150 -0.1299
   57SAPC  C211 4209  -0.138   2.704   9.569 -0.0312 -0.3369 -0.5282
   57SAPC  H11R 4210  -0.179   2.644   9.651  0.6899  0.9370  0.8156
   57SAPC  C212 4211  -0.210   2.739   9.458  0.1043  0.0859  0.1384
   57SAPC  H12R 4212  -0.312   2.698   9.456 -0.4300  1.4031 -0.6710
   57SAPC  C213 4213  -0.179   2.815   9.334  0.1009  0.5919  0.4076
   57SAPC  H13R 4214  -0.208   2.747   9.251 -1.9540  0.3491  1.2675
   57SAPC  H13S 4215  -0.069   2.829   9.325  0.3982 -1.7481 -0.2587
   57SAPC  C214 4216  -0.235   2.956   9.313  0.6214  0.7156  0.1961
   57SAPC  H14R 4217  -0.289   2.995   9.401 -0.1659  0.7372 -0.2808
   57SAPC  C215 4218  -0.233   3.023   9.194  0.2931 -0.1767 -0.5469
   57SAPC  H15R 4219  -0.282   3.121   9.186  0.0270 -0.2000  0.7349
   57SAPC  C216 4220  -0.186   2.991   9.057 -0.2214  0.8339  0.1044
   57SAPC  H16R 4221  -0.082   3.027   9.038 -0.6238  3.9268  2.9358
   57SAPC  H16S 4222  -0.245   3.042   8.978 -1.6474 -1.8131 -0.6483
   57SAPC  C217 4223  -0.213   2.850   9.002  0.2764  0.7311 -0.2960
   57SAPC  H17R 4224  -0.324   2.840   9.009  0.2395  1.4170  0.2014
   57SAPC  H17S 4225  -0.167   2.774   9.068 -0.7471  1.7779  1.7026
   57SAPC  C218 4226  -0.181   2.830   8.850 -0.5311 -0.1644 -0.0146
   57SAPC  H18R 4227  -0.248   2.895   8.790  0.8064 -0.4682 -1.9295
   57SAPC  H18S 4228  -0.197   2.723   8.824 -2.0747  0.4392 -1.7698
   57SAPC  C219 4229  -0.033   2.864   8.827 -0.4234 -0.4670 -0.7282
   57SAPC  H19R 4230   0.016   2.816   8.915  1.0812 -1.3379 -1.9795
   57SAPC  H19S 4231  -0.011   2.972   8.841  2.7421 -1.0474 -0.2996
   57SAPC  C220 4232   0.037   2.820   8.703 -0.4806  1.2787  0.3181
   57SAPC  H20R 4233   0.141   2.855   8.685 -0.3479  0.8475  0.2310
   57SAPC  H20S 4234  -0.031   2.835   8.617 -0.0658  0.8554 -0.0881
   57SAPC  H20T 4235   0.042   2.710   8.717  1.2348  1.3416  0.3729
   57SAPC   C33 4236   0.854   2.225  10.091 -0.2543  0.0348  0.5201
   57SAPC   H3X 4237   0.753   2.242  10.049  0.0039  1.3359  0.3719
   57SAPC   H3Y 4238   0.848   2.153  10.175  1.2888 -1.4718 -0.5998
   57SAPC   C34 4239   0.932   2.148   9.980 -0.2931  0.3721 -0.3181
   57SAPC   H4X 4240   0.885   2.051   9.954 -2.3156  1.7580 -2.1213
   57SAPC   H4Y 4241   1.036   2.131  10.017  0.1772  0.8993 -1.3632
   57SAPC   C35 4242   0.940   2.223   9.849 -0.3265  0.0206 -0.3450
   57SAPC   H5X 4243   1.003   2.311   9.872  1.0377 -1.0315  0.0972
   57SAPC   H5Y 4244   0.836   2.254   9.827 -0.2071  1.2361  0.7045
   57SAPC   C36 4245   1.007   2.140   9.739 -0.3665  0.2100 -0.2464
   57SAPC   H6X 4246   0.954   2.043   9.726  2.2863 -1.2979 -0.5505
   57SAPC   H6Y 4247   1.109   2.124   9.778 -0.0409  1.5977 -0.4660
   57SAPC   C37 4248   1.013   2.202   9.599  0.3586 -0.3511 -0.2320
   57SAPC   H7X 4249   1.070   2.131   9.536  3.7579  2.2689 -0.3868
   57SAPC   H7Y 4250   1.071   2.297   9.595 -1.1951  0.6301 -0.4310
   57SAPC   C38 4251   0.878   2.236   9.537 -0.5882  0.7295  0.2190
   57SAPC   H8X 4252   0.823   2.302   9.607  0.7343  0.9771  1.0408
   57SAPC   H8Y 4253   0.820   2.143   9.515  0.8563 -0.0057 -0.6285
   57SAPC   C39 4254   0.898   2.318   9.406 -0.8561 -0.0646  0.1473
   57SAPC   H9X 4255   0.972   2.262   9.345 -0.7449 -2.3580  2.2010
   57SAPC   H9Y 4256   0.946   2.414   9.434  2.2091 -1.8013  1.3416
   57SAPC  C310 4257   0.766   2.349   9.335 -0.6077 -0.5837 -0.0669
   57SAPC  H10X 4258   0.704   2.405   9.408  0.8193  0.9868  0.0188
   57SAPC  H10Y 4259   0.717   2.250   9.326 -0.4909 -0.4739 -2.9793
   57SAPC  C311 4260   0.779   2.430   9.207  0.0183  0.8474  0.1707
   57SAPC  H11X 4261   0.845   2.373   9.138 -0.7683 -1.2089  1.0262
   57SAPC  H11Y 4262   0.834   2.522   9.238  0.6572  0.4115  0.3440
   57SAPC  C312 4263   0.642   2.466   9.148  0.1298 -0.0640 -0.4122
   57SAPC  H12X 4264   0.591   2.529   9.225  0.3938  1.7686 -1.6694
   57SAPC  H12Y 4265   0.585   2.371   9.140  0.6607 -0.2363 -3.1997
   57SAPC  C313 4266   0.638   2.533   9.010 -0.0595 -0.4657  0.8401
   57SAPC  H13X 4267   0.697   2.477   8.934 -1.6172 -0.3091 -0.5558
   57SAPC  H13Y 4268   0.687   2.629   9.036 -2.7103  0.8289  1.4029
   57SAPC  C314 4269   0.505   2.571   8.952  0.0574  0.2904  0.1074
   57SAPC  H14X 4270   0.467   2.661   9.004 -1.1541  0.1389 -0.4759
   57SAPC  H14Y 4271   0.436   2.483   8.953 -1.0165  1.0557 -1.4592
   57SAPC  C315 4272   0.506   2.612   8.810  0.0535  0.1168 -0.3935
   57SAPC  H15X 4273   0.536   2.524   8.748  3.4752  0.9754 -0.1746
   57SAPC  H15Y 4274   0.585   2.690   8.803  2.3159 -1.5562  3.0945
   57SAPC  C316 4275   0.383   2.679   8.761  0.0489 -0.4113 -0.2415
   57SAPC  H16X 4276   0.360   2.765   8.827 -0.0971 -0.2037 -0.5588
   57SAPC  H16Y 4277   0.298   2.609   8.764 -0.2217 -0.0483  1.5808
   57SAPC  C317 4278   0.390   2.741   8.611  0.8014  0.0941  0.1416
   57SAPC  H17X 4279   0.284   2.755   8.580  0.8431 -0.1174 -0.1034
   57SAPC  H17Y 4280   0.433   2.655   8.556 -1.0880 -2.2762  2.1536
   57SAPC  C318 4281   0.466   2.874   8.591  0.2354  0.6851  0.7424
   57SAPC  H18X 4282   0.574   2.862   8.568  0.1026  0.5320  0.1680
   57SAPC  H18Y 4283   0.461   2.938   8.681  1.4791 -0.1817  1.4620
   57SAPC  H18Z 4284   0.432   2.924   8.497 -1.1385 -1.2682  0.1447
   58SAPC     N 4285   1.669   3.013  10.530 -0.2079 -0.3142 -0.1365
   58SAPC   C12 4286   1.707   3.014  10.676 -0.0682  0.5380  0.1832
   58SAPC  H12A 4287   1.609   3.010  10.722 -1.2695 -2.9697 -2.2054
   58SAPC  H12B 4288   1.757   3.107  10.697 -1.8809  1.4077  0.7748
   58SAPC   C13 4289   1.582   2.897  10.510 -0.2542 -0.0869 -0.5501
   58SAPC  H13A 4290   1.539   2.884  10.412 -0.2301  0.6965 -0.6741
   58SAPC  H13B 4291   1.621   2.803  10.545 -1.0495 -0.6380 -1.1206
   58SAPC  H13C 4292   1.498   2.905  10.578  1.2638 -1.1276  1.5725
   58SAPC   C14 4293   1.607   3.142  10.493 -0.7290 -0.6366 -0.1892
   58SAPC  H14A 4294   1.511   3.154  10.542 -0.8543 -0.4901 -0.4711
   58SAPC  H14B 4295   1.665   3.224  10.532 -2.8996  0.3986  1.0027
   58SAPC  H14C 4296   1.598   3.152  10.386 -1.5451  1.0044  0.0098
   58SAPC   C15 4297   1.792   2.991  10.447  0.1156  0.2468 -0.2003
   58SAPC  H15A 4298   1.854   2.911  10.484  1.6730  1.0419 -0.9934
   58SAPC  H15B 4299   1.766   2.954  10.349 -1.4197  0.0930  0.2435
   58SAPC  H15C 4300   1.854   3.080  10.447  0.3733  0.2233  3.3890
   58SAPC   C11 4301   1.773   2.888  10.734 -0.4362 -0.2307 -0.1012
   58SAPC  H11A 4302   1.800   2.916  10.838 -0.5020 -0.4512 -0.0258
   58SAPC  H11B 4303   1.864   2.867  10.673 -0.3215 -2.3245  0.7176
   58SAPC     P 4304   1.715   2.644  10.787  0.3313  0.4814  0.2414
   58SAPC   O13 4305   1.851   2.644  10.838 -0.1081 -0.1211  0.0071
   58SAPC   O14 4306   1.606   2.603  10.882 -0.5535 -0.4343 -0.2829
   58SAPC   O12 4307   1.678   2.786  10.739 -0.2044 -0.2971 -0.4453
   58SAPC   O11 4308   1.703   2.554  10.659  0.5298 -0.6365  0.2615
   58SAPC    C1 4309   1.591   2.539  10.577  0.7699 -0.0827  0.1921
   58SAPC    HA 4310   1.515   2.470  10.621 -1.0571  0.4632 -1.8771
   58SAPC    HB 4311   1.542   2.632  10.542  1.1767  0.0287 -0.0839
   58SAPC    C2 4312   1.638   2.477  10.442  0.2962  0.5914  0.0871
   58SAPC    HS 4313   1.672   2.373  10.461 -0.9307 -0.0410 -1.0369
   58SAPC   O21 4314   1.743   2.559  10.389 -0.2945 -0.3079 -0.4919
   58SAPC   C21 4315   1.870   2.540  10.430  0.1906 -0.5892 -0.3325
   58SAPC   O22 4316   1.911   2.445  10.496  0.6653 -0.1738  0.8889
   58SAPC   C22 4317   1.955   2.653  10.372  0.2307  0.1170  0.0236
   58SAPC   H2R 4318   1.965   2.629  10.264 -2.2879 -1.1230  0.0050
   58SAPC   H2S 4319   1.896   2.747  10.372 -1.1429 -0.5211 -4.3579
   58SAPC    C3 4320   1.522   2.465  10.341 -0.5851  0.3859 -0.0260
   58SAPC    HX 4321   1.451   2.550  10.348 -0.8759  0.0563  1.0764
   58SAPC    HY 4322   1.451   2.388  10.376  0.1492 -0.5247 -0.4907
   58SAPC   O31 4323   1.560   2.428  10.204 -0.2640  0.2708 -0.6346
   58SAPC   C31 4324   1.580   2.531  10.123 -0.1471 -0.1970  0.0681
   58SAPC   O32 4325   1.576   2.651  10.149 -0.1379 -0.2824  0.2716
   58SAPC   C32 4326   1.600   2.472   9.980  0.6392  0.3361 -0.8008
   58SAPC   H2X 4327   1.573   2.544   9.899  0.8369 -0.8536 -1.9526
   58SAPC   H2Y 4328   1.533   2.383   9.977  2.3631 -1.0862  0.6248
   58SAPC   C23 4329   2.092   2.664  10.431 -0.9854 -1.1156 -0.3886
   58SAPC   H3R 4330   2.140   2.564  10.434 -2.1932 -1.6973  1.1954
   58SAPC   H3S 4331   2.069   2.700  10.534 -0.9052  1.5524 -1.2291
   58SAPC   C24 4332   2.181   2.784  10.385  0.4124 -0.0147 -0.1525
   58SAPC   H4R 4333   2.252   2.816  10.464 -0.3873  0.4618  0.3843
   58SAPC   H4S 4334   2.116   2.874  10.376  1.5091  0.8400  0.2417
   58SAPC   C25 4335   2.261   2.759  10.258 -0.1369  0.1914  0.6291
   58SAPC   H5R 4336   2.355   2.709  10.285 -0.4832 -0.7212  0.1838
   58SAPC   C26 4337   2.216   2.781  10.132  0.4294 -0.4992 -0.6172
   58SAPC   H6R 4338   2.283   2.749  10.050  0.1150  1.0247 -1.5206
   58SAPC   C27 4339   2.081   2.838  10.088 -0.0113  0.1229 -0.1826
   58SAPC   H7R 4340   2.082   2.947  10.071 -1.7367 -0.0908 -2.1436
   58SAPC   H7S 4341   2.005   2.810  10.165 -1.9546  2.1421 -1.2463
   58SAPC   C28 4342   2.017   2.768   9.967 -1.1849 -0.1532  0.0274
   58SAPC   H8R 4343   1.975   2.667   9.981 -0.4313 -0.5555 -0.5703
   58SAPC   C29 4344   2.011   2.812   9.842  0.1787 -1.0421  0.6426
   58SAPC   H9R 4345   1.986   2.742   9.761 -0.5087 -1.7243  1.4235
   58SAPC  C210 4346   2.060   2.946   9.793 -0.7477  0.3226  0.6393
   58SAPC  H10R 4347   2.128   3.001   9.862  0.2254  0.1002 -0.1302
   58SAPC  H10S 4348   1.970   3.008   9.774 -1.4526 -1.4625 -2.5756
   58SAPC  C211 4349   2.141   2.941   9.664 -0.6407  0.3522 -0.2171
   58SAPC  H11R 4350   2.245   2.973   9.684  0.1255 -2.0763  0.0271
   58SAPC  C212 4351   2.112   2.896   9.538  0.2462  0.3439  0.3006
   58SAPC  H12R 4352   2.183   2.905   9.455 -0.4227  1.9670 -0.1296
   58SAPC  C213 4353   1.986   2.834   9.489  0.0981 -0.6474 -0.7615
   58SAPC  H13R 4354   1.912   2.915   9.505  0.4190  0.1304 -2.9314
   58SAPC  H13S 4355   1.952   2.758   9.564 -1.4928  0.7203 -0.0143
   58SAPC  C214 4356   1.973   2.771   9.352 -0.8644  0.4277 -0.1969
   58SAPC  H14R 4357   1.939   2.667   9.344 -0.7945  0.2540  1.4000
   58SAPC  C215 4358   2.007   2.822   9.231  0.4320 -0.4542  0.3678
   58SAPC  H15R 4359   1.988   2.766   9.138 -1.5414  2.6353 -1.2585
   58SAPC  C216 4360   2.062   2.955   9.192 -0.2381 -0.0767 -0.1266
   58SAPC  H16R 4361   2.075   3.038   9.264 -0.4428  0.1229 -0.3200
   58SAPC  H16S 4362   2.000   3.007   9.116  0.1161 -0.6893 -0.8451
   58SAPC  C217 4363   2.203   2.926   9.134 -0.1781 -0.3975 -0.1805
   58SAPC  H17R 4364   2.264   2.854   9.193 -2.4369 -1.6452  0.7617
   58SAPC  H17S 4365   2.247   3.028   9.131 -2.4642  0.6511 -0.4018
   58SAPC  C218 4366   2.198   2.895   8.980 -0.0824  0.4471 -0.1408
   58SAPC  H18R 4367   2.112   2.953   8.941  0.9367  1.7734 -0.5038
   58SAPC  H18S 4368   2.170   2.788   8.972  0.4900  0.2103  0.8137
   58SAPC  C219 4369   2.336   2.928   8.915 -0.0425  0.6012 -0.0883
   58SAPC  H19R 4370   2.344   2.859   8.829 -2.2121  1.2604 -0.9015
   58SAPC  H19S 4371   2.412   2.900   8.991 -0.0131 -1.0230 -0.6792
   58SAPC  C220 4372   2.361   3.074   8.870  0.3359 -0.6236 -0.1898
   58SAPC  H20R 4373   2.469   3.084   8.844  0.2773  2.3485  0.3503
   58SAPC  H20S 4374   2.349   3.133   8.964  3.8011 -2.3550  1.5764
   58SAPC  H20T 4375   2.300   3.115   8.787  0.5542  1.9523  0.8223
   58SAPC   C33 4376   1.752   2.435   9.966  0.1531 -0.0953 -0.2920
   58SAPC   H3X 4377   1.785   2.387  10.061  0.4362 -0.5523 -0.6173
   58SAPC   H3Y 4378   1.814   2.526   9.955  1.2406 -0.6997  0.5704
   58SAPC   C34 4379   1.781   2.366   9.834 -0.4935  0.1513  0.0300
   58SAPC   H4X 4380   1.712   2.280   9.819  0.0078  0.0782 -2.2045
   58SAPC   H4Y 4381   1.887   2.336   9.826  0.0235  2.0908 -0.8908
   58SAPC   C35 4382   1.752   2.459   9.710  0.0577 -0.8387 -0.3741
   58SAPC   H5X 4383   1.812   2.551   9.723 -0.9296 -0.0469 -1.2072
   58SAPC   H5Y 4384   1.645   2.486   9.698  0.0572 -1.0596 -0.8880
   58SAPC   C36 4385   1.801   2.400   9.576  0.1671  0.3019  0.8023
   58SAPC   H6X 4386   1.801   2.292   9.600 -0.7244 -0.0038 -0.4754
   58SAPC   H6Y 4387   1.910   2.419   9.562  0.0953 -0.5374 -1.1465
   58SAPC   C37 4388   1.721   2.434   9.454  0.6863  0.4282  0.1013
   58SAPC   H7X 4389   1.706   2.544   9.455 -1.2936  0.2082  0.2373
   58SAPC   H7Y 4390   1.616   2.397   9.459  0.4582  0.7466 -1.7128
   58SAPC   C38 4391   1.784   2.388   9.327 -0.3416 -0.6419 -0.2115
   58SAPC   H8X 4392   1.805   2.279   9.337  0.1265 -0.5990 -0.6854
   58SAPC   H8Y 4393   1.885   2.433   9.316  0.2077 -1.6340  0.5479
   58SAPC   C39 4394   1.694   2.421   9.203 -0.2854  0.4801 -0.4845
   58SAPC   H9X 4395   1.595   2.374   9.222  0.7529 -0.6227  2.8036
   58SAPC   H9Y 4396   1.741   2.369   9.116 -0.5879 -1.6015  0.5373
   58SAPC  C310 4397   1.683   2.567   9.181 -0.0399  0.8143  0.2224
   58SAPC  H10X 4398   1.773   2.620   9.219 -0.1111 -1.3722  3.8917
   58SAPC  H10Y 4399   1.598   2.604   9.242 -0.0264  0.2283  0.6091
   58SAPC  C311 4400   1.671   2.590   9.032  0.6027  0.9380  0.6584
   58SAPC  H11X 4401   1.760   2.572   8.968 -0.3273  2.0229 -1.0021
   58SAPC  H11Y 4402   1.666   2.701   9.028  1.7076  0.9550 -1.4463
   58SAPC  C312 4403   1.549   2.530   8.966 -1.0985  0.6077 -0.2279
   58SAPC  H12X 4404   1.455   2.556   9.020 -1.6882 -0.6272 -0.6162
   58SAPC  H12Y 4405   1.556   2.420   8.956  1.5411  0.7898 -1.0842
   58SAPC  C313 4406   1.527   2.575   8.818 -0.2628 -0.5157 -1.3323
   58SAPC  H13X 4407   1.463   2.496   8.774 -0.0593 -0.7814 -1.1544
   58SAPC  H13Y 4408   1.621   2.571   8.758  0.3919 -1.2470 -0.2776
   58SAPC  C314 4409   1.477   2.720   8.806  0.7026  0.0679 -0.2084
   58SAPC  H14X 4410   1.541   2.805   8.838 -0.5567  0.9418  0.0625
   58SAPC  H14Y 4411   1.388   2.724   8.871  0.3618  0.7422 -0.7073
   58SAPC  C315 4412   1.419   2.746   8.667  0.2058  0.2477  0.4620
   58SAPC  H15X 4413   1.337   2.674   8.648 -0.9333  1.4785  0.5766
   58SAPC  H15Y 4414   1.493   2.725   8.587 -0.4118  3.2719 -1.0636
   58SAPC  C316 4415   1.369   2.888   8.633 -0.2314  0.0211  0.2737
   58SAPC  H16X 4416   1.455   2.956   8.653 -0.6652  0.4758  0.6215
   58SAPC  H16Y 4417   1.283   2.917   8.697 -0.5217 -0.6389  0.1936
   58SAPC  C317 4418   1.331   2.899   8.487  0.0436 -0.2491  0.2752
   58SAPC  H17X 4419   1.246   2.831   8.465 -0.6097  0.5380  0.3003
   58SAPC  H17Y 4420   1.413   2.867   8.420  0.5170  1.8500 -0.2220
   58SAPC  C318 4421   1.292   3.046   8.456 -0.0766 -0.2457 -0.1737
   58SAPC  H18X 4422   1.276   3.054   8.346 -2.4617  2.5419  0.2561
   58SAPC  H18Y 4423   1.362   3.123   8.494  0.2028 -0.3661 -0.4352
   58SAPC  H18Z 4424   1.191   3.061   8.500  0.5523  0.3478  1.1056
   59SAPC     N 4425   3.711   3.532  11.504 -0.2583  0.0208  0.5792
   59SAPC   C12 4426   3.651   3.596  11.378  0.1382 -0.0242  0.2483
   59SAPC  H12A 4427   3.585   3.681  11.389  0.1342  0.3208 -1.9377
   59SAPC  H12B 4428   3.598   3.526  11.316  0.1989  2.2979 -2.6210
   59SAPC   C13 4429   3.595   3.476  11.583  0.3379 -0.3267  0.1322
   59SAPC  H13A 4430   3.523   3.427  11.519 -1.2257 -0.0117  1.5577
   59SAPC  H13B 4431   3.611   3.396  11.654 -2.8842 -0.4950  0.8315
   59SAPC  H13C 4432   3.540   3.554  11.633 -0.5017  0.3733 -1.7936
   59SAPC   C14 4433   3.791   3.413  11.462 -0.6361 -0.3751 -0.6764
   59SAPC  H14A 4434   3.738   3.329  11.422 -0.7363  0.7101 -3.0087
   59SAPC  H14B 4435   3.870   3.446  11.395  0.5610 -0.0117  0.8476
   59SAPC  H14C 4436   3.848   3.377  11.546  0.7771 -0.7070 -1.7316
   59SAPC   C15 4437   3.799   3.621  11.585  0.0882 -0.4588 -0.8352
   59SAPC  H15A 4438   3.736   3.696  11.629 -1.4521 -1.7887 -0.6933
   59SAPC  H15B 4439   3.851   3.566  11.662  0.1096 -1.2569 -1.4112
   59SAPC  H15C 4440   3.875   3.674  11.529 -1.2479  4.3317  1.3669
   59SAPC   C11 4441   3.755   3.657  11.291 -0.0331 -0.0307  0.5724
   59SAPC  H11A 4442   3.827   3.575  11.271  0.8796  0.4221  1.9075
   59SAPC  H11B 4443   3.824   3.735  11.330 -0.5393  0.4481  0.5276
   59SAPC     P 4444   3.660   3.625  11.054 -0.3335 -0.1922  0.2285
   59SAPC   O13 4445   3.571   3.515  11.094 -0.4888  0.2575 -0.0841
   59SAPC   O14 4446   3.604   3.709  10.949 -0.1813 -0.4804 -0.3003
   59SAPC   O12 4447   3.695   3.713  11.175  0.1974 -0.8009  0.0114
   59SAPC   O11 4448   3.803   3.566  11.006  0.6768 -0.1501  0.3727
   59SAPC    C1 4449   3.848   3.435  11.010  0.1384 -0.0633  0.5601
   59SAPC    HA 4450   3.938   3.447  11.075 -0.0702 -0.5142  0.9399
   59SAPC    HB 4451   3.785   3.362  11.065  0.9908  0.3164  2.1212
   59SAPC    C2 4452   3.882   3.393  10.865  0.4600 -0.7990 -0.5472
   59SAPC    HS 4453   3.973   3.453  10.845  1.4378 -1.7900  0.7229
   59SAPC   O21 4454   3.762   3.411  10.787  0.0507  0.3328  0.6502
   59SAPC   C21 4455   3.766   3.510  10.705  0.1041 -0.7225  0.3364
   59SAPC   O22 4456   3.846   3.597  10.702 -0.2473 -0.5037  0.2027
   59SAPC   C22 4457   3.650   3.494  10.607  0.0193  0.0885 -0.1560
   59SAPC   H2R 4458   3.622   3.388  10.592 -1.1766  0.1390  1.4369
   59SAPC   H2S 4459   3.565   3.546  10.657  0.1000 -1.0679  1.2574
   59SAPC    C3 4460   3.921   3.246  10.843  0.3628 -0.0985  0.6864
   59SAPC    HX 4461   3.841   3.170  10.856  2.1672 -1.9085  2.0615
   59SAPC    HY 4462   3.985   3.221  10.931  1.9449  0.8404 -0.1434
   59SAPC   O31 4463   4.009   3.233  10.734  0.7773 -0.6703 -0.1234
   59SAPC   C31 4464   3.961   3.181  10.620  0.2669  0.3715 -0.2173
   59SAPC   O32 4465   3.842   3.152  10.598 -0.1770 -0.6659 -0.3175
   59SAPC   C32 4466   4.082   3.150  10.525 -0.1450 -0.0109 -0.1032
   59SAPC   H2X 4467   4.115   3.045  10.544  0.7157  0.0824 -0.9827
   59SAPC   H2Y 4468   4.160   3.225  10.547 -1.8321  1.4395  1.1503
   59SAPC   C23 4469   3.680   3.542  10.469  0.3801  0.0558  0.7921
   59SAPC   H3R 4470   3.776   3.496  10.436 -0.3808 -0.7134 -0.4051
   59SAPC   H3S 4471   3.681   3.653  10.475 -1.0713  0.0443  1.5243
   59SAPC   C24 4472   3.564   3.498  10.375  0.1024 -0.4747 -0.9676
   59SAPC   H4R 4473   3.563   3.570  10.289 -0.1523  0.5642 -0.1158
   59SAPC   H4S 4474   3.477   3.523  10.438  1.0606  1.0147 -0.1665
   59SAPC   C25 4475   3.567   3.349  10.334  0.1026  0.5455  0.0863
   59SAPC   H5R 4476   3.540   3.270  10.405  0.4587 -1.0242 -1.4452
   59SAPC   C26 4477   3.615   3.304  10.214  0.4131 -0.9268 -0.1277
   59SAPC   H6R 4478   3.607   3.197  10.191 -0.8007 -0.7597 -0.5833
   59SAPC   C27 4479   3.665   3.392  10.096 -0.0484 -0.4966  0.2725
   59SAPC   H7R 4480   3.665   3.502  10.116  1.3966  0.0140 -2.1411
   59SAPC   H7S 4481   3.595   3.391  10.010 -2.7401  4.2871  1.9799
   59SAPC   C28 4482   3.810   3.344  10.052  0.1442 -0.0240 -0.4964
   59SAPC   H8R 4483   3.888   3.355  10.129  2.1543 -1.1473 -2.2521
   59SAPC   C29 4484   3.836   3.306   9.921  0.0318  0.4377 -0.2716
   59SAPC   H9R 4485   3.942   3.289   9.899 -0.0386 -2.1824  1.0089
   59SAPC  C210 4486   3.739   3.301   9.806  0.5879 -0.3244 -0.2380
   59SAPC  H10R 4487   3.632   3.292   9.834  0.7694 -2.7545 -0.0751
   59SAPC  H10S 4488   3.757   3.201   9.761  1.1611 -0.6458  0.6849
   59SAPC  C211 4489   3.738   3.422   9.717  0.3073 -0.2580 -0.5113
   59SAPC  H11R 4490   3.723   3.525   9.753  4.1028  0.4563 -0.5932
   59SAPC  C212 4491   3.752   3.410   9.587  0.5902 -0.2134 -0.5576
   59SAPC  H12R 4492   3.754   3.499   9.523  1.5217 -0.5401 -1.0063
   59SAPC  C213 4493   3.771   3.283   9.500  0.3163  1.0668 -0.3764
   59SAPC  H13R 4494   3.720   3.290   9.401  1.9879 -1.3889 -1.4928
   59SAPC  H13S 4495   3.727   3.196   9.552  1.1367 -0.0080 -1.4135
   59SAPC  C214 4496   3.916   3.258   9.470 -0.6963  1.0180  0.2893
   59SAPC  H14R 4497   3.973   3.230   9.559  0.3287  0.3135 -0.5615
   59SAPC  C215 4498   3.977   3.256   9.347  0.0639 -0.4656 -0.1633
   59SAPC  H15R 4499   4.086   3.248   9.336  0.0350 -2.7747  0.5267
   59SAPC  C216 4500   3.898   3.287   9.221  0.0487 -0.5235 -0.4954
   59SAPC  H16R 4501   3.816   3.357   9.244 -1.1824 -2.2523  0.6302
   59SAPC  H16S 4502   3.846   3.193   9.192  0.4715 -1.2063  0.8811
   59SAPC  C217 4503   3.976   3.349   9.102 -0.6221  0.6516  0.5526
   59SAPC  H17R 4504   4.074   3.299   9.092 -1.3351 -0.8359  0.7646
   59SAPC  H17S 4505   4.009   3.450   9.136 -1.2040  0.4110  1.9116
   59SAPC  C218 4506   3.908   3.346   8.967  0.5261 -0.2556  0.6407
   59SAPC  H18R 4507   3.897   3.239   8.942 -0.2250 -0.2380  0.8567
   59SAPC  H18S 4508   3.970   3.394   8.889 -0.9712  0.6521 -0.0405
   59SAPC  C219 4509   3.780   3.422   8.967  0.2127  0.3400 -0.2232
   59SAPC  H19R 4510   3.809   3.514   9.022 -0.0693 -1.4198  3.1156
   59SAPC  H19S 4511   3.696   3.370   9.017  0.9961 -0.1983  0.5372
   59SAPC  C220 4512   3.724   3.437   8.822  0.4859 -0.3145  0.3426
   59SAPC  H20R 4513   3.799   3.493   8.762  1.1809 -2.1319 -0.5510
   59SAPC  H20S 4514   3.630   3.496   8.819  0.2864 -0.4381  2.6838
   59SAPC  H20T 4515   3.714   3.333   8.784 -2.0987 -0.1876  0.5031
   59SAPC   C33 4516   4.048   3.170  10.374  1.2271  0.1404  0.0960
   59SAPC   H3X 4517   4.022   3.273  10.344 -0.5521 -0.5254 -0.7723
   59SAPC   H3Y 4518   3.958   3.107  10.358  0.3140  1.6918 -1.1850
   59SAPC   C34 4519   4.159   3.127  10.285 -0.6006 -0.3273 -0.5458
   59SAPC   H4X 4520   4.155   3.016  10.279  1.8445 -0.8172  3.3364
   59SAPC   H4Y 4521   4.249   3.144  10.348 -2.9928 -1.8299  3.7165
   59SAPC   C35 4522   4.153   3.187  10.144 -0.9504 -0.1646 -0.5217
   59SAPC   H5X 4523   4.147   3.298  10.147  1.1681  0.0414  3.9315
   59SAPC   H5Y 4524   4.057   3.159  10.095 -2.6143  1.1104  1.8108
   59SAPC   C36 4525   4.256   3.129  10.044  0.4973  0.1219 -0.9446
   59SAPC   H6X 4526   4.243   3.019  10.049 -3.0331  0.4782  0.9537
   59SAPC   H6Y 4527   4.355   3.161  10.082 -0.3842 -1.0281  2.7058
   59SAPC   C37 4528   4.223   3.183   9.905 -0.9195 -0.2366 -0.8872
   59SAPC   H7X 4529   4.244   3.292   9.908 -1.5837 -0.1218  0.5300
   59SAPC   H7Y 4530   4.123   3.169   9.859 -1.2345  2.1310 -1.0656
   59SAPC   C38 4531   4.319   3.125   9.807  0.3046  0.7135 -0.3580
   59SAPC   H8X 4532   4.334   3.019   9.837 -1.8012  0.0396 -1.3976
   59SAPC   H8Y 4533   4.418   3.168   9.831  0.1941  0.4472  0.5963
   59SAPC   C39 4534   4.292   3.159   9.659  0.1336  0.0536 -0.1153
   59SAPC   H9X 4535   4.288   3.270   9.657 -0.1712  0.2867  4.1029
   59SAPC   H9Y 4536   4.198   3.106   9.635  1.0481 -2.2966  1.2205
   59SAPC  C310 4537   4.389   3.088   9.556  0.6798 -0.2304 -0.0148
   59SAPC  H10X 4538   4.394   2.979   9.575 -1.0249 -0.8112 -2.3820
   59SAPC  H10Y 4539   4.496   3.118   9.557  1.0053 -1.3143  1.5386
   59SAPC  C311 4540   4.338   3.105   9.412  0.5688 -0.8580 -0.3465
   59SAPC  H11X 4541   4.338   3.216   9.405  1.1362 -0.8697 -0.5569
   59SAPC  H11Y 4542   4.236   3.062   9.403 -0.6250  1.9702 -2.1418
   59SAPC  C312 4543   4.440   3.058   9.302  0.9748  0.3333 -0.4632
   59SAPC  H12X 4544   4.436   2.948   9.300 -1.4659  0.3640  0.3392
   59SAPC  H12Y 4545   4.549   3.074   9.321  0.7671  0.3112  0.8398
   59SAPC  C313 4546   4.395   3.115   9.167  0.3682  0.1522 -0.0585
   59SAPC  H13X 4547   4.390   3.226   9.162 -2.0359  0.0378 -2.8117
   59SAPC  H13Y 4548   4.293   3.077   9.142  0.4442  1.3310 -2.3540
   59SAPC  C314 4549   4.488   3.065   9.058 -0.1145 -0.5112 -0.4121
   59SAPC  H14X 4550   4.513   2.957   9.070 -1.9082 -1.1387 -1.8297
   59SAPC  H14Y 4551   4.581   3.125   9.052  0.2475 -0.9503  0.6291
   59SAPC  C315 4552   4.410   3.076   8.930  0.0274  0.8308 -0.2896
   59SAPC  H15X 4553   4.407   3.181   8.895 -1.0289  1.1851  0.8263
   59SAPC  H15Y 4554   4.301   3.059   8.938  0.0658  0.2255 -0.8683
   59SAPC  C316 4555   4.470   2.988   8.815 -0.0152  0.5864  0.4169
   59SAPC  H16X 4556   4.419   3.016   8.720  0.4300  0.1047  0.0329
   59SAPC  H16Y 4557   4.444   2.883   8.840 -0.7292  0.7967  0.5639
   59SAPC  C317 4558   4.624   3.009   8.774 -0.3872  0.4028  0.0804
   59SAPC  H17X 4559   4.648   2.940   8.690  0.2287 -0.4364  0.9223
   59SAPC  H17Y 4560   4.687   2.978   8.860  0.4000  2.8058  0.4575
   59SAPC  C318 4561   4.662   3.152   8.753  0.0275  0.0854  0.3668
   59SAPC  H18X 4562   4.624   3.199   8.660  1.5797  1.2209  0.2730
   59SAPC  H18Y 4563   4.770   3.172   8.737 -0.0843 -1.4152 -3.2220
   59SAPC  H18Z 4564   4.617   3.211   8.836 -0.5652 -0.8517  0.7326
   60SAPC     N 4565   5.898   2.023  10.793  0.0928 -0.1585  0.4763
   60SAPC   C12 4566   5.744   2.022  10.801  0.1839  0.1291 -0.2988
   60SAPC  H12A 4567   5.703   2.077  10.884  0.0756  0.0387 -0.2936
   60SAPC  H12B 4568   5.709   1.922  10.820 -0.2030 -0.1185 -2.0807
   60SAPC   C13 4569   5.960   2.162  10.793 -0.1919  0.6308 -0.5555
   60SAPC  H13A 4570   5.945   2.214  10.700  2.3424 -0.4291 -1.6650
   60SAPC  H13B 4571   5.919   2.223  10.872 -0.4016 -0.5631  0.2901
   60SAPC  H13C 4572   6.067   2.157  10.809 -0.2093 -0.1190 -0.6251
   60SAPC   C14 4573   5.950   1.962  10.916 -0.6948  0.1925 -0.3015
   60SAPC  H14A 4574   6.055   1.937  10.910 -0.2907  1.8100 -0.4114
   60SAPC  H14B 4575   5.919   2.008  11.008 -0.3693 -0.3259  0.0781
   60SAPC  H14C 4576   5.909   1.862  10.928  2.4846 -1.1684  0.4391
   60SAPC   C15 4577   5.947   1.948  10.674 -0.7812  0.3204  0.2267
   60SAPC  H15A 4578   5.917   1.844  10.672  0.7394 -0.1197 -0.3130
   60SAPC  H15B 4579   5.911   1.994  10.584 -1.0260  1.2008  0.7605
   60SAPC  H15C 4580   6.054   1.952  10.674 -0.6730 -1.0070 -2.0806
   60SAPC   C11 4581   5.660   2.067  10.677 -0.3268 -0.5727  0.2571
   60SAPC  H11A 4582   5.685   2.174  10.665  0.8468 -0.9124 -0.5425
   60SAPC  H11B 4583   5.551   2.066  10.694 -0.4477  0.7538 -0.3147
   60SAPC     P 4584   5.633   1.853  10.533 -0.4439  0.2000  0.2908
   60SAPC   O13 4585   5.661   1.812  10.392  0.3884  0.3243  0.0188
   60SAPC   O14 4586   5.683   1.763  10.646 -0.4943 -0.0163 -0.0375
   60SAPC   O12 4587   5.698   2.002  10.551 -0.1346 -0.5132 -0.1744
   60SAPC   O11 4588   5.477   1.869  10.554  0.2634  0.3063 -0.0786
   60SAPC    C1 4589   5.390   1.803  10.464  0.2752 -0.1745  0.0334
   60SAPC    HA 4590   5.432   1.716  10.410  1.7825 -0.4009  1.5103
   60SAPC    HB 4591   5.304   1.765  10.523  0.1456  1.9589  1.3062
   60SAPC    C2 4592   5.316   1.908  10.378  0.4962  0.3300 -0.3505
   60SAPC    HS 4593   5.224   1.860  10.338  0.4367  1.6970 -1.9785
   60SAPC   O21 4594   5.401   1.956  10.272 -0.5966  0.4842  0.0803
   60SAPC   C21 4595   5.402   1.880  10.173 -0.4229  0.6093 -0.2922
   60SAPC   O22 4596   5.347   1.769  10.160 -0.3140 -0.6135 -0.2969
   60SAPC   C22 4597   5.474   1.955  10.062 -0.1532 -0.1237 -0.5493
   60SAPC   H2R 4598   5.414   2.042  10.027 -1.1369 -0.2734  0.7087
   60SAPC   H2S 4599   5.556   2.013  10.110 -0.3080  0.5804 -1.1155
   60SAPC    C3 4600   5.272   2.032  10.455 -0.3330  0.3118  0.2737
   60SAPC    HX 4601   5.363   2.089  10.485  0.4362 -0.7977  0.1083
   60SAPC    HY 4602   5.222   2.005  10.551  2.7278 -1.8613  1.3914
   60SAPC   O31 4603   5.183   2.120  10.373  0.2398 -0.1788  0.7768
   60SAPC   C31 4604   5.153   2.239  10.421 -0.5892 -0.2005  0.0462
   60SAPC   O32 4605   5.191   2.285  10.527  0.4491  0.1396  0.3135
   60SAPC   C32 4606   5.076   2.307  10.307 -0.2605 -0.2981 -0.6031
   60SAPC   H2X 4607   5.051   2.408  10.344  3.0571  0.4798 -0.2181
   60SAPC   H2Y 4608   4.993   2.241  10.272  0.5364 -2.2481  0.9800
   60SAPC   C23 4609   5.520   1.867   9.943  0.5114 -0.7706 -0.7158
   60SAPC   H3R 4610   5.447   1.874   9.859 -0.1187 -1.0126 -0.1978
   60SAPC   H3S 4611   5.538   1.761   9.969 -0.9748 -0.6235  1.0896
   60SAPC   C24 4612   5.649   1.913   9.881 -0.2858 -0.1275  0.1198
   60SAPC   H4R 4613   5.634   2.019   9.850 -0.5682 -0.3323 -0.4550
   60SAPC   H4S 4614   5.672   1.864   9.784 -0.9122  1.9219 -1.1097
   60SAPC   C25 4615   5.768   1.898   9.965 -0.6572 -0.2763 -1.1954
   60SAPC   H5R 4616   5.788   1.978  10.037  1.5563 -1.3241 -0.5583
   60SAPC   C26 4617   5.852   1.795   9.973 -0.7116  0.4400 -0.0092
   60SAPC   H6R 4618   5.933   1.822  10.042 -2.0208  1.9104  1.0228
   60SAPC   C27 4619   5.866   1.670   9.884 -0.1812  0.1856 -0.0888
   60SAPC   H7R 4620   5.765   1.626   9.867  0.5595 -1.8244  0.4183
   60SAPC   H7S 4621   5.917   1.585   9.934 -0.9481 -0.5702 -0.5502
   60SAPC   C28 4622   5.942   1.703   9.757  0.5803  0.7937 -0.4926
   60SAPC   H8R 4623   6.038   1.748   9.785 -0.6529  2.1818  1.7457
   60SAPC   C29 4624   5.906   1.683   9.630 -0.5789 -0.1326  0.3620
   60SAPC   H9R 4625   5.983   1.711   9.556 -1.9740 -0.1462 -1.1586
   60SAPC  C210 4626   5.786   1.635   9.563  0.3940  0.2257 -0.6841
   60SAPC  H10R 4627   5.730   1.560   9.623 -0.1697 -0.3448 -1.8812
   60SAPC  H10S 4628   5.814   1.573   9.475  2.5163  0.6209 -0.3276
   60SAPC  C211 4629   5.705   1.758   9.524  0.1327  0.2532 -0.1633
   60SAPC  H11R 4630   5.633   1.790   9.601 -1.1675  0.3411 -1.3786
   60SAPC  C212 4631   5.696   1.818   9.406 -0.6046  0.3664 -1.2826
   60SAPC  H12R 4632   5.652   1.919   9.405 -0.3379  0.6075  1.9964
   60SAPC  C213 4633   5.772   1.763   9.286  0.4665 -0.1002 -0.6034
   60SAPC  H13R 4634   5.719   1.677   9.240 -0.5474  0.3353 -0.2718
   60SAPC  H13S 4635   5.869   1.730   9.329  0.7228  0.9655 -0.3490
   60SAPC  C214 4636   5.792   1.862   9.180 -0.4707 -0.5301  0.5696
   60SAPC  H14R 4637   5.755   1.965   9.192  0.5135  0.3949 -3.0313
   60SAPC  C215 4638   5.858   1.844   9.062 -0.4127  0.3201  0.4615
   60SAPC  H15R 4639   5.893   1.926   8.997  0.0635  1.1210  1.6995
   60SAPC  C216 4640   5.916   1.709   9.032  0.2504 -0.5145 -0.1534
   60SAPC  H16R 4641   5.838   1.630   9.038  1.2882 -1.7075 -1.4640
   60SAPC  H16S 4642   5.998   1.673   9.097  0.7713  0.7533 -0.0897
   60SAPC  C217 4643   5.981   1.680   8.893 -0.0719 -0.0033 -0.7484
   60SAPC  H17R 4644   5.910   1.690   8.807 -1.6546 -0.4708  0.4547
   60SAPC  H17S 4645   6.028   1.579   8.895 -0.4822 -0.2315  2.7482
   60SAPC  C218 4646   6.078   1.793   8.856  0.1129  0.1079  0.1284
   60SAPC  H18R 4647   6.161   1.789   8.929  0.9312 -2.2568 -0.8208
   60SAPC  H18S 4648   6.024   1.890   8.855  1.4703  0.9640  2.4673
   60SAPC  C219 4649   6.136   1.763   8.714 -0.1015 -0.3868 -0.4370
   60SAPC  H19R 4650   6.060   1.772   8.634 -1.2575 -0.3416  0.6298
   60SAPC  H19S 4651   6.169   1.658   8.731  0.2619 -0.0295  1.2887
   60SAPC  C220 4652   6.251   1.847   8.672  0.3538 -0.0865  0.2606
   60SAPC  H20R 4653   6.324   1.849   8.755  1.0621 -0.2963 -0.3392
   60SAPC  H20S 4654   6.222   1.953   8.655  0.8993  0.2641  1.4502
   60SAPC  H20T 4655   6.286   1.812   8.572 -0.9013  1.9733 -0.9868
   60SAPC   C33 4656   5.155   2.328  10.179  0.0689  0.4096 -0.0783
   60SAPC   H3X 4657   5.265   2.337  10.192  0.1526 -1.7121  1.2472
   60SAPC   H3Y 4658   5.121   2.428  10.144  0.7492  1.8087  2.9584
   60SAPC   C34 4659   5.120   2.210  10.078  0.5090  0.2483 -0.1047
   60SAPC   H4X 4660   5.015   2.208  10.041  0.7085 -1.8801 -0.6851
   60SAPC   H4Y 4661   5.124   2.109  10.123 -3.0588 -1.4134 -2.9673
   60SAPC   C35 4662   5.211   2.230   9.957  0.1696  0.1138  0.5633
   60SAPC   H5X 4663   5.314   2.268   9.975  0.0259  0.6418  0.2978
   60SAPC   H5Y 4664   5.166   2.317   9.904 -0.9578 -0.5100  0.4703
   60SAPC   C36 4665   5.201   2.111   9.859 -0.1987  0.0765 -0.2116
   60SAPC   H6X 4666   5.094   2.108   9.829 -1.5868 -1.3879  4.0719
   60SAPC   H6Y 4667   5.229   2.015   9.908  2.9275  1.0394  0.1178
   60SAPC   C37 4668   5.285   2.133   9.731  0.0288  0.4719  0.1768
   60SAPC   H7X 4669   5.386   2.114   9.774 -1.2193 -0.2619  2.9473
   60SAPC   H7Y 4670   5.271   2.238   9.700 -0.1937  0.5151  0.4215
   60SAPC   C38 4671   5.255   2.034   9.618  0.5256 -0.0758  0.1111
   60SAPC   H8X 4672   5.148   2.045   9.588 -0.4497  0.5423  3.3945
   60SAPC   H8Y 4673   5.254   1.932   9.662 -0.3138  0.4750  1.4440
   60SAPC   C39 4674   5.352   2.046   9.505  0.2781  0.4168 -0.4788
   60SAPC   H9X 4675   5.436   1.973   9.509  0.7498  0.9204 -1.0166
   60SAPC   H9Y 4676   5.401   2.144   9.522 -1.8556  1.1896  1.8193
   60SAPC  C310 4677   5.285   2.040   9.373  0.6054 -0.2733  0.0891
   60SAPC  H10X 4678   5.210   2.121   9.371  0.1251 -0.7245 -0.9007
   60SAPC  H10Y 4679   5.224   1.948   9.361 -1.5266  1.0905 -0.0455
   60SAPC  C311 4680   5.374   2.042   9.256  0.3896 -0.2071  1.2882
   60SAPC  H11X 4681   5.454   1.965   9.250 -2.0451 -2.8154 -1.4713
   60SAPC  H11Y 4682   5.424   2.141   9.251 -0.5575  0.2416 -0.4321
   60SAPC  C312 4683   5.304   2.040   9.118  0.0066 -0.9117  0.5735
   60SAPC  H12X 4684   5.238   2.130   9.111  0.2829 -0.7855 -0.5166
   60SAPC  H12Y 4685   5.233   1.955   9.115 -0.9096 -0.1365 -0.5495
   60SAPC  C313 4686   5.397   2.047   8.990 -0.5814  0.3715 -0.4127
   60SAPC  H13X 4687   5.443   1.945   8.987 -0.7140  0.3012 -0.0294
   60SAPC  H13Y 4688   5.475   2.122   9.013  0.4982 -0.7569 -0.2790
   60SAPC  C314 4689   5.335   2.071   8.851 -0.3661 -0.3352 -0.6618
   60SAPC  H14X 4690   5.414   2.091   8.776 -0.9983 -0.2775 -1.3147
   60SAPC  H14Y 4691   5.296   2.175   8.859  2.0718  0.5429  1.5717
   60SAPC  C315 4692   5.231   1.976   8.803  0.1889  0.7078 -0.2695
   60SAPC  H15X 4693   5.141   1.972   8.868  0.3217  1.0888 -0.0570
   60SAPC  H15Y 4694   5.286   1.880   8.808 -1.0870  0.0230  2.6364
   60SAPC  C316 4695   5.189   2.000   8.658  0.2255  0.1349  0.6156
   60SAPC  H16X 4696   5.275   2.020   8.590  1.5148 -2.4973  1.3352
   60SAPC  H16Y 4697   5.122   2.087   8.645  1.8451  1.4463  0.6634
   60SAPC  C317 4698   5.116   1.876   8.598  0.7402 -0.2020 -0.4127
   60SAPC  H17X 4699   5.066   1.838   8.689 -0.0913  0.6968 -0.4800
   60SAPC  H17Y 4700   5.188   1.799   8.563  1.1537 -0.8676  1.7807
   60SAPC  C318 4701   5.020   1.921   8.494 -0.2645  0.7573 -0.6953
   60SAPC  H18X 4702   4.959   1.836   8.459 -2.9598  2.0406  0.5593
   60SAPC  H18Y 4703   5.070   1.961   8.404 -0.5486  1.5877 -0.4961
   60SAPC  H18Z 4704   4.943   1.997   8.522 -1.6846 -0.4707 -1.1322
   61SAPC     N 4705   0.629   6.609  11.027 -0.4953 -0.0537  0.6544
   61SAPC   C12 4706   0.558   6.737  11.061 -0.2006  0.2951 -0.8952
   61SAPC  H12A 4707   0.552   6.742  11.168  1.2757 -1.0216 -0.7240
   61SAPC  H12B 4708   0.456   6.729  11.027 -0.1072  0.9685 -1.3675
   61SAPC   C13 4709   0.778   6.614  11.059  0.3048 -0.1456  0.0159
   61SAPC  H13A 4710   0.839   6.540  11.009  2.3288  1.0087  0.6942
   61SAPC  H13B 4711   0.830   6.704  11.033 -2.1164  1.2977 -0.1902
   61SAPC  H13C 4712   0.783   6.614  11.167  0.0483 -0.1736  0.0306
   61SAPC   C14 4713   0.566   6.494  11.099 -0.7212 -0.8615  0.3594
   61SAPC  H14A 4714   0.463   6.476  11.072 -1.9152  0.3179  3.6376
   61SAPC  H14B 4715   0.612   6.397  11.091 -1.9487 -1.4037 -0.3261
   61SAPC  H14C 4716   0.569   6.519  11.204  2.6192  1.3764 -0.1095
   61SAPC   C15 4717   0.616   6.586  10.880 -0.7685 -0.0329  0.2458
   61SAPC  H15A 4718   0.684   6.508  10.850 -0.1509  1.7251 -3.5347
   61SAPC  H15B 4719   0.516   6.554  10.854  0.7246 -2.5570 -3.1585
   61SAPC  H15C 4720   0.631   6.676  10.822  1.1723  0.9086  2.0762
   61SAPC   C11 4721   0.613   6.867  10.996 -0.1552  0.6373 -0.0002
   61SAPC  H11A 4722   0.723   6.862  11.014  1.1576 -1.7815 -6.0926
   61SAPC  H11B 4723   0.565   6.955  11.042 -1.7148  0.5550 -1.3969
   61SAPC     P 4724   0.444   6.893  10.804  0.4843  0.1054  0.1444
   61SAPC   O13 4725   0.394   6.773  10.743 -0.2571  0.2477 -0.1101
   61SAPC   O14 4726   0.362   6.951  10.912 -0.6472 -0.1779  0.4733
   61SAPC   O12 4727   0.586   6.861  10.853 -0.3133  0.5787  0.1007
   61SAPC   O11 4728   0.460   7.007  10.699 -0.4938  0.7178 -0.3306
   61SAPC    C1 4729   0.591   7.061  10.685  0.1124  0.2499 -0.3412
   61SAPC    HA 4730   0.631   7.095  10.783 -1.1329 -2.2905  1.1357
   61SAPC    HB 4731   0.650   6.975  10.648 -0.6420 -1.1475  1.5515
   61SAPC    C2 4732   0.588   7.169  10.576  1.0995  0.1113 -0.1856
   61SAPC    HS 4733   0.510   7.244  10.602  1.2314  0.0932  0.2765
   61SAPC   O21 4734   0.556   7.108  10.449 -0.6158 -0.2897  0.1571
   61SAPC   C21 4735   0.440   7.132  10.396  0.6699  0.5521  0.1607
   61SAPC   O22 4736   0.356   7.198  10.456  0.6473 -0.4959  0.1974
   61SAPC   C22 4737   0.421   7.062  10.261 -0.0167 -0.4981  0.4338
   61SAPC   H2R 4738   0.479   7.118  10.185 -1.0662  0.9403  0.6538
   61SAPC   H2S 4739   0.457   6.958  10.272  0.0650 -0.5807 -0.5303
   61SAPC    C3 4740   0.720   7.246  10.571  0.1005 -0.4362 -0.0248
   61SAPC    HX 4741   0.738   7.304  10.664 -1.9414 -1.3989  1.0502
   61SAPC    HY 4742   0.702   7.315  10.486  1.4760 -0.4659 -0.3539
   61SAPC   O31 4743   0.834   7.158  10.541 -0.4086 -0.7748  0.0852
   61SAPC   C31 4744   0.945   7.216  10.579 -0.8173 -0.5018 -0.2271
   61SAPC   O32 4745   0.962   7.333  10.609  0.5598  0.0867 -0.3931
   61SAPC   C32 4746   1.065   7.112  10.560  0.2054  0.6813  0.4935
   61SAPC   H2X 4747   1.044   7.028  10.491  1.1422 -0.6311  1.7291
   61SAPC   H2Y 4748   1.076   7.062  10.659 -1.2028  0.7768  0.7121
   61SAPC   C23 4749   0.277   7.068  10.204  0.5623 -0.1571 -0.2643
   61SAPC   H3R 4750   0.245   7.174  10.206  0.0113 -0.3309  1.4521
   61SAPC   H3S 4751   0.204   7.013  10.267  1.4872  0.3309  1.2986
   61SAPC   C24 4752   0.265   7.015  10.058 -0.3755  0.6609 -0.0858
   61SAPC   H4R 4753   0.158   6.999  10.034 -0.3679  0.7596 -0.1855
   61SAPC   H4S 4754   0.291   6.907  10.060 -0.5557  0.6276  0.4300
   61SAPC   C25 4755   0.340   7.097   9.958 -0.1382  0.3789  0.0513
   61SAPC   H5R 4756   0.448   7.114   9.968 -0.2303  0.3347  1.2570
   61SAPC   C26 4757   0.285   7.153   9.850  0.0247 -0.2935  0.5006
   61SAPC   H6R 4758   0.345   7.211   9.779  0.7042  1.1266  2.1523
   61SAPC   C27 4759   0.139   7.152   9.809 -0.5002 -0.3028  0.3095
   61SAPC   H7R 4760   0.086   7.060   9.842 -1.0339  0.5121  1.8362
   61SAPC   H7S 4761   0.135   7.136   9.699  1.9116  1.2723 -0.0728
   61SAPC   C28 4762   0.073   7.276   9.869  0.6195  0.1027 -0.6135
   61SAPC   H8R 4763   0.076   7.271   9.979  0.7035  2.3007 -0.4608
   61SAPC   C29 4764   0.012   7.366   9.799 -0.0441 -0.8202 -0.2687
   61SAPC   H9R 4765  -0.030   7.449   9.858  0.8155 -1.8975  1.9802
   61SAPC  C210 4766  -0.004   7.363   9.647 -0.6178 -0.3521 -0.2889
   61SAPC  H10R 4767   0.067   7.295   9.594 -1.7052 -2.6369  1.0500
   61SAPC  H10S 4768   0.024   7.463   9.605  0.6443 -0.8950 -0.7981
   61SAPC  C211 4769  -0.138   7.325   9.609 -0.0822  0.5634  0.2766
   61SAPC  H11R 4770  -0.214   7.311   9.686  0.2965 -2.9744  0.1458
   61SAPC  C212 4771  -0.170   7.285   9.481 -0.8017 -0.6569 -0.2309
   61SAPC  H12R 4772  -0.278   7.285   9.458 -1.0559  1.5698  0.7393
   61SAPC  C213 4773  -0.078   7.262   9.365 -0.6287 -0.7456 -0.0614
   61SAPC  H13R 4774  -0.141   7.223   9.282 -1.2602 -0.0547  0.0794
   61SAPC  H13S 4775  -0.016   7.173   9.389  0.1206  0.0819  1.1612
   61SAPC  C214 4776  -0.005   7.378   9.308 -0.7319 -0.2631 -0.0228
   61SAPC  H14R 4777   0.100   7.376   9.343 -0.3844  1.1010 -0.9210
   61SAPC  C215 4778  -0.057   7.473   9.225  0.5399 -0.1842 -0.2232
   61SAPC  H15R 4779   0.013   7.544   9.178  0.7041  0.1069  0.4426
   61SAPC  C216 4780  -0.195   7.482   9.170  0.2730 -0.1873  0.6431
   61SAPC  H16R 4781  -0.228   7.588   9.177 -0.6688 -0.4792  0.8143
   61SAPC  H16S 4782  -0.262   7.430   9.243 -1.3339  0.9538  0.0288
   61SAPC  C217 4783  -0.203   7.434   9.027  0.3709 -0.8389  0.1502
   61SAPC  H17R 4784  -0.148   7.499   8.956 -1.0205 -2.2900 -2.3936
   61SAPC  H17S 4785  -0.307   7.450   8.991  0.6702  1.2390  0.0974
   61SAPC  C218 4786  -0.165   7.287   8.992  0.8442 -0.0138 -0.4764
   61SAPC  H18R 4787  -0.229   7.222   9.054 -0.9189  1.7564 -0.3366
   61SAPC  H18S 4788  -0.062   7.265   9.026  0.4309 -1.0550  0.1490
   61SAPC  C219 4789  -0.194   7.240   8.847 -1.0297 -0.0944  0.7999
   61SAPC  H19R 4790  -0.304   7.247   8.831 -0.7555  1.5705 -0.5633
   61SAPC  H19S 4791  -0.152   7.138   8.837  1.2537  0.7488  1.2750
   61SAPC  C220 4792  -0.135   7.338   8.738 -0.0935 -0.0700 -0.6020
   61SAPC  H20R 4793  -0.157   7.293   8.639 -1.6442 -1.7448  0.4446
   61SAPC  H20S 4794  -0.024   7.346   8.742 -0.1496  0.4226  0.2437
   61SAPC  H20T 4795  -0.185   7.437   8.753 -1.4095 -0.7358 -0.4824
   61SAPC   C33 4796   1.200   7.173  10.514 -0.3930 -0.0366  1.0254
   61SAPC   H3X 4797   1.296   7.122  10.534 -0.1219 -0.9374 -2.1023
   61SAPC   H3Y 4798   1.203   7.268  10.573 -4.3924 -0.1144  1.6790
   61SAPC   C34 4799   1.191   7.216  10.363  0.0254 -0.2440 -0.1754
   61SAPC   H4X 4800   1.269   7.296  10.361 -0.7982  0.5849 -2.3163
   61SAPC   H4Y 4801   1.096   7.267  10.338  0.3414  1.0638  1.1006
   61SAPC   C35 4802   1.238   7.106  10.270  0.8086  0.3203 -0.3810
   61SAPC   H5X 4803   1.170   7.020  10.286  0.9164  0.7514  3.4353
   61SAPC   H5Y 4804   1.340   7.074  10.301  0.5484 -0.0803  0.0819
   61SAPC   C36 4805   1.238   7.158  10.127 -0.2044  1.0912 -0.2613
   61SAPC   H6X 4806   1.296   7.251  10.111  2.1636 -0.2039  0.3125
   61SAPC   H6Y 4807   1.137   7.197  10.101 -0.6958  0.2651  0.3675
   61SAPC   C37 4808   1.269   7.053  10.019  0.3922 -0.2109 -0.5121
   61SAPC   H7X 4809   1.215   6.960  10.047 -0.3618  0.6341  0.9630
   61SAPC   H7Y 4810   1.375   7.019  10.031 -0.2500 -1.4794  2.2937
   61SAPC   C38 4811   1.235   7.101   9.876  0.5095  0.0799 -0.3025
   61SAPC   H8X 4812   1.313   7.175   9.849  1.8373 -0.1819  2.4744
   61SAPC   H8Y 4813   1.137   7.150   9.860  0.8025  1.6598  2.2857
   61SAPC   C39 4814   1.268   6.981   9.787 -0.1272 -0.4546  0.5247
   61SAPC   H9X 4815   1.189   6.902   9.783 -1.0638  0.5061 -1.4079
   61SAPC   H9Y 4816   1.370   6.941   9.805  0.3658  1.0942  1.2971
   61SAPC  C310 4817   1.256   7.026   9.640  0.3052 -0.3848  0.5403
   61SAPC  H10X 4818   1.331   7.105   9.617  0.4680 -0.1921  1.6797
   61SAPC  H10Y 4819   1.156   7.073   9.628 -0.2071 -0.6152  3.3823
   61SAPC  C311 4820   1.257   6.903   9.541  0.0488 -0.4074  0.1778
   61SAPC  H11X 4821   1.189   6.820   9.572  2.1578 -1.5998  1.8932
   61SAPC  H11Y 4822   1.357   6.864   9.567 -0.3306 -0.0007  2.4344
   61SAPC  C312 4823   1.255   6.937   9.400 -0.2593 -0.3324  0.3544
   61SAPC  H12X 4824   1.349   6.901   9.354 -1.1498 -0.9194 -1.0882
   61SAPC  H12Y 4825   1.254   7.048   9.389 -0.5510 -0.3465  0.2318
   61SAPC  C313 4826   1.136   6.881   9.318  0.2752  0.5118 -0.0056
   61SAPC  H13X 4827   1.034   6.912   9.351 -1.0300 -1.3990 -1.9724
   61SAPC  H13Y 4828   1.152   6.772   9.335  0.8505  0.6068  0.0572
   61SAPC  C314 4829   1.137   6.916   9.171  0.2522  0.8949 -0.4426
   61SAPC  H14X 4830   1.234   6.887   9.127  0.6295  0.5256  0.5979
   61SAPC  H14Y 4831   1.130   7.027   9.168 -0.2110  0.8521 -1.1980
   61SAPC  C315 4832   1.021   6.855   9.088 -0.5260 -0.0274  0.2276
   61SAPC  H15X 4833   0.925   6.906   9.111  0.8532  2.1987  1.3971
   61SAPC  H15Y 4834   1.005   6.746   9.103  0.9101 -0.3322 -0.2673
   61SAPC  C316 4835   1.042   6.868   8.928  0.0136  0.1700  0.1950
   61SAPC  H16X 4836   1.130   6.803   8.904 -0.0840  0.4531 -0.9752
   61SAPC  H16Y 4837   1.072   6.972   8.904 -2.3366  1.2070  1.4893
   61SAPC  C317 4838   0.924   6.831   8.842  0.0901  0.8495 -0.4898
   61SAPC  H17X 4839   0.969   6.826   8.741 -0.6601  0.9536 -0.8326
   61SAPC  H17Y 4840   0.855   6.917   8.856 -2.6471 -1.1707 -0.8723
   61SAPC  C318 4841   0.855   6.701   8.886 -0.7525 -0.5099 -0.2040
   61SAPC  H18X 4842   0.821   6.709   8.992 -0.9374  1.2842 -0.3628
   61SAPC  H18Y 4843   0.926   6.616   8.876  1.8521  1.4479  0.4655
   61SAPC  H18Z 4844   0.761   6.691   8.828 -1.4683 -0.0699  0.8529
   62SAPC     N 4845   5.327   6.468  10.721  0.4783 -0.4708 -0.1539
   62SAPC   C12 4846   5.331   6.434  10.574 -0.1198 -0.3581  0.0716
   62SAPC  H12A 4847   5.354   6.330  10.558  0.0611 -0.1728 -0.8837
   62SAPC  H12B 4848   5.419   6.484  10.537  0.8990 -1.5908  0.7169
   62SAPC   C13 4849   5.446   6.414  10.788 -0.3741 -1.0194  0.0753
   62SAPC  H13A 4850   5.455   6.420  10.896  2.2169 -0.0558 -0.1122
   62SAPC  H13B 4851   5.446   6.309  10.763  0.1291 -0.3613 -3.0620
   62SAPC  H13C 4852   5.535   6.461  10.748  0.5235 -1.1570  1.8166
   62SAPC   C14 4853   5.329   6.613  10.727  0.0384  0.7987 -0.8109
   62SAPC  H14A 4854   5.427   6.641  10.691  0.9134 -1.0552 -0.0194
   62SAPC  H14B 4855   5.258   6.658  10.659 -0.9306 -1.2689 -1.2593
   62SAPC  H14C 4856   5.300   6.654  10.822  0.5280  1.3834 -0.9079
   62SAPC   C15 4857   5.206   6.406  10.792 -0.0859 -0.0736 -0.2489
   62SAPC  H15A 4858   5.217   6.299  10.783 -2.7309 -0.4966  0.6504
   62SAPC  H15B 4859   5.213   6.420  10.899  2.1763 -0.6985 -0.2424
   62SAPC  H15C 4860   5.117   6.446  10.748 -0.7476 -1.1307  0.0754
   62SAPC   C11 4861   5.204   6.462  10.501 -0.2822  0.3138 -0.7582
   62SAPC  H11A 4862   5.229   6.472  10.393  0.0020  2.0650 -0.5643
   62SAPC  H11B 4863   5.160   6.560  10.528 -1.1575  0.2134 -1.7344
   62SAPC     P 4864   5.138   6.211  10.472  0.1407 -0.0500 -0.3848
   62SAPC   O13 4865   5.249   6.163  10.559  0.0989 -0.5720  0.7865
   62SAPC   O14 4866   5.011   6.135  10.481 -0.4674 -0.1290  0.2698
   62SAPC   O12 4867   5.104   6.357  10.518 -0.0669 -0.0344  0.0434
   62SAPC   O11 4868   5.186   6.222  10.324 -0.6532 -0.3482  0.3431
   62SAPC    C1 4869   5.118   6.285  10.218  0.4304  0.3845  0.4528
   62SAPC    HA 4870   5.049   6.363  10.259  0.7983  0.5272  0.8077
   62SAPC    HB 4871   5.184   6.338  10.146  0.0151  1.3213  0.7393
   62SAPC    C2 4872   5.022   6.181  10.143 -0.5787  0.4841 -0.1889
   62SAPC    HS 4873   4.972   6.125  10.224  1.3118 -1.6633 -0.4202
   62SAPC   O21 4874   5.101   6.094  10.061 -0.4869 -0.2496  0.4598
   62SAPC   C21 4875   5.037   6.001   9.999  0.1458  0.3407  0.9623
   62SAPC   O22 4876   4.921   5.975  10.020 -0.1013 -0.1436  0.2060
   62SAPC   C22 4877   5.126   5.950   9.890  0.5632 -0.3550  0.1327
   62SAPC   H2R 4878   5.194   6.034   9.863  0.0591 -0.4918 -1.7277
   62SAPC   H2S 4879   5.179   5.859   9.926  0.0357 -0.4809  0.5929
   62SAPC    C3 4880   4.894   6.249  10.073 -0.4549  0.6883 -0.7072
   62SAPC    HX 4881   4.884   6.350  10.119 -0.1462  0.6740 -0.6043
   62SAPC    HY 4882   4.799   6.201  10.103 -0.0562  0.5640  0.4214
   62SAPC   O31 4883   4.909   6.259   9.930  0.0634  0.5533  0.0270
   62SAPC   C31 4884   4.960   6.370   9.883 -0.5342  0.1723 -0.3315
   62SAPC   O32 4885   4.987   6.468   9.947  0.5639 -0.0476 -0.1458
   62SAPC   C32 4886   4.987   6.371   9.728 -0.0790  0.6476  0.4194
   62SAPC   H2X 4887   4.894   6.338   9.676 -0.8679  1.3099  1.3783
   62SAPC   H2Y 4888   5.053   6.287   9.696 -2.3058 -0.1173 -2.7217
   62SAPC   C23 4889   5.034   5.912   9.775 -0.0550  0.7446 -0.1564
   62SAPC   H3R 4890   4.974   6.001   9.746 -1.4651  0.5201  1.8458
   62SAPC   H3S 4891   4.965   5.833   9.812 -0.8490  2.3405  1.9871
   62SAPC   C24 4892   5.111   5.852   9.657 -0.1068 -0.3893 -0.0225
   62SAPC   H4R 4893   5.148   5.752   9.687 -2.0280 -0.6296  1.7456
   62SAPC   H4S 4894   5.208   5.898   9.627 -0.2833 -0.3312 -0.5255
   62SAPC   C25 4895   5.026   5.832   9.530 -0.6716 -0.3816 -0.4346
   62SAPC   H5R 4896   4.984   5.731   9.518 -2.6891 -0.1295  3.0382
   62SAPC   C26 4897   4.997   5.918   9.440 -0.9105  0.1619 -0.0771
   62SAPC   H6R 4898   4.940   5.891   9.350 -0.7281  0.7575 -0.3753
   62SAPC   C27 4899   5.042   6.062   9.447  0.2367  0.2455  0.2458
   62SAPC   H7R 4900   5.151   6.059   9.465  0.2287 -0.4008  0.2211
   62SAPC   H7S 4901   5.007   6.110   9.541 -0.6719 -1.0141  0.5850
   62SAPC   C28 4902   5.017   6.151   9.327  0.4918  0.0722 -0.5776
   62SAPC   H8R 4903   4.938   6.225   9.344  0.9622  0.6784 -0.9709
   62SAPC   C29 4904   5.074   6.151   9.211 -0.5763 -0.7376  0.2775
   62SAPC   H9R 4905   5.039   6.222   9.135 -0.9043  0.1665  1.2358
   62SAPC  C210 4906   5.173   6.054   9.171  0.4564  0.6113 -0.2430
   62SAPC  H10R 4907   5.241   6.023   9.253 -1.3329 -0.3223  0.9341
   62SAPC  H10S 4908   5.245   6.095   9.096  1.3853  1.7060  1.2041
   62SAPC  C211 4909   5.116   5.926   9.114  0.2056 -0.5521 -0.4639
   62SAPC  H11R 4910   5.105   5.854   9.197 -1.6647 -0.5351 -0.6573
   62SAPC  C212 4911   5.086   5.903   8.986  0.1875  0.2883  0.0814
   62SAPC  H12R 4912   5.028   5.810   8.971  0.4510  0.0702  0.4152
   62SAPC  C213 4913   5.101   5.987   8.861  0.1012 -0.8944  0.0094
   62SAPC  H13R 4914   5.149   6.083   8.890 -0.2641 -1.3568  2.2970
   62SAPC  H13S 4915   5.000   6.003   8.817 -0.6549 -1.6551  1.4139
   62SAPC  C214 4916   5.199   5.917   8.762  0.0307  0.5899 -0.5652
   62SAPC  H14R 4917   5.304   5.907   8.792 -0.4626 -2.0833  0.5780
   62SAPC  C215 4918   5.168   5.871   8.638  0.8975 -0.3682 -0.1659
   62SAPC  H15R 4919   5.250   5.823   8.582  0.9695  0.8164 -1.1212
   62SAPC  C216 4920   5.032   5.882   8.570  0.3738  0.0798 -0.2738
   62SAPC  H16R 4921   5.004   5.990   8.569 -1.3057 -0.3250 -0.3798
   62SAPC  H16S 4922   4.956   5.840   8.639  0.6707  0.5878  0.3740
   62SAPC  C217 4923   5.003   5.815   8.428 -0.3049 -0.1421  0.3808
   62SAPC  H17R 4924   5.023   5.706   8.432 -0.0221 -0.0966  0.2446
   62SAPC  H17S 4925   5.085   5.855   8.365 -3.0868  1.9426 -2.2567
   62SAPC  C218 4926   4.873   5.850   8.360 -0.1875  0.1739 -0.1066
   62SAPC  H18R 4927   4.851   5.959   8.355 -2.1504 -0.1531  0.5150
   62SAPC  H18S 4928   4.790   5.809   8.421 -1.2988  0.6959 -1.2033
   62SAPC  C219 4929   4.868   5.772   8.225 -0.0890  0.1442 -1.1132
   62SAPC  H19R 4930   4.878   5.663   8.246 -2.7910  0.5007  3.4347
   62SAPC  H19S 4931   4.956   5.805   8.166  0.5584 -2.4943 -1.7508
   62SAPC  C220 4932   4.732   5.805   8.152  0.1495  0.1639  0.1846
   62SAPC  H20R 4933   4.646   5.758   8.205  0.4483 -1.3151 -0.6001
   62SAPC  H20S 4934   4.723   5.777   8.045 -0.5996  0.6171  0.1187
   62SAPC  H20T 4935   4.725   5.916   8.153  1.5612  0.2833 -0.6767
   62SAPC   C33 4936   5.017   6.509   9.662 -0.2757 -0.0106  0.0747
   62SAPC   H3X 4937   5.122   6.536   9.683 -0.0352  0.3083 -1.4000
   62SAPC   H3Y 4938   4.940   6.579   9.701 -1.1221 -0.3758 -0.8756
   62SAPC   C34 4939   5.026   6.484   9.511  0.1127 -1.0352  0.2731
   62SAPC   H4X 4940   4.930   6.453   9.466 -0.7173  0.8162  0.6658
   62SAPC   H4Y 4941   5.098   6.401   9.492  0.8429 -0.0570 -1.3805
   62SAPC   C35 4942   5.067   6.609   9.428 -0.5878  0.5162  0.8811
   62SAPC   H5X 4943   5.161   6.663   9.454 -1.8776  3.9303 -0.8542
   62SAPC   H5Y 4944   4.988   6.686   9.438 -2.1924 -1.1159  1.1237
   62SAPC   C36 4945   5.079   6.554   9.286 -0.4536 -0.5209  0.3795
   62SAPC   H6X 4946   4.987   6.499   9.258 -0.0156  0.3896 -3.4275
   62SAPC   H6Y 4947   5.159   6.477   9.278 -0.2881 -0.2476 -1.0154
   62SAPC   C37 4948   5.103   6.661   9.173 -0.7905 -0.1417  0.6889
   62SAPC   H7X 4949   5.210   6.689   9.175 -0.7439 -0.3474  1.4285
   62SAPC   H7Y 4950   5.039   6.747   9.199 -1.3369 -0.7341  1.3425
   62SAPC   C38 4951   5.077   6.604   9.031  0.9111 -0.3395  0.3784
   62SAPC   H8X 4952   5.079   6.697   8.970 -4.3382 -1.5534 -2.1590
   62SAPC   H8Y 4953   4.969   6.579   9.027  0.4742  1.4761 -0.6015
   62SAPC   C39 4954   5.161   6.479   8.992 -0.0882  0.6132  0.4324
   62SAPC   H9X 4955   5.130   6.395   9.059 -1.1294  0.3567 -0.3526
   62SAPC   H9Y 4956   5.271   6.492   9.003 -0.1932  1.4726  0.5364
   62SAPC  C310 4957   5.143   6.430   8.839 -0.0714 -0.4788 -0.7844
   62SAPC  H10X 4958   5.191   6.330   8.825 -0.5312 -0.9393  0.7447
   62SAPC  H10Y 4959   5.194   6.506   8.776  0.8078 -1.6422 -1.5462
   62SAPC  C311 4960   4.995   6.425   8.792  0.0184  0.4299 -0.3347
   62SAPC  H11X 4961   4.951   6.527   8.786 -3.1077 -0.8213 -0.5084
   62SAPC  H11Y 4962   4.948   6.362   8.870 -2.6203  0.5086 -1.7599
   62SAPC  C312 4963   4.974   6.352   8.659 -0.1186 -0.9117  0.6192
   62SAPC  H12X 4964   4.999   6.244   8.669 -1.5102 -1.3647 -0.5028
   62SAPC  H12Y 4965   5.053   6.394   8.592 -0.1822  1.7126  2.0916
   62SAPC  C313 4966   4.835   6.373   8.604  0.0303  0.4306 -0.8252
   62SAPC  H13X 4967   4.805   6.480   8.598 -0.2213  0.5510  1.5476
   62SAPC  H13Y 4968   4.763   6.329   8.676  2.6062 -1.2528  0.9003
   62SAPC  C314 4969   4.807   6.311   8.469  0.2038 -0.8466  0.1276
   62SAPC  H14X 4970   4.832   6.203   8.460  0.9054 -0.6222 -0.8399
   62SAPC  H14Y 4971   4.876   6.356   8.394 -1.4388 -1.6915 -2.0181
   62SAPC  C315 4972   4.657   6.325   8.441 -0.4549  0.0759  0.0517
   62SAPC  H15X 4973   4.639   6.434   8.451  0.7883  0.1466  1.8905
   62SAPC  H15Y 4974   4.599   6.267   8.515 -0.0669  0.8528  0.9795
   62SAPC  C316 4975   4.619   6.259   8.300 -0.2115 -0.5877 -0.4970
   62SAPC  H16X 4976   4.516   6.294   8.276  0.2175 -0.1955 -1.8131
   62SAPC  H16Y 4977   4.607   6.149   8.309  2.6125 -0.8533  0.9738
   62SAPC  C317 4978   4.714   6.289   8.184  0.5811  0.9228 -0.1000
   62SAPC  H17X 4979   4.815   6.260   8.219  0.8768  1.3315 -0.6015
   62SAPC  H17Y 4980   4.711   6.400   8.179  2.2637  1.0706  1.2149
   62SAPC  C318 4981   4.686   6.219   8.055 -0.5879  0.4738  0.0924
   62SAPC  H18X 4982   4.579   6.223   8.026 -0.5806  1.7108  0.1616
   62SAPC  H18Y 4983   4.719   6.113   8.060 -1.4550  0.2009  0.1310
   62SAPC  H18Z 4984   4.740   6.261   7.967 -1.3573 -2.3914 -1.8719
   63SAPC     N 4985   3.590   5.353   5.876 -0.2956  0.6574 -0.6953
   63SAPC   C12 4986   3.626   5.360   6.025  0.2965  0.3616 -0.1226
   63SAPC  H12A 4987   3.673   5.453   6.053 -0.3690  0.5847  0.2781
   63SAPC  H12B 4988   3.711   5.294   6.036 -1.6334 -2.8100 -2.6153
   63SAPC   C13 4989   3.712   5.401   5.799 -0.0593  0.8841  0.1569
   63SAPC  H13A 4990   3.739   5.500   5.833  0.7548  0.5325  0.5423
   63SAPC  H13B 4991   3.799   5.339   5.815 -0.5894  0.0593 -0.0656
   63SAPC  H13C 4992   3.683   5.394   5.695  0.5938 -1.1934  0.0836
   63SAPC   C14 4993   3.564   5.209   5.847 -0.6272 -0.3443  0.5864
   63SAPC  H14A 4994   3.648   5.141   5.854  1.0331  0.7361 -4.4911
   63SAPC  H14B 4995   3.482   5.177   5.910 -1.5079 -0.8031 -0.7309
   63SAPC  H14C 4996   3.543   5.197   5.741  0.0891 -1.3529  0.5439
   63SAPC   C15 4997   3.478   5.442   5.832  0.6954 -0.1940 -0.3802
   63SAPC  H15A 4998   3.385   5.418   5.880  1.2894 -1.5675  0.1279
   63SAPC  H15B 4999   3.498   5.547   5.845  1.7408 -0.3408 -0.6779
   63SAPC  H15C 5000   3.464   5.436   5.725 -2.7970  1.2221 -0.1426
   63SAPC   C11 5001   3.526   5.317   6.134  0.5214  0.0005  0.1259
   63SAPC  H11A 5002   3.424   5.342   6.099  1.1604  1.3114 -0.8825
   63SAPC  H11B 5003   3.553   5.373   6.227  0.6088  0.3587 -0.1120
   63SAPC     P 5004   3.659   5.116   6.246  0.2806  0.0663  0.4378
   63SAPC   O13 5005   3.666   4.976   6.204 -0.1277 -0.1949 -0.0325
   63SAPC   O14 5006   3.787   5.194   6.215 -0.0942  0.1286 -1.0456
   63SAPC   O12 5007   3.538   5.183   6.170  0.0553  0.4850  0.0263
   63SAPC   O11 5008   3.637   5.122   6.401 -0.6957  0.3981 -0.7512
   63SAPC    C1 5009   3.510   5.080   6.458  0.3850 -0.8004  0.4065
   63SAPC    HA 5010   3.435   5.160   6.443  1.3319  0.0797  0.3007
   63SAPC    HB 5011   3.472   4.993   6.401  2.3148 -1.5402  0.1817
   63SAPC    C2 5012   3.524   5.051   6.610 -0.2748 -0.5749 -0.1809
   63SAPC    HS 5013   3.561   4.946   6.617 -1.2810 -0.9310 -0.0333
   63SAPC   O21 5014   3.388   5.061   6.656  0.5823 -0.7572  0.2513
   63SAPC   C21 5015   3.360   4.992   6.763 -0.8049  0.8735  0.6182
   63SAPC   O22 5016   3.435   4.921   6.828 -0.3172 -0.2247  0.3206
   63SAPC   C22 5017   3.210   4.997   6.788  0.0651  0.0176  0.3261
   63SAPC   H2R 5018   3.163   5.068   6.716  1.5214 -0.9389 -1.6745
   63SAPC   H2S 5019   3.173   4.898   6.756  0.0760  0.7344 -2.1211
   63SAPC    C3 5020   3.611   5.164   6.677 -0.2559 -0.3556  0.7000
   63SAPC    HX 5021   3.571   5.258   6.634  1.7924  0.1923 -0.1506
   63SAPC    HY 5022   3.716   5.148   6.642 -0.5378  1.3795 -1.1348
   63SAPC   O31 5023   3.605   5.164   6.817  0.2995  0.4023 -0.2616
   63SAPC   C31 5024   3.683   5.089   6.897 -0.5548  0.5932  0.8479
   63SAPC   O32 5025   3.774   5.012   6.855  0.0132 -0.4660  0.7890
   63SAPC   C32 5026   3.655   5.096   7.044  0.5131 -0.8150  0.6722
   63SAPC   H2X 5027   3.561   5.038   7.055 -0.0426 -0.4114 -1.4828
   63SAPC   H2Y 5028   3.618   5.199   7.063 -2.3645 -1.1824 -2.1875
   63SAPC   C23 5029   3.186   5.035   6.929 -0.0828 -0.6141  0.0184
   63SAPC   H3R 5030   3.231   5.133   6.954 -0.5745  0.0817 -1.6545
   63SAPC   H3S 5031   3.236   4.957   6.989  1.8274  0.5921  0.0846
   63SAPC   C24 5032   3.033   5.034   6.960  0.2950 -0.7330 -0.3137
   63SAPC   H4R 5033   2.987   5.076   6.868  2.2793  1.5217 -0.3794
   63SAPC   H4S 5034   3.018   5.102   7.046 -1.0802  0.3479 -1.3654
   63SAPC   C25 5035   2.982   4.898   6.997 -0.1490 -0.6463  1.1657
   63SAPC   H5R 5036   2.944   4.838   6.913  1.3086  2.6913 -2.1775
   63SAPC   C26 5037   2.989   4.845   7.119 -0.4244 -0.3452 -0.0666
   63SAPC   H6R 5038   2.946   4.744   7.127  1.2456 -1.1892 -1.1529
   63SAPC   C27 5039   3.037   4.913   7.242 -0.9375  0.4727 -0.9503
   63SAPC   H7R 5040   2.955   4.938   7.313  1.4338  1.4254  1.6280
   63SAPC   H7S 5041   3.074   5.015   7.219 -0.0086  0.2773 -0.3603
   63SAPC   C28 5042   3.161   4.852   7.311 -0.2813  0.6844  0.0194
   63SAPC   H8R 5043   3.199   4.764   7.258  0.6323  0.5855  0.8144
   63SAPC   C29 5044   3.226   4.906   7.415  0.2484 -0.5135 -0.0295
   63SAPC   H9R 5045   3.310   4.842   7.446  0.5353 -0.9957 -1.7220
   63SAPC  C210 5046   3.192   5.035   7.493  0.4083 -0.3779  0.4528
   63SAPC  H10R 5047   3.101   5.007   7.550  1.8733 -2.6924  1.7889
   63SAPC  H10S 5048   3.157   5.112   7.421 -1.2224  0.8312  2.4178
   63SAPC  C211 5049   3.308   5.092   7.569 -0.0304  0.2197  0.6525
   63SAPC  H11R 5050   3.343   5.185   7.522  1.5889 -2.1976 -3.5563
   63SAPC  C212 5051   3.367   5.054   7.684 -0.2038  0.2626 -0.4216
   63SAPC  H12R 5052   3.458   5.108   7.716  0.6734 -0.1082 -2.1639
   63SAPC  C213 5053   3.336   4.921   7.750  0.1086  0.3807 -0.4611
   63SAPC  H13R 5054   3.432   4.871   7.777  1.5089  2.2325 -1.7694
   63SAPC  H13S 5055   3.289   4.851   7.678  1.4837 -2.1616  0.9601
   63SAPC  C214 5056   3.250   4.943   7.870  0.5878 -0.1902  0.1498
   63SAPC  H14R 5057   3.177   5.021   7.846 -0.6924 -1.6524 -0.8541
   63SAPC  C215 5058   3.256   4.894   7.995 -0.3445 -0.1511 -0.2769
   63SAPC  H15R 5059   3.179   4.921   8.069  0.2159 -1.7357  0.9303
   63SAPC  C216 5060   3.360   4.800   8.048 -0.6140 -0.7132  0.0595
   63SAPC  H16R 5061   3.425   4.762   7.966  0.9818 -2.5736  2.0540
   63SAPC  H16S 5062   3.314   4.708   8.090  3.0490 -2.2714  1.0823
   63SAPC  C217 5063   3.461   4.873   8.142 -0.1071 -0.0881 -0.3686
   63SAPC  H17R 5064   3.500   4.967   8.098 -0.7212  0.8057  0.9368
   63SAPC  H17S 5065   3.554   4.812   8.147  2.2859  3.3644  2.4847
   63SAPC  C218 5066   3.406   4.871   8.288  0.3595  0.3343  0.1256
   63SAPC  H18R 5067   3.364   4.769   8.295  0.4272 -0.0161 -3.2130
   63SAPC  H18S 5068   3.313   4.932   8.293 -0.7059 -1.1998 -0.2607
   63SAPC  C219 5069   3.516   4.896   8.392  0.0349 -0.1962 -0.2733
   63SAPC  H19R 5070   3.561   4.997   8.378 -1.2529  0.6429  1.3008
   63SAPC  H19S 5071   3.593   4.816   8.388 -0.1979 -0.4073 -0.5133
   63SAPC  C220 5072   3.473   4.895   8.535  0.9110 -0.2866  0.4836
   63SAPC  H20R 5073   3.429   4.798   8.567  1.5135 -0.6889  0.1078
   63SAPC  H20S 5074   3.385   4.962   8.541  0.2748 -0.8234 -1.8773
   63SAPC  H20T 5075   3.552   4.924   8.608  1.6620  2.4513 -1.2783
   63SAPC   C33 5076   3.762   5.042   7.136 -0.5997 -0.2484 -0.5320
   63SAPC   H3X 5077   3.862   5.087   7.116 -0.3661 -0.4947  0.0579
   63SAPC   H3Y 5078   3.788   4.936   7.115 -0.3480 -0.4648  0.8128
   63SAPC   C34 5079   3.727   5.052   7.284 -0.4067 -0.0725  0.9123
   63SAPC   H4X 5080   3.650   4.982   7.323  1.4233 -0.8390  3.4168
   63SAPC   H4Y 5081   3.703   5.155   7.315  3.3465  0.9402  0.9930
   63SAPC   C35 5082   3.852   5.018   7.375  0.1274 -0.0203  0.0446
   63SAPC   H5X 5083   3.951   5.048   7.335  0.2948 -1.8611 -1.0129
   63SAPC   H5Y 5084   3.844   4.907   7.380 -0.2566 -0.0258 -0.6193
   63SAPC   C36 5085   3.834   5.083   7.512  0.2380 -0.1759  0.0521
   63SAPC   H6X 5086   3.730   5.069   7.550 -0.8311  0.6358 -2.3258
   63SAPC   H6Y 5087   3.858   5.192   7.513  0.7885 -0.2696 -1.0871
   63SAPC   C37 5088   3.939   5.021   7.609 -0.0501  0.6737 -0.6525
   63SAPC   H7X 5089   4.038   5.036   7.562  0.2634  0.2947 -0.1290
   63SAPC   H7Y 5090   3.920   4.912   7.598 -0.3280  0.5556  0.7576
   63SAPC   C38 5091   3.921   5.080   7.749  0.1522  0.0457 -0.4315
   63SAPC   H8X 5092   3.824   5.045   7.791  0.2317  0.8156  0.4286
   63SAPC   H8Y 5093   3.900   5.189   7.737 -4.1288 -0.7725 -2.4345
   63SAPC   C39 5094   4.043   5.053   7.844 -1.0759  0.1845  0.2192
   63SAPC   H9X 5095   4.135   5.069   7.783  0.3827 -2.7140  1.4529
   63SAPC   H9Y 5096   4.049   4.944   7.860  0.7786  0.3641  1.1067
   63SAPC  C310 5097   4.062   5.131   7.975 -0.6240  0.6782  0.5501
   63SAPC  H10X 5098   3.975   5.103   8.039 -1.2278  0.3542 -0.3892
   63SAPC  H10Y 5099   4.071   5.241   7.962  2.9358  0.4604  0.1314
   63SAPC  C311 5100   4.184   5.090   8.056 -0.0158 -0.3595  0.2034
   63SAPC  H11X 5101   4.269   5.091   7.985 -0.2685  2.0480 -0.1543
   63SAPC  H11Y 5102   4.172   4.983   8.085 -1.7098 -0.6684 -1.3819
   63SAPC  C312 5103   4.209   5.186   8.172 -0.2994  0.3344 -0.1257
   63SAPC  H12X 5104   4.114   5.188   8.231 -1.4874  2.4312 -1.9518
   63SAPC  H12Y 5105   4.228   5.289   8.135  0.9860  0.6214  1.2401
   63SAPC  C313 5106   4.317   5.132   8.261  0.0353  0.9533 -0.3453
   63SAPC  H13X 5107   4.301   5.028   8.298  1.7210  0.5516 -0.6429
   63SAPC  H13Y 5108   4.317   5.200   8.348 -1.5983  1.1004 -0.4225
   63SAPC  C314 5109   4.451   5.138   8.183  0.1027  0.4470  0.8359
   63SAPC  H14X 5110   4.474   5.240   8.147 -0.5231  1.4548  3.0769
   63SAPC  H14Y 5111   4.445   5.080   8.089 -1.4695  2.4944 -0.4021
   63SAPC  C315 5112   4.576   5.100   8.267 -0.6212  0.4443  0.0095
   63SAPC  H15X 5113   4.549   5.158   8.358  1.5713  0.9074  0.4353
   63SAPC  H15Y 5114   4.665   5.126   8.205  0.4243 -2.9496 -0.1055
   63SAPC  C316 5115   4.590   4.950   8.301  0.0221  0.6450 -0.0445
   63SAPC  H16X 5116   4.603   4.908   8.199  2.3239  1.7865 -0.2713
   63SAPC  H16Y 5117   4.504   4.909   8.358 -0.0215  0.0352 -0.5348
   63SAPC  C317 5118   4.700   4.910   8.391 -0.7495  0.0982 -0.4496
   63SAPC  H17X 5119   4.786   4.939   8.327  0.6210 -1.0587  0.8095
   63SAPC  H17Y 5120   4.707   4.800   8.405 -0.3892  0.1808  0.0264
   63SAPC  C318 5121   4.717   4.972   8.534  0.1169  0.4449  0.0471
   63SAPC  H18X 5122   4.743   5.080   8.533  2.0765  0.1414  3.2867
   63SAPC  H18Y 5123   4.788   4.922   8.603  1.5791  1.7910 -0.4158
   63SAPC  H18Z 5124   4.616   4.971   8.580 -0.6175  0.7445 -1.4821
   64SAPC     N 5125   4.358   5.685   5.759  0.3674 -0.6693  0.2728
   64SAPC   C12 5126   4.341   5.609   5.889  0.2458  0.3808 -0.4321
   64SAPC  H12A 5127   4.235   5.608   5.909  0.5178  1.1735  1.2741
   64SAPC  H12B 5128   4.384   5.659   5.975  0.1219  0.4890 -0.4330
   64SAPC   C13 5129   4.504   5.708   5.742  0.4683  0.0027  0.1264
   64SAPC  H13A 5130   4.562   5.617   5.750  1.0859  0.3480 -0.3659
   64SAPC  H13B 5131   4.513   5.757   5.646 -0.1032 -2.7507 -1.4484
   64SAPC  H13C 5132   4.543   5.777   5.815 -2.2251  2.0968 -0.2839
   64SAPC   C14 5133   4.314   5.617   5.638  0.5614 -0.9187  0.1995
   64SAPC  H14A 5134   4.345   5.514   5.634  0.4701 -0.9180 -0.9529
   64SAPC  H14B 5135   4.207   5.622   5.620  0.9022  1.2256 -1.8180
   64SAPC  H14C 5136   4.348   5.673   5.552 -1.0471 -0.7794 -0.3974
   64SAPC   C15 5137   4.295   5.822   5.760 -0.3234 -0.3788 -0.0500
   64SAPC  H15A 5138   4.188   5.808   5.766 -0.8813  2.4512 -1.5077
   64SAPC  H15B 5139   4.328   5.874   5.849  0.1890 -0.8211  0.0250
   64SAPC  H15C 5140   4.319   5.885   5.675 -0.9457  1.4340  1.0533
   64SAPC   C11 5141   4.385   5.464   5.896  0.1768 -0.1156 -0.3286
   64SAPC  H11A 5142   4.315   5.420   5.822 -0.3635 -0.4399  0.3588
   64SAPC  H11B 5143   4.353   5.422   5.994  1.8944  1.0228  0.7786
   64SAPC     P 5144   4.636   5.416   5.964 -0.0001  0.1468  0.2702
   64SAPC   O13 5145   4.671   5.268   5.973  0.2469 -0.3457 -0.1600
   64SAPC   O14 5146   4.745   5.504   5.917  0.1504  0.2586 -0.6885
   64SAPC   O12 5147   4.521   5.433   5.868  0.0319  0.5413  0.2377
   64SAPC   O11 5148   4.582   5.478   6.099  0.1569 -0.5453  0.0461
   64SAPC    C1 5149   4.642   5.597   6.159  0.4316 -0.6988 -0.0855
   64SAPC    HA 5150   4.657   5.682   6.089  0.0010 -0.2321  0.3845
   64SAPC    HB 5151   4.578   5.638   6.240 -0.8170 -1.5056 -0.6323
   64SAPC    C2 5152   4.776   5.566   6.235  0.2305  0.1942 -0.0265
   64SAPC    HS 5153   4.844   5.518   6.161  0.2102 -0.5317  0.4200
   64SAPC   O21 5154   4.744   5.455   6.323  0.2425  0.0188 -0.2785
   64SAPC   C21 5155   4.848   5.392   6.383 -0.3284 -0.2590  0.3296
   64SAPC   O22 5156   4.967   5.402   6.351 -0.6356  0.1365  0.6239
   64SAPC   C22 5157   4.791   5.321   6.510  0.2076 -0.2439 -0.0509
   64SAPC   H2R 5158   4.700   5.376   6.541  1.7781  1.4184  1.9071
   64SAPC   H2S 5159   4.765   5.221   6.470  0.6762  0.3357 -1.9234
   64SAPC    C3 5160   4.843   5.682   6.309 -0.0506 -0.1604  0.5874
   64SAPC    HX 5161   4.862   5.759   6.232  1.0658 -1.2200 -0.2289
   64SAPC    HY 5162   4.933   5.648   6.365 -1.1714  0.3423  2.8227
   64SAPC   O31 5163   4.754   5.731   6.415 -0.3844 -0.4505  0.1879
   64SAPC   C31 5164   4.801   5.846   6.470  0.3813  1.0031  0.0879
   64SAPC   O32 5165   4.907   5.895   6.456  0.0948 -0.0915 -0.2809
   64SAPC   C32 5166   4.682   5.914   6.547  0.2564  0.3836  0.0427
   64SAPC   H2X 5167   4.616   5.844   6.603  1.1473 -2.4883 -2.2439
   64SAPC   H2Y 5168   4.634   5.976   6.469  1.2033  0.7885 -0.2257
   64SAPC   C23 5169   4.891   5.324   6.623  0.9259 -0.0171  0.3150
   64SAPC   H3R 5170   4.999   5.296   6.614  0.5702 -2.1396  1.8751
   64SAPC   H3S 5171   4.834   5.271   6.702  0.0719  0.2312 -0.1250
   64SAPC   C24 5172   4.912   5.472   6.675 -0.6139  0.0300  0.2505
   64SAPC   H4R 5173   4.952   5.531   6.589  0.2616 -2.4280 -1.1425
   64SAPC   H4S 5174   4.996   5.464   6.747  0.9653  3.1384 -1.0782
   64SAPC   C25 5175   4.788   5.544   6.729  0.1366  0.1351 -0.1797
   64SAPC   H5R 5176   4.715   5.565   6.649  0.2363 -0.7393 -0.5080
   64SAPC   C26 5177   4.759   5.580   6.857 -0.0950  0.3585  0.6232
   64SAPC   H6R 5178   4.671   5.646   6.867 -0.4364  0.0336 -0.2315
   64SAPC   C27 5179   4.848   5.545   6.977 -0.8764  0.1299  0.0221
   64SAPC   H7R 5180   4.915   5.459   6.953 -0.6247  0.5630 -0.8919
   64SAPC   H7S 5181   4.782   5.510   7.059  0.3961 -0.9568  0.6173
   64SAPC   C28 5182   4.920   5.681   7.010 -0.6324  1.2339  0.3710
   64SAPC   H8R 5183   4.957   5.739   6.925  1.5742 -1.3547 -0.5946
   64SAPC   C29 5184   4.940   5.729   7.138 -0.0523 -0.3557 -0.1652
   64SAPC   H9R 5185   4.997   5.822   7.152 -1.0865  0.0944  1.2305
   64SAPC  C210 5186   4.900   5.652   7.257  0.8298  0.2233 -0.0456
   64SAPC  H10R 5187   4.958   5.559   7.277 -1.1577 -1.0920 -0.2048
   64SAPC  H10S 5188   4.795   5.623   7.240  0.0113  3.9545 -2.5859
   64SAPC  C211 5189   4.903   5.742   7.374 -0.5688 -0.1811 -0.7206
   64SAPC  H11R 5190   4.814   5.804   7.392 -0.0042  0.5906 -0.5220
   64SAPC  C212 5191   5.005   5.758   7.464 -0.0983 -0.2236 -0.3749
   64SAPC  H12R 5192   5.007   5.846   7.529 -0.5503 -0.1713 -0.4278
   64SAPC  C213 5193   5.137   5.684   7.463  0.1776 -0.2855  0.4447
   64SAPC  H13R 5194   5.212   5.747   7.516 -0.6245 -1.1754  2.7834
   64SAPC  H13S 5195   5.170   5.648   7.363  0.0353 -1.2272  0.7268
   64SAPC  C214 5196   5.124   5.556   7.539 -1.0339  1.1550  0.9119
   64SAPC  H14R 5197   5.112   5.463   7.481  1.1375  0.8503  0.8582
   64SAPC  C215 5198   5.124   5.546   7.673  0.0067 -0.3299  0.5468
   64SAPC  H15R 5199   5.105   5.451   7.723  2.1336 -1.9680 -1.5179
   64SAPC  C216 5200   5.128   5.665   7.766 -0.5404 -0.1445 -0.2778
   64SAPC  H16R 5201   5.027   5.687   7.807  0.6493  2.5966  1.4928
   64SAPC  H16S 5202   5.163   5.756   7.712 -0.3341 -1.0827 -1.7879
   64SAPC  C217 5203   5.232   5.637   7.869  0.0168 -0.2814 -0.2465
   64SAPC  H17R 5204   5.269   5.735   7.906 -0.4071  1.1805 -3.3970
   64SAPC  H17S 5205   5.323   5.592   7.825  1.6961  0.0073  2.6874
   64SAPC  C218 5206   5.187   5.546   7.988  0.1631 -0.1121  0.2197
   64SAPC  H18R 5207   5.182   5.444   7.944  0.8159  0.3618 -0.9946
   64SAPC  H18S 5208   5.084   5.581   8.010  0.0034  0.5217 -1.3759
   64SAPC  C219 5209   5.259   5.552   8.123 -0.7615 -0.3771  0.3921
   64SAPC  H19R 5210   5.218   5.475   8.192 -0.8758 -1.1725 -0.5342
   64SAPC  H19S 5211   5.237   5.648   8.173  0.1032 -0.3269  0.7094
   64SAPC  C220 5212   5.410   5.532   8.116  0.1153 -0.2386 -0.1583
   64SAPC  H20R 5213   5.462   5.558   8.211 -0.4814  0.8385 -0.1115
   64SAPC  H20S 5214   5.456   5.599   8.041 -0.9517 -1.9117 -2.4144
   64SAPC  H20T 5215   5.446   5.428   8.098  1.6116  0.0207  1.1485
   64SAPC   C33 5216   4.744   6.018   6.632 -0.4122  0.1943 -0.0269
   64SAPC   H3X 5217   4.671   6.091   6.672  0.1712  1.3329 -0.9923
   64SAPC   H3Y 5218   4.826   6.068   6.578 -0.6911 -0.7422 -1.3716
   64SAPC   C34 5219   4.801   5.957   6.767  0.6163 -0.0994  0.4136
   64SAPC   H4X 5220   4.871   5.877   6.734  0.6130  0.8232 -2.0984
   64SAPC   H4Y 5221   4.711   5.926   6.825  0.3910  0.3216  0.2936
   64SAPC   C35 5222   4.872   6.071   6.840  0.2915  0.0044 -0.4224
   64SAPC   H5X 5223   4.811   6.163   6.831 -1.2941 -0.8550  0.9862
   64SAPC   H5Y 5224   4.961   6.080   6.774 -0.5434  1.0301 -1.4469
   64SAPC   C36 5225   4.911   6.040   6.984 -0.0905 -0.0922 -0.2744
   64SAPC   H6X 5226   4.973   5.948   6.995 -1.8920 -1.1875  1.4470
   64SAPC   H6Y 5227   4.822   6.004   7.041 -0.1015  0.4265  0.0377
   64SAPC   C37 5228   4.974   6.160   7.055  0.9258 -0.1554 -0.6070
   64SAPC   H7X 5229   4.902   6.244   7.047  0.5366  0.1730  3.8254
   64SAPC   H7Y 5230   5.066   6.190   6.999  1.2317 -1.8514 -1.0651
   64SAPC   C38 5231   5.008   6.144   7.209  0.1564  0.4015  0.3837
   64SAPC   H8X 5232   5.097   6.082   7.235  1.2354  2.0177  0.7275
   64SAPC   H8Y 5233   4.918   6.102   7.258  1.1864 -0.6671  1.4450
   64SAPC   C39 5234   5.030   6.287   7.264 -0.6121  0.2805 -0.4403
   64SAPC   H9X 5235   4.943   6.353   7.243 -0.2110  0.7221 -0.7364
   64SAPC   H9Y 5236   5.122   6.324   7.215  0.1535 -1.1392 -0.1225
   64SAPC  C310 5237   5.066   6.297   7.418  0.5516  0.0496  1.0308
   64SAPC  H10X 5238   5.066   6.404   7.447 -0.7392  0.7876 -1.3896
   64SAPC  H10Y 5239   5.169   6.257   7.426  0.3495 -0.8164 -0.2852
   64SAPC  C311 5240   4.976   6.220   7.521  0.1693  0.0431 -0.3190
   64SAPC  H11X 5241   4.929   6.136   7.465  0.0633 -0.1977  0.1289
   64SAPC  H11Y 5242   4.898   6.288   7.559 -0.3576 -0.4301 -0.5386
   64SAPC  C312 5243   5.049   6.167   7.648  0.4337 -0.6120 -0.1864
   64SAPC  H12X 5244   5.114   6.238   7.703 -1.7771  0.6195  0.9713
   64SAPC  H12Y 5245   5.104   6.073   7.627 -1.5327 -1.7828 -0.3095
   64SAPC  C313 5246   4.936   6.119   7.745 -0.1066  0.6544  0.8357
   64SAPC  H13X 5247   4.888   6.033   7.692  1.7022 -0.5555  1.0346
   64SAPC  H13Y 5248   4.864   6.200   7.767 -2.2065 -0.9242  0.1348
   64SAPC  C314 5249   5.007   6.063   7.871 -0.3177 -0.6373 -0.5307
   64SAPC  H14X 5250   5.076   5.981   7.840 -1.4224 -1.0163 -2.1336
   64SAPC  H14Y 5251   4.928   6.030   7.941 -0.4550  0.2700 -0.2481
   64SAPC  C315 5252   5.081   6.169   7.957 -0.0173 -0.5327  0.1376
   64SAPC  H15X 5253   5.015   6.258   7.954 -0.9911 -1.2716 -1.4712
   64SAPC  H15Y 5254   5.174   6.185   7.899 -0.9834 -0.2512 -1.3933
   64SAPC  C316 5255   5.125   6.126   8.092  0.1165  0.4669 -0.1268
   64SAPC  H16X 5256   5.186   6.033   8.082  2.4830  1.7745  1.1623
   64SAPC  H16Y 5257   5.033   6.120   8.154  0.3052  0.5510  0.1628
   64SAPC  C317 5258   5.222   6.228   8.155  0.5830 -0.8426 -0.3139
   64SAPC  H17X 5259   5.165   6.323   8.150  0.3847 -0.8099  1.7655
   64SAPC  H17Y 5260   5.306   6.240   8.083  0.1147  0.2351 -0.7002
   64SAPC  C318 5261   5.277   6.207   8.298 -0.1838  0.2630 -0.0715
   64SAPC  H18X 5262   5.352   6.286   8.319  1.8108 -1.6588  0.3886
   64SAPC  H18Y 5263   5.328   6.109   8.306  0.3959  0.2860 -2.7315
   64SAPC  H18Z 5264   5.197   6.223   8.375 -0.6467  0.1287 -0.5218
   65SAPC     N 5265   5.924   1.460   5.734 -0.1830  0.1468  0.2913
   65SAPC   C12 5266   5.839   1.564   5.795 -0.0758 -0.4217  0.0894
   65SAPC  H12A 5267   5.864   1.654   5.741 -0.9816 -1.7334 -2.6740
   65SAPC  H12B 5268   5.869   1.575   5.898  0.1747 -1.3588  0.1277
   65SAPC   C13 5269   6.071   1.484   5.752  0.0525 -0.0161 -0.0588
   65SAPC  H13A 5270   6.132   1.395   5.742 -0.0449 -0.0586 -0.2863
   65SAPC  H13B 5271   6.094   1.561   5.680 -2.7969  1.3468  0.3647
   65SAPC  H13C 5272   6.090   1.527   5.849  0.8726  1.0047 -0.6466
   65SAPC   C14 5273   5.912   1.325   5.787 -0.2619 -0.0169  0.1328
   65SAPC  H14A 5274   5.811   1.290   5.777 -0.2232 -0.0097 -0.3214
   65SAPC  H14B 5275   5.971   1.244   5.747 -1.0592 -1.0190  0.9274
   65SAPC  H14C 5276   5.932   1.326   5.893 -1.3459  1.0510  0.3491
   65SAPC   C15 5277   5.901   1.453   5.588 -0.2820  0.0441  0.3755
   65SAPC  H15A 5278   5.798   1.421   5.576 -0.1527  0.5540 -3.5418
   65SAPC  H15B 5279   5.907   1.547   5.534  3.5435  0.1944  0.7878
   65SAPC  H15C 5280   5.957   1.377   5.536  0.7906  1.3913 -0.5074
   65SAPC   C11 5281   5.686   1.552   5.796 -0.7928  0.5322  0.0405
   65SAPC  H11A 5282   5.651   1.540   5.691 -0.6970  1.3123 -0.0861
   65SAPC  H11B 5283   5.629   1.644   5.821 -1.2492  0.6897 -1.4867
   65SAPC     P 5284   5.595   1.462   6.015  0.1359  0.9764 -0.0383
   65SAPC   O13 5285   5.699   1.543   6.081  0.6727  0.2137 -0.4306
   65SAPC   O14 5286   5.456   1.494   6.047  0.1207 -0.9184 -0.3349
   65SAPC   O12 5287   5.632   1.438   5.867  0.3117 -0.5755  0.2414
   65SAPC   O11 5288   5.603   1.314   6.062 -0.2026 -0.1908  0.1730
   65SAPC    C1 5289   5.607   1.282   6.206 -0.0456 -0.5215  0.9965
   65SAPC    HA 5290   5.696   1.217   6.215  1.6145  1.4584 -0.1282
   65SAPC    HB 5291   5.604   1.370   6.275 -0.4160 -1.8073  2.6774
   65SAPC    C2 5292   5.487   1.197   6.256 -0.4854 -0.0822  0.5445
   65SAPC    HS 5293   5.400   1.265   6.268  0.1914  1.1143 -1.0731
   65SAPC   O21 5294   5.516   1.118   6.377 -0.0235 -0.7227  0.2624
   65SAPC   C21 5295   5.517   1.195   6.489 -0.4967  0.0195 -0.0488
   65SAPC   O22 5296   5.487   1.315   6.491  1.0125  0.2957 -0.2420
   65SAPC   C22 5297   5.560   1.110   6.613 -0.9900 -1.0264 -0.4381
   65SAPC   H2R 5298   5.551   1.002   6.588 -0.3314 -1.9813  3.0289
   65SAPC   H2S 5299   5.670   1.116   6.628 -0.8168  2.2058 -1.9755
   65SAPC    C3 5300   5.446   1.091   6.151 -0.8123 -0.0762  0.3928
   65SAPC    HX 5301   5.536   1.031   6.127  1.3612  2.5617  1.4510
   65SAPC    HY 5302   5.433   1.143   6.053 -0.7878 -0.9306 -0.0824
   65SAPC   O31 5303   5.333   1.016   6.191 -0.0098  0.4904 -0.1892
   65SAPC   C31 5304   5.360   0.891   6.250 -0.6841  0.1070  0.4732
   65SAPC   O32 5305   5.472   0.839   6.245  0.0671 -0.2086  0.4816
   65SAPC   C32 5306   5.232   0.833   6.305 -0.0594 -0.4692 -0.6073
   65SAPC   H2X 5307   5.211   0.735   6.255 -0.1763 -0.5310 -0.4404
   65SAPC   H2Y 5308   5.151   0.904   6.280  0.4133 -0.0595 -0.9926
   65SAPC   C23 5309   5.483   1.153   6.736  0.3657  0.3092 -0.3566
   65SAPC   H3R 5310   5.376   1.165   6.709 -0.1330  0.4928  1.5942
   65SAPC   H3S 5311   5.520   1.252   6.771  1.4005 -0.1845 -0.0275
   65SAPC   C24 5312   5.503   1.048   6.855 -0.1129  0.6031  0.5368
   65SAPC   H4R 5313   5.444   0.958   6.828  0.4250  0.0011  1.3438
   65SAPC   H4S 5314   5.453   1.094   6.942 -0.7977  0.8650  0.0126
   65SAPC   C25 5315   5.650   1.014   6.895 -0.4017 -0.7117 -0.5421
   65SAPC   H5R 5316   5.702   0.957   6.817  0.6048  2.5258 -2.4476
   65SAPC   C26 5317   5.722   1.046   7.012  0.6249  0.2635 -0.6977
   65SAPC   H6R 5318   5.826   1.016   7.027  0.3179 -0.1011  0.9699
   65SAPC   C27 5319   5.663   1.139   7.124 -0.0950 -0.2953  0.3598
   65SAPC   H7R 5320   5.587   1.212   7.089  1.0682  1.2855  0.9918
   65SAPC   H7S 5321   5.741   1.217   7.140 -1.6233  1.5096 -0.5112
   65SAPC   C28 5322   5.597   1.080   7.245 -0.4673 -0.1601 -0.5235
   65SAPC   H8R 5323   5.525   0.997   7.233 -1.6157  0.7821 -0.2561
   65SAPC   C29 5324   5.627   1.100   7.377 -0.0430 -0.2031 -0.3193
   65SAPC   H9R 5325   5.556   1.047   7.441 -1.7303 -0.9827 -2.6879
   65SAPC  C210 5326   5.723   1.195   7.437 -0.1237 -0.1928 -0.2241
   65SAPC  H10R 5327   5.665   1.259   7.507  1.5682 -1.0842  2.1051
   65SAPC  H10S 5328   5.774   1.261   7.365  1.0210  0.7162  1.3670
   65SAPC  C211 5329   5.829   1.123   7.506  0.1372  0.6110  0.2913
   65SAPC  H11R 5330   5.898   1.072   7.437  1.0317  1.4283  0.5725
   65SAPC  C212 5331   5.861   1.121   7.633  0.5896  0.2108 -0.2652
   65SAPC  H12R 5332   5.952   1.075   7.673 -0.3734 -0.8287  0.8319
   65SAPC  C213 5333   5.793   1.198   7.745  0.5157 -0.5199 -0.3171
   65SAPC  H13R 5334   5.743   1.127   7.814 -0.2610  0.1815 -0.1270
   65SAPC  H13S 5335   5.708   1.263   7.714  0.1931 -0.1865  1.1835
   65SAPC  C214 5336   5.897   1.281   7.823  0.2121 -0.3520  1.6509
   65SAPC  H14R 5337   5.935   1.368   7.767  1.7448 -0.2308  2.7976
   65SAPC  C215 5338   5.944   1.265   7.949 -0.3277  0.0463 -0.2084
   65SAPC  H15R 5339   6.028   1.327   7.985  0.5804 -0.2888 -1.6755
   65SAPC  C216 5340   5.923   1.144   8.038  0.5408  0.3742 -0.5392
   65SAPC  H16R 5341   6.017   1.098   8.073 -0.6077 -0.6069  1.3742
   65SAPC  H16S 5342   5.871   1.059   7.988 -0.6773  0.6747  0.1632
   65SAPC  C217 5343   5.823   1.187   8.151  0.7086 -0.2238 -0.6963
   65SAPC  H17R 5344   5.763   1.103   8.192 -0.1640  0.2481 -0.9892
   65SAPC  H17S 5345   5.744   1.250   8.106  1.4773  1.8583  0.6949
   65SAPC  C218 5346   5.895   1.253   8.273 -0.6063 -0.4000  0.4543
   65SAPC  H18R 5347   5.927   1.354   8.241 -0.3692 -0.2416  1.1600
   65SAPC  H18S 5348   5.988   1.199   8.305 -0.4199 -0.9874 -1.0122
   65SAPC  C219 5349   5.808   1.271   8.397 -0.3326  0.2120  0.0035
   65SAPC  H19R 5350   5.766   1.171   8.419 -1.0410  0.5564  0.2292
   65SAPC  H19S 5351   5.724   1.339   8.370  0.8862  0.5915 -3.4257
   65SAPC  C220 5352   5.879   1.331   8.522  0.6019  0.6191  0.9598
   65SAPC  H20R 5353   5.804   1.351   8.601 -1.5450  0.0533 -0.8347
   65SAPC  H20S 5354   5.924   1.428   8.492 -0.0296  0.4578 -0.5872
   65SAPC  H20T 5355   5.962   1.265   8.552  0.4552 -1.2031 -2.2575
   65SAPC   C33 5356   5.235   0.832   6.463  0.3608 -0.0765  0.3482
   65SAPC   H3X 5357   5.132   0.833   6.506 -0.3550 -0.2347 -1.2900
   65SAPC   H3Y 5358   5.291   0.920   6.500  0.9315  0.9888 -2.8027
   65SAPC   C34 5359   5.312   0.712   6.514  0.9340 -0.2061 -0.3763
   65SAPC   H4X 5360   5.358   0.665   6.424 -2.3739  2.0151 -3.5008
   65SAPC   H4Y 5361   5.239   0.632   6.535 -0.5173  0.5096 -2.3763
   65SAPC   C35 5362   5.388   0.743   6.649  0.5082  0.0860 -1.2229
   65SAPC   H5X 5363   5.345   0.823   6.712  2.0407  0.0325 -0.0505
   65SAPC   H5Y 5364   5.492   0.775   6.626 -0.0015  2.2325 -0.6670
   65SAPC   C36 5365   5.391   0.610   6.726  0.3738  0.1826  0.2622
   65SAPC   H6X 5366   5.409   0.539   6.642 -1.4964 -0.0213 -0.0106
   65SAPC   H6Y 5367   5.284   0.600   6.754 -0.3507  1.9695 -1.5484
   65SAPC   C37 5368   5.490   0.595   6.836 -0.0003  0.3895  0.0564
   65SAPC   H7X 5369   5.593   0.618   6.801 -0.2482 -0.8133 -1.5489
   65SAPC   H7Y 5370   5.494   0.488   6.864  1.7882  0.5707  0.6667
   65SAPC   C38 5371   5.436   0.680   6.954  0.4293  0.2250  0.1949
   65SAPC   H8X 5372   5.339   0.648   6.998 -0.5280 -0.3153 -2.1436
   65SAPC   H8Y 5373   5.421   0.787   6.927 -0.2307  0.3866  1.1921
   65SAPC   C39 5374   5.539   0.692   7.069 -0.0146 -0.8417 -0.1760
   65SAPC   H9X 5375   5.499   0.772   7.136  3.4058  1.5042 -0.6667
   65SAPC   H9Y 5376   5.643   0.725   7.047 -0.0083 -2.3460 -2.7629
   65SAPC  C310 5377   5.555   0.557   7.132  0.4254  0.5343 -0.1430
   65SAPC  H10X 5378   5.597   0.492   7.052  0.6769 -0.0699  0.4777
   65SAPC  H10Y 5379   5.458   0.509   7.158 -0.1055  1.7486  0.1761
   65SAPC  C311 5380   5.661   0.560   7.237  0.4552 -0.6871  0.0324
   65SAPC  H11X 5381   5.760   0.590   7.196  0.6047 -0.6633  0.4034
   65SAPC  H11Y 5382   5.668   0.464   7.293 -0.1784 -0.3447  0.7210
   65SAPC  C312 5383   5.623   0.662   7.343 -0.1747 -0.3675 -0.4630
   65SAPC  H12X 5384   5.516   0.648   7.367 -0.1993  1.0869  0.4235
   65SAPC  H12Y 5385   5.639   0.768   7.312 -0.2932 -1.0239 -2.9333
   65SAPC  C313 5386   5.700   0.637   7.475 -0.0209  0.5040 -0.6558
   65SAPC  H13X 5387   5.806   0.632   7.442  0.1975  0.1217  0.0859
   65SAPC  H13Y 5388   5.670   0.537   7.514 -1.4456  0.8139 -0.8944
   65SAPC  C314 5389   5.674   0.733   7.593 -0.1490 -0.1769 -1.0099
   65SAPC  H14X 5390   5.563   0.727   7.604 -0.2378 -0.9765 -2.1280
   65SAPC  H14Y 5391   5.691   0.841   7.578 -2.0902  0.2282 -0.6094
   65SAPC  C315 5392   5.741   0.676   7.721  0.2110  0.6326  0.1616
   65SAPC  H15X 5393   5.851   0.693   7.712  0.1223  0.3085 -2.2304
   65SAPC  H15Y 5394   5.730   0.566   7.734 -1.7043  0.8191  0.3013
   65SAPC  C316 5395   5.690   0.746   7.843  0.4007 -0.0503 -1.0109
   65SAPC  H16X 5396   5.590   0.714   7.877  1.0327  0.5055  1.5556
   65SAPC  H16Y 5397   5.705   0.856   7.831  0.7187 -0.0251 -0.4016
   65SAPC  C317 5398   5.789   0.711   7.953 -0.2770  0.2861 -0.1076
   65SAPC  H17X 5399   5.892   0.743   7.923 -0.5358 -0.0553 -1.4254
   65SAPC  H17Y 5400   5.794   0.603   7.978 -0.2464  0.1048 -0.8546
   65SAPC  C318 5401   5.759   0.779   8.088 -0.0729 -0.2035  0.7008
   65SAPC  H18X 5402   5.684   0.713   8.137  0.3445 -2.6687 -1.7582
   65SAPC  H18Y 5403   5.714   0.877   8.060  1.3641  0.2489 -0.1312
   65SAPC  H18Z 5404   5.851   0.791   8.149  2.0758 -1.2911 -2.1074
   66SAPC     N 5405   2.490   6.100   5.807  0.4498 -0.4257  0.4938
   66SAPC   C12 5406   2.567   6.205   5.894 -0.2468  0.4657  0.1238
   66SAPC  H12A 5407   2.508   6.295   5.890 -2.2427 -0.7667  0.5820
   66SAPC  H12B 5408   2.665   6.233   5.856 -1.1647  2.1561 -1.1516
   66SAPC   C13 5409   2.567   5.975   5.802 -0.4589  0.2335 -0.4365
   66SAPC  H13A 5410   2.600   5.934   5.897 -1.2720  0.7450  0.0803
   66SAPC  H13B 5411   2.529   5.904   5.731  2.0926 -0.5265 -1.1693
   66SAPC  H13C 5412   2.662   5.990   5.752 -0.9287 -1.6748 -2.0081
   66SAPC   C14 5413   2.344   6.076   5.858  0.2890  0.4145 -0.5202
   66SAPC  H14A 5414   2.309   6.174   5.889  0.0778  1.2940 -3.2926
   66SAPC  H14B 5415   2.282   6.032   5.781 -0.9988  0.7489  0.2907
   66SAPC  H14C 5416   2.338   6.010   5.943 -0.3904  0.7860 -0.2653
   66SAPC   C15 5417   2.484   6.145   5.665 -0.0985  0.6677 -0.6081
   66SAPC  H15A 5418   2.580   6.176   5.625  0.5453  0.2017  0.5251
   66SAPC  H15B 5419   2.449   6.061   5.606  2.2755 -1.6539  1.0442
   66SAPC  H15C 5420   2.416   6.229   5.664 -0.2411  0.5523 -0.6454
   66SAPC   C11 5421   2.580   6.184   6.051 -1.1464 -1.3328  0.4216
   66SAPC  H11A 5422   2.626   6.277   6.091 -3.4900 -0.7094  1.8646
   66SAPC  H11B 5423   2.655   6.102   6.045 -0.0776 -0.4077  0.7174
   66SAPC     P 5424   2.357   6.240   6.171  0.2019 -0.0581  0.4255
   66SAPC   O13 5425   2.339   6.342   6.066 -0.7797  0.5397 -0.3982
   66SAPC   O14 5426   2.236   6.162   6.205  0.0424 -0.0972  0.6641
   66SAPC   O12 5427   2.457   6.134   6.112 -0.2707  0.1753 -0.2036
   66SAPC   O11 5428   2.415   6.303   6.302 -0.1966 -0.3021  0.2834
   66SAPC    C1 5429   2.536   6.257   6.363  0.3700  0.2294  0.1821
   66SAPC    HA 5430   2.594   6.183   6.304  1.1263  0.0675  1.1010
   66SAPC    HB 5431   2.608   6.339   6.380 -0.2102  0.0843  4.0749
   66SAPC    C2 5432   2.512   6.184   6.502  0.2720  0.0693 -0.0049
   66SAPC    HS 5433   2.434   6.109   6.477 -0.7140  1.3168 -0.7117
   66SAPC   O21 5434   2.468   6.281   6.599  0.3011  0.0024 -0.2068
   66SAPC   C21 5435   2.400   6.239   6.708 -0.0459 -0.1675  0.2730
   66SAPC   O22 5436   2.360   6.124   6.734  0.1931 -0.1916  0.4759
   66SAPC   C22 5437   2.353   6.357   6.785 -0.0872  0.0288  0.7764
   66SAPC   H2R 5438   2.333   6.440   6.715 -3.6933  0.2540  1.8636
   66SAPC   H2S 5439   2.251   6.340   6.827 -0.8812  1.8602 -0.3049
   66SAPC    C3 5440   2.638   6.102   6.549 -0.0274  0.1364  0.0059
   66SAPC    HX 5441   2.727   6.168   6.551  0.4681 -0.4827 -0.6977
   66SAPC    HY 5442   2.676   6.033   6.470 -1.3587 -0.3923 -0.1964
   66SAPC   O31 5443   2.624   6.045   6.679 -0.0282  0.1153  0.0300
   66SAPC   C31 5444   2.565   5.926   6.683 -0.5948  0.5704 -0.5539
   66SAPC   O32 5445   2.514   5.865   6.592 -0.0322 -0.5061 -0.1672
   66SAPC   C32 5446   2.566   5.872   6.828 -0.0855  0.1001 -0.5839
   66SAPC   H2X 5447   2.600   5.766   6.829 -1.1052 -0.2358 -0.7831
   66SAPC   H2Y 5448   2.461   5.884   6.860  0.1043  0.8811 -0.2271
   66SAPC   C23 5449   2.457   6.393   6.898 -0.6403  0.3252  0.6415
   66SAPC   H3R 5450   2.414   6.477   6.957 -1.8235  0.0695  0.1636
   66SAPC   H3S 5451   2.556   6.419   6.855 -0.9903 -0.0784 -0.4596
   66SAPC   C24 5452   2.476   6.281   6.998  0.0146 -0.5983 -0.0628
   66SAPC   H4R 5453   2.549   6.325   7.069  1.0426  0.5517 -1.7492
   66SAPC   H4S 5454   2.535   6.205   6.942  1.5463  0.2028  0.3925
   66SAPC   C25 5455   2.351   6.236   7.061  0.2683  0.3553 -0.6943
   66SAPC   H5R 5456   2.290   6.171   6.997 -0.9798  1.5360 -0.7467
   66SAPC   C26 5457   2.320   6.249   7.193  0.2071  0.1629  0.0118
   66SAPC   H6R 5458   2.221   6.214   7.226 -0.8873  0.5000 -2.6239
   66SAPC   C27 5459   2.395   6.320   7.295  0.8132 -0.1962  0.7775
   66SAPC   H7R 5460   2.327   6.393   7.344 -1.5059 -0.5013 -1.6928
   66SAPC   H7S 5461   2.472   6.384   7.247 -1.1934 -0.2749 -2.9225
   66SAPC   C28 5462   2.459   6.225   7.395 -0.3816  0.3713 -0.2447
   66SAPC   H8R 5463   2.452   6.121   7.360  1.6319  0.4727 -1.0522
   66SAPC   C29 5464   2.498   6.249   7.520  0.1405 -0.1189  0.1767
   66SAPC   H9R 5465   2.534   6.167   7.584  0.7868 -0.0872 -0.1419
   66SAPC  C210 5466   2.503   6.385   7.589 -0.7836 -1.4193  0.0085
   66SAPC  H10R 5467   2.455   6.471   7.536 -1.0155 -1.7118 -0.2653
   66SAPC  H10S 5468   2.605   6.425   7.605 -1.2174 -0.2014 -0.1491
   66SAPC  C211 5469   2.434   6.380   7.720 -0.2442 -0.8281 -0.0406
   66SAPC  H11R 5470   2.479   6.312   7.794 -2.5196 -0.7809  1.4914
   66SAPC  C212 5471   2.319   6.430   7.767 -0.5994 -0.1970  0.1090
   66SAPC  H12R 5472   2.291   6.404   7.871  1.5650 -1.6022  0.4029
   66SAPC  C213 5473   2.222   6.520   7.692  0.2199 -0.7998 -0.1937
   66SAPC  H13R 5474   2.200   6.480   7.591 -0.1167  0.5726 -0.6720
   66SAPC  H13S 5475   2.259   6.624   7.690  1.1636 -1.0774  1.1097
   66SAPC  C214 5476   2.086   6.518   7.767  0.3901 -0.6818  0.0187
   66SAPC  H14R 5477   2.001   6.465   7.721  0.0568  0.0583 -0.2195
   66SAPC  C215 5478   2.067   6.549   7.900 -0.2745  0.0263 -0.3900
   66SAPC  H15R 5479   1.964   6.536   7.937 -0.1957 -2.7343 -0.9584
   66SAPC  C216 5480   2.167   6.591   8.007 -0.3849  0.7992  0.1187
   66SAPC  H16R 5481   2.255   6.646   7.966  0.6508 -0.2712  0.8649
   66SAPC  H16S 5482   2.220   6.501   8.044 -1.2131  0.3674  0.2735
   66SAPC  C217 5483   2.109   6.676   8.126  0.2017  0.0182 -0.3278
   66SAPC  H17R 5484   2.042   6.759   8.096  1.3932  1.1638  0.0895
   66SAPC  H17S 5485   2.189   6.718   8.191  0.2088 -1.7432  0.8750
   66SAPC  C218 5486   2.037   6.581   8.221 -0.2338 -0.0182 -0.3830
   66SAPC  H18R 5487   2.108   6.502   8.252  0.0158  0.3507 -0.0161
   66SAPC  H18S 5488   1.946   6.540   8.171 -1.5478  0.9295  1.1209
   66SAPC  C219 5489   1.985   6.645   8.349  0.0082  0.1581 -0.4095
   66SAPC  H19R 5490   1.898   6.712   8.330 -1.0268 -1.2736 -0.8813
   66SAPC  H19S 5491   2.070   6.702   8.393 -1.2080  1.7374 -0.0140
   66SAPC  C220 5492   1.948   6.526   8.437 -0.6531 -0.8924 -0.3986
   66SAPC  H20R 5493   1.927   6.554   8.543 -0.9398 -1.9836 -0.1634
   66SAPC  H20S 5494   2.033   6.455   8.444  0.7865  0.8669  0.8117
   66SAPC  H20T 5495   1.861   6.476   8.390 -2.6789  1.4314  0.6597
   66SAPC   C33 5496   2.667   5.938   6.930 -0.6263  0.2114  1.1114
   66SAPC   H3X 5497   2.652   6.048   6.937  0.2544  0.2926  2.0445
   66SAPC   H3Y 5498   2.772   5.925   6.896 -1.5291 -2.2480 -1.0712
   66SAPC   C34 5499   2.643   5.901   7.074 -0.2823 -0.1934  0.3973
   66SAPC   H4X 5500   2.664   5.795   7.098  0.2089  0.3622  2.6315
   66SAPC   H4Y 5501   2.533   5.911   7.085 -0.6746  0.7260 -3.1594
   66SAPC   C35 5502   2.733   5.978   7.170 -0.3688  0.0005 -0.3582
   66SAPC   H5X 5503   2.725   6.087   7.147  0.8439  0.1306 -0.2186
   66SAPC   H5Y 5504   2.839   5.957   7.144 -0.8607 -1.6521 -1.1906
   66SAPC   C36 5505   2.702   5.930   7.305  0.2123 -0.6232  0.6617
   66SAPC   H6X 5506   2.731   5.823   7.303  1.0743 -0.3844 -0.9486
   66SAPC   H6Y 5507   2.593   5.934   7.328  0.5418  1.2167  2.2601
   66SAPC   C37 5508   2.769   6.007   7.417 -0.3009  0.2459 -0.1578
   66SAPC   H7X 5509   2.733   6.111   7.411 -1.3173 -0.1494 -1.2667
   66SAPC   H7Y 5510   2.880   6.008   7.415 -0.2213 -1.5822  0.7097
   66SAPC   C38 5511   2.727   5.952   7.550 -0.0650  0.0952 -0.2975
   66SAPC   H8X 5512   2.772   5.851   7.565  1.6742  0.8089 -0.4870
   66SAPC   H8Y 5513   2.616   5.944   7.556  0.0232 -0.5832  0.7414
   66SAPC   C39 5514   2.778   6.042   7.668  0.5186 -0.1010 -0.1897
   66SAPC   H9X 5515   2.743   6.147   7.653 -0.3428 -0.6128 -1.9906
   66SAPC   H9Y 5516   2.889   6.034   7.675  0.5752  1.7240  2.3679
   66SAPC  C310 5517   2.705   6.011   7.806  0.2905  0.2865 -0.3409
   66SAPC  H10X 5518   2.696   5.900   7.805  0.0870  0.2996 -1.1556
   66SAPC  H10Y 5519   2.600   6.046   7.819  0.1665 -0.8201  2.1591
   66SAPC  C311 5520   2.782   6.062   7.930  0.0830 -0.1726 -0.3701
   66SAPC  H11X 5521   2.755   6.169   7.944 -3.9108 -1.1631  0.8540
   66SAPC  H11Y 5522   2.893   6.061   7.930  0.1119  0.2107  0.9466
   66SAPC  C312 5523   2.735   5.988   8.058  0.2200  0.0366  0.0494
   66SAPC  H12X 5524   2.745   5.878   8.048  0.7112  0.1442 -0.7353
   66SAPC  H12Y 5525   2.629   6.015   8.077  0.2297 -1.3819  2.6155
   66SAPC  C313 5526   2.839   6.028   8.175  0.3101 -0.3341 -0.1409
   66SAPC  H13X 5527   2.938   5.984   8.153  0.3046 -0.2254 -0.3854
   66SAPC  H13Y 5528   2.796   5.987   8.270 -1.8415  0.4613 -0.7071
   66SAPC  C314 5529   2.855   6.175   8.210  0.3571  0.4056  0.6759
   66SAPC  H14X 5530   2.755   6.213   8.239  0.7385 -0.4477  3.3967
   66SAPC  H14Y 5531   2.894   6.229   8.120 -0.0981 -2.3694 -1.3092
   66SAPC  C315 5532   2.955   6.192   8.328  0.0451 -0.0966 -0.1375
   66SAPC  H15X 5533   3.050   6.136   8.315  0.7734  1.4143 -1.7189
   66SAPC  H15Y 5534   2.911   6.161   8.425  0.6621  0.3932  0.3083
   66SAPC  C316 5535   2.999   6.341   8.361  0.5883  0.0385  0.1998
   66SAPC  H16X 5536   3.090   6.332   8.425  0.9846  2.1697  0.0080
   66SAPC  H16Y 5537   2.912   6.387   8.412  0.1739 -0.1680 -0.3154
   66SAPC  C317 5538   3.033   6.423   8.240  0.3297  0.4579  0.0285
   66SAPC  H17X 5539   2.933   6.439   8.193 -0.8980 -0.0901  2.2547
   66SAPC  H17Y 5540   3.093   6.363   8.169 -2.9904 -2.1409 -0.8449
   66SAPC  C318 5541   3.085   6.562   8.263 -0.4946  0.1850 -0.2626
   66SAPC  H18X 5542   3.019   6.630   8.320  0.9656  2.6191 -1.3485
   66SAPC  H18Y 5543   3.100   6.623   8.171 -0.6331  2.4541  1.1570
   66SAPC  H18Z 5544   3.182   6.557   8.317  1.0389  1.4185 -2.7091
   67SAPC     N 5545   6.222   2.617   6.323  0.8326 -0.0505 -0.1137
   67SAPC   C12 5546   6.232   2.569   6.471 -0.1066  0.1077  0.4606
   67SAPC  H12A 5547   6.136   2.586   6.518  1.3965  0.6784  3.5840
   67SAPC  H12B 5548   6.290   2.633   6.535  2.7268 -2.7502  1.0096
   67SAPC   C13 5549   6.137   2.738   6.315  0.5406 -0.3777  0.0458
   67SAPC  H13A 5550   6.048   2.731   6.375 -0.2730  0.0992 -1.0737
   67SAPC  H13B 5551   6.192   2.824   6.351  0.5918 -0.6798  0.6967
   67SAPC  H13C 5552   6.112   2.748   6.210  0.6300 -2.4937 -0.2162
   67SAPC   C14 5553   6.357   2.655   6.282 -0.5307  0.6560 -0.0058
   67SAPC  H14A 5554   6.390   2.735   6.347 -0.1655  0.4355  0.0814
   67SAPC  H14B 5555   6.420   2.568   6.292 -0.4708  0.9098  2.5891
   67SAPC  H14C 5556   6.357   2.699   6.184  1.1475  2.4358  0.7136
   67SAPC   C15 5557   6.173   2.507   6.240  0.1352  0.0231  0.0920
   67SAPC  H15A 5558   6.065   2.504   6.241  0.1508 -1.0722 -0.5389
   67SAPC  H15B 5559   6.197   2.530   6.137 -0.3867  1.2383  0.2205
   67SAPC  H15C 5560   6.217   2.417   6.281  2.2866  1.4106  1.0017
   67SAPC   C11 5561   6.296   2.429   6.502  0.3671 -0.3148  0.3296
   67SAPC  H11A 5562   6.307   2.422   6.612 -4.7605  1.1757  1.2262
   67SAPC  H11B 5563   6.397   2.417   6.458  0.1268  1.5447 -0.8875
   67SAPC     P 5564   6.220   2.175   6.471 -0.1804  0.3692  0.1233
   67SAPC   O13 5565   6.125   2.106   6.380  0.0714 -0.1468 -0.0897
   67SAPC   O14 5566   6.358   2.136   6.450  0.6958 -0.0015  0.8482
   67SAPC   O12 5567   6.206   2.329   6.453  0.4649  0.3326 -0.4607
   67SAPC   O11 5568   6.186   2.142   6.618 -0.2833  0.7589 -0.2799
   67SAPC    C1 5569   6.078   2.204   6.687  0.5603  0.2521 -0.4325
   67SAPC    HA 5570   6.098   2.314   6.686  0.4639  0.2678 -0.6856
   67SAPC    HB 5571   5.981   2.181   6.639  0.0701 -0.3515  0.8004
   67SAPC    C2 5572   6.076   2.162   6.835  0.3331  0.2368 -0.9303
   67SAPC    HS 5573   6.001   2.227   6.885  1.1502  1.2326 -0.9724
   67SAPC   O21 5574   6.202   2.174   6.898 -0.8066 -0.1411  0.2773
   67SAPC   C21 5575   6.236   2.297   6.913 -0.1794 -0.4897 -0.6978
   67SAPC   O22 5576   6.177   2.398   6.879 -0.3060 -0.1375 -0.3816
   67SAPC   C22 5577   6.382   2.295   6.968  1.3416 -0.1738  0.2318
   67SAPC   H2R 5578   6.460   2.289   6.889  0.8729 -0.4334 -0.2182
   67SAPC   H2S 5579   6.394   2.399   7.004  1.7248 -0.0178 -0.3374
   67SAPC    C3 5580   6.021   2.026   6.869  0.5183  0.2223  0.0763
   67SAPC    HX 5581   6.029   2.010   6.979  1.2924 -0.9648 -0.1314
   67SAPC    HY 5582   6.096   1.957   6.824  0.7271  1.4081 -1.4502
   67SAPC   O31 5583   5.892   1.997   6.817 -0.5774  0.3815  0.1469
   67SAPC   C31 5584   5.830   1.889   6.877 -0.5548 -0.0929 -0.0980
   67SAPC   O32 5585   5.892   1.800   6.940  0.0527 -0.0281 -0.8355
   67SAPC   C32 5586   5.688   1.883   6.825 -0.2343 -0.1794  0.6653
   67SAPC   H2X 5587   5.646   1.781   6.841 -0.4878 -0.2753 -0.5090
   67SAPC   H2Y 5588   5.703   1.888   6.715 -1.5099 -2.2096  0.3410
   67SAPC   C23 5589   6.402   2.187   7.075  0.6755 -0.9909 -0.1788
   67SAPC   H3R 5590   6.391   2.087   7.028  2.2671 -0.9152 -0.7743
   67SAPC   H3S 5591   6.324   2.192   7.154  2.1331  0.2845  1.2247
   67SAPC   C24 5592   6.542   2.195   7.149 -0.4012 -0.1300  0.1720
   67SAPC   H4R 5593   6.547   2.104   7.212 -0.5069 -0.4526 -0.2800
   67SAPC   H4S 5594   6.559   2.281   7.218  3.1837 -0.9573  0.5568
   67SAPC   C25 5595   6.666   2.200   7.064  0.4053  0.7598 -0.8663
   67SAPC   H5R 5596   6.697   2.109   7.011 -0.6724 -0.6326  0.7851
   67SAPC   C26 5597   6.756   2.297   7.049  0.5356  0.4155 -0.0314
   67SAPC   H6R 5598   6.838   2.281   6.977 -1.5230  2.7754 -3.1837
   67SAPC   C27 5599   6.752   2.424   7.126 -0.0215  0.0506  0.6167
   67SAPC   H7R 5600   6.664   2.444   7.191 -0.1278 -1.2244  0.8952
   67SAPC   H7S 5601   6.753   2.508   7.054 -2.0979 -1.6414 -1.5595
   67SAPC   C28 5602   6.882   2.429   7.201  0.9434 -0.3552  0.3112
   67SAPC   H8R 5603   6.967   2.443   7.132 -1.8384  0.5866 -3.2861
   67SAPC   C29 5604   6.889   2.400   7.331 -0.6092 -0.5197 -0.3100
   67SAPC   H9R 5605   6.986   2.409   7.382 -0.9657 -1.1040  0.5051
   67SAPC  C210 5606   6.778   2.364   7.424 -0.0077  0.3898 -0.0305
   67SAPC  H10R 5607   6.812   2.303   7.511 -1.3707  0.2315  0.4109
   67SAPC  H10S 5608   6.712   2.291   7.372  1.2672 -0.0529 -1.0866
   67SAPC  C211 5609   6.709   2.484   7.470  0.1879 -1.3154  0.7667
   67SAPC  H11R 5610   6.631   2.509   7.398  1.3619  2.3416  0.5427
   67SAPC  C212 5611   6.725   2.557   7.580 -0.8344 -0.2479 -0.6249
   67SAPC  H12R 5612   6.663   2.646   7.593  1.2153  1.1272  0.2643
   67SAPC  C213 5613   6.829   2.532   7.698 -0.6577  0.3303  0.0109
   67SAPC  H13R 5614   6.898   2.444   7.697  0.1043  0.8575  1.7532
   67SAPC  H13S 5615   6.763   2.505   7.783 -0.0607 -0.2984  0.2865
   67SAPC  C214 5616   6.898   2.664   7.718 -0.7305 -0.3714 -0.4913
   67SAPC  H14R 5617   6.905   2.726   7.627  1.6988 -1.2012 -0.9275
   67SAPC  C215 5618   6.965   2.710   7.826  0.6259  0.2579 -0.4962
   67SAPC  H15R 5619   6.998   2.814   7.812 -0.0484  0.4045 -1.0076
   67SAPC  C216 5620   6.974   2.643   7.962  0.9786  0.0956 -0.1828
   67SAPC  H16R 5621   7.074   2.607   7.998  0.5700 -0.6501  0.2368
   67SAPC  H16S 5622   6.906   2.555   7.964 -1.5114  1.9513  0.3716
   67SAPC  C217 5623   6.915   2.749   8.063  1.2376 -0.2474  0.1467
   67SAPC  H17R 5624   6.810   2.767   8.031  1.5417 -0.8994 -1.3140
   67SAPC  H17S 5625   6.964   2.848   8.064 -1.4028  1.1749 -0.2128
   67SAPC  C218 5626   6.909   2.694   8.210 -0.5775  0.8547  0.3435
   67SAPC  H18R 5627   7.008   2.668   8.253 -1.7495 -1.1774  2.0499
   67SAPC  H18S 5628   6.855   2.597   8.201  0.7828  0.1733 -0.7552
   67SAPC  C219 5629   6.837   2.779   8.314 -0.8119 -0.5224 -0.0572
   67SAPC  H19R 5630   6.834   2.725   8.411  0.7854  0.4342  0.5564
   67SAPC  H19S 5631   6.731   2.802   8.291 -0.5471  0.5934 -0.2155
   67SAPC  C220 5632   6.910   2.912   8.327 -0.3800 -0.7053 -0.9836
   67SAPC  H20R 5633   6.864   2.971   8.409  0.6107 -1.3484  0.0649
   67SAPC  H20S 5634   6.891   2.976   8.238  0.6841  2.3725  0.8647
   67SAPC  H20T 5635   7.018   2.892   8.342 -0.6764 -1.8427 -0.1852
   67SAPC   C33 5636   5.599   1.981   6.905  0.1294 -0.1745  0.5338
   67SAPC   H3X 5637   5.504   2.003   6.850  0.0327 -1.1817  0.2770
   67SAPC   H3Y 5638   5.646   2.081   6.915 -0.4601  0.5007 -2.2964
   67SAPC   C34 5639   5.560   1.938   7.049 -0.3902 -0.6052 -0.5337
   67SAPC   H4X 5640   5.654   1.913   7.102 -0.9237  0.2791  0.8783
   67SAPC   H4Y 5641   5.499   1.845   7.054  0.9558 -1.5469 -1.1381
   67SAPC   C35 5642   5.493   2.040   7.143  0.3541 -0.0405  0.3261
   67SAPC   H5X 5643   5.386   2.043   7.112  0.4132 -0.4912  0.0683
   67SAPC   H5Y 5644   5.532   2.143   7.129  0.8823  0.0424  2.1988
   67SAPC   C36 5645   5.522   1.987   7.280  0.3072 -0.3674 -0.4898
   67SAPC   H6X 5646   5.630   1.996   7.302  0.4054  0.6564 -1.3028
   67SAPC   H6Y 5647   5.476   1.886   7.287  0.7059 -0.7665 -2.6765
   67SAPC   C37 5648   5.450   2.067   7.390  0.4003  0.7606  0.5519
   67SAPC   H7X 5649   5.345   2.059   7.355  0.8326 -0.5812 -0.5458
   67SAPC   H7Y 5650   5.467   2.177   7.394 -2.3555  1.3847 -1.8362
   67SAPC   C38 5651   5.479   2.011   7.527  0.7475  0.1339 -0.4456
   67SAPC   H8X 5652   5.588   2.009   7.550  0.4914 -1.2241  0.8128
   67SAPC   H8Y 5653   5.442   1.906   7.533  1.1340 -0.0157 -0.6429
   67SAPC   C39 5654   5.407   2.092   7.635 -0.3457  0.3510  0.5187
   67SAPC   H9X 5655   5.297   2.098   7.618 -0.5676  1.6663  2.1751
   67SAPC   H9Y 5656   5.452   2.193   7.632  1.4571 -0.4395 -0.6826
   67SAPC  C310 5657   5.433   2.025   7.767  0.2510  0.3821 -0.4255
   67SAPC  H10X 5658   5.541   2.001   7.774 -0.1686 -2.1678 -1.7875
   67SAPC  H10Y 5659   5.376   1.930   7.775  0.8388  0.1285  1.2557
   67SAPC  C311 5660   5.404   2.117   7.887  0.1473  0.2527  0.0206
   67SAPC  H11X 5661   5.298   2.149   7.885 -0.1096 -0.0422  3.4836
   67SAPC  H11Y 5662   5.462   2.211   7.890  1.2065 -0.4102  0.8939
   67SAPC  C312 5663   5.438   2.040   8.022  0.2950 -0.1490 -0.4481
   67SAPC  H12X 5664   5.548   2.022   8.026  0.3918  0.5517  2.5159
   67SAPC  H12Y 5665   5.388   1.942   8.031 -1.2431  0.8142  3.3932
   67SAPC  C313 5666   5.404   2.129   8.142 -0.3354  0.6944 -0.6886
   67SAPC  H13X 5667   5.426   2.072   8.234 -0.8163  0.9049 -0.4439
   67SAPC  H13Y 5668   5.295   2.148   8.140 -0.5092 -0.0157  0.8316
   67SAPC  C314 5669   5.483   2.262   8.153 -0.4188 -0.0849  0.3580
   67SAPC  H14X 5670   5.450   2.328   8.070 -0.1071 -0.1742  0.1618
   67SAPC  H14Y 5671   5.589   2.235   8.137 -1.3777 -2.1050 -4.0458
   67SAPC  C315 5672   5.447   2.345   8.280  0.0843 -0.4608 -0.0388
   67SAPC  H15X 5673   5.519   2.429   8.290 -0.7027  0.3358 -0.8842
   67SAPC  H15Y 5674   5.463   2.279   8.368  0.3472  0.7832  0.8735
   67SAPC  C316 5675   5.306   2.391   8.286  0.9375  0.2651  0.4586
   67SAPC  H16X 5676   5.246   2.299   8.266  0.5323 -0.5903  4.6976
   67SAPC  H16Y 5677   5.315   2.472   8.211  0.3516 -0.0119  0.0774
   67SAPC  C317 5678   5.255   2.431   8.430  0.1311 -0.2972  0.4703
   67SAPC  H17X 5679   5.167   2.499   8.417  1.1318  1.0602  0.5044
   67SAPC  H17Y 5680   5.332   2.497   8.475 -0.0641  0.1067  0.2247
   67SAPC  C318 5681   5.239   2.311   8.527 -1.1853  0.3362  0.0269
   67SAPC  H18X 5682   5.333   2.252   8.538 -1.4315 -0.5290 -2.0793
   67SAPC  H18Y 5683   5.155   2.242   8.506 -1.9527  1.1969  0.2225
   67SAPC  H18Z 5684   5.210   2.354   8.625 -2.6038  2.2632 -1.1599
   68SAPC     N 5685   3.027   6.554   6.206  0.0821 -0.7129 -0.4218
   68SAPC   C12 5686   3.046   6.668   6.306  0.4491 -0.6056  0.9500
   68SAPC  H12A 5687   3.150   6.671   6.335  0.2450 -0.0855  1.6552
   68SAPC  H12B 5688   2.995   6.649   6.399 -0.8002  0.0493  0.4180
   68SAPC   C13 5689   3.109   6.572   6.084 -0.1056  0.0277  0.3888
   68SAPC  H13A 5690   3.097   6.674   6.050 -0.3096  0.3199  1.2980
   68SAPC  H13B 5691   3.215   6.561   6.100 -0.4322 -0.0899  2.9315
   68SAPC  H13C 5692   3.077   6.515   5.998 -1.9479 -0.0807  1.1036
   68SAPC   C14 5693   3.071   6.426   6.276 -0.1123  0.6618 -1.0897
   68SAPC  H14A 5694   3.032   6.425   6.376 -1.3852  0.6889 -1.5749
   68SAPC  H14B 5695   3.031   6.342   6.222 -3.0246  1.3285 -0.1338
   68SAPC  H14C 5696   3.177   6.432   6.300 -0.1798  0.0469 -0.6257
   68SAPC   C15 5697   2.884   6.542   6.159  0.2178  0.4776 -0.4205
   68SAPC  H15A 5698   2.874   6.459   6.090 -0.0495  0.1536  0.0010
   68SAPC  H15B 5699   2.820   6.512   6.241 -0.8402 -0.1044 -1.4201
   68SAPC  H15C 5700   2.848   6.636   6.122  1.1458  1.5392  1.2756
   68SAPC   C11 5701   3.012   6.813   6.251 -0.1716 -0.0290 -0.5581
   68SAPC  H11A 5702   3.029   6.866   6.347  0.5594 -1.4942  0.1599
   68SAPC  H11B 5703   2.903   6.807   6.234 -0.5870 -1.6513  2.1447
   68SAPC     P 5704   3.198   6.977   6.164  0.0707  0.0891 -0.4778
   68SAPC   O13 5705   3.288   6.992   6.047  0.2400 -1.0032  0.0131
   68SAPC   O14 5706   3.120   7.090   6.217  0.3859  0.1176  1.2347
   68SAPC   O12 5707   3.097   6.851   6.140 -0.8102 -0.4110  0.3218
   68SAPC   O11 5708   3.288   6.931   6.279  0.3040 -1.0893 -0.4838
   68SAPC    C1 5709   3.388   6.823   6.275  0.8218 -0.8214  1.2480
   68SAPC    HA 5710   3.343   6.721   6.269 -1.0139  0.0223 -0.7549
   68SAPC    HB 5711   3.442   6.824   6.178 -1.1216 -0.4730  0.0973
   68SAPC    C2 5712   3.492   6.832   6.393 -0.0833 -0.1926 -0.1559
   68SAPC    HS 5713   3.546   6.737   6.412  1.3099  1.1750  3.8329
   68SAPC   O21 5714   3.424   6.870   6.510  0.6775 -0.0838 -0.0345
   68SAPC   C21 5715   3.311   6.817   6.546  0.1840  0.4130 -0.3957
   68SAPC   O22 5716   3.268   6.713   6.503  0.0013  0.2515  0.1035
   68SAPC   C22 5717   3.242   6.897   6.655  0.1078  0.3634 -0.2451
   68SAPC   H2R 5718   3.242   6.838   6.749 -0.8615  1.6820  0.6099
   68SAPC   H2S 5719   3.304   6.983   6.688  0.5955 -0.9459  2.6002
   68SAPC    C3 5720   3.609   6.934   6.362 -0.0979  0.2264  0.2922
   68SAPC    HX 5721   3.553   7.025   6.331 -1.6445 -0.7681  0.0264
   68SAPC    HY 5722   3.661   6.891   6.274  0.0477  0.5978  0.1999
   68SAPC   O31 5723   3.706   6.947   6.471  0.4184 -0.7789  0.3724
   68SAPC   C31 5724   3.719   7.068   6.526  0.0726  0.6524 -0.3712
   68SAPC   O32 5725   3.687   7.170   6.472 -0.1497 -0.4876  0.1718
   68SAPC   C32 5726   3.781   7.046   6.666 -0.2988 -0.1510 -1.0851
   68SAPC   H2X 5727   3.766   7.141   6.721  0.6430 -0.0144 -1.0507
   68SAPC   H2Y 5728   3.889   7.021   6.668 -0.7697 -2.3831  1.3291
   68SAPC   C23 5729   3.110   6.950   6.616 -0.5270 -0.2763  0.7134
   68SAPC   H3R 5730   3.024   6.883   6.594 -0.4452 -0.6692  1.5544
   68SAPC   H3S 5731   3.135   7.015   6.529  1.0949 -0.8535  0.7282
   68SAPC   C24 5732   3.064   7.052   6.723  0.3059  0.0910 -0.2004
   68SAPC   H4R 5733   2.981   7.115   6.683  0.2830  1.4145  1.8035
   68SAPC   H4S 5734   3.147   7.123   6.741  0.6257 -0.1967 -0.5408
   68SAPC   C25 5735   3.008   6.986   6.850  0.4215 -0.2125  0.2594
   68SAPC   H5R 5736   2.921   6.927   6.814 -0.5700  2.8025 -2.7863
   68SAPC   C26 5737   3.049   7.007   6.973 -0.2997 -0.0156  0.0134
   68SAPC   H6R 5738   3.003   6.945   7.052  1.9712 -3.5174 -1.1891
   68SAPC   C27 5739   3.169   7.096   7.012  0.6533  0.4195 -0.5697
   68SAPC   H7R 5740   3.132   7.196   7.042 -1.8166 -0.4236 -0.4959
   68SAPC   H7S 5741   3.231   7.110   6.921  0.7542 -1.9046 -0.9407
   68SAPC   C28 5742   3.257   7.023   7.105  0.2448  0.2320  0.3338
   68SAPC   H8R 5743   3.341   6.974   7.055  0.7620  0.3148  1.1060
   68SAPC   C29 5744   3.245   7.014   7.240  0.8554 -0.0523 -0.2918
   68SAPC   H9R 5745   3.321   6.961   7.299 -0.1981  0.2377  1.4070
   68SAPC  C210 5746   3.141   7.087   7.324  0.0827 -0.9074 -0.5079
   68SAPC  H10R 5747   3.136   7.036   7.422 -0.0912 -1.7832 -0.9572
   68SAPC  H10S 5748   3.043   7.070   7.274 -0.4536 -1.9873  0.8175
   68SAPC  C211 5749   3.150   7.237   7.337 -0.6917 -0.1155 -1.4631
   68SAPC  H11R 5750   3.150   7.290   7.240 -0.9678 -0.5284 -1.6914
   68SAPC  C212 5751   3.181   7.302   7.448 -0.5174  0.3708 -0.4328
   68SAPC  H12R 5752   3.194   7.411   7.448 -3.2079  0.7471 -0.2666
   68SAPC  C213 5753   3.199   7.242   7.592  0.0451 -0.0095  0.1090
   68SAPC  H13R 5754   3.308   7.234   7.611  0.3876  0.4003 -1.5634
   68SAPC  H13S 5755   3.154   7.140   7.596 -1.7611  0.7108 -0.8465
   68SAPC  C214 5756   3.141   7.322   7.709 -0.0053 -0.2055  0.4734
   68SAPC  H14R 5757   3.034   7.299   7.722  0.0401 -0.9849 -0.4324
   68SAPC  C215 5758   3.210   7.410   7.790  0.2971  1.1332  0.1492
   68SAPC  H15R 5759   3.151   7.464   7.865 -0.4430 -0.5814  0.8585
   68SAPC  C216 5760   3.355   7.443   7.792 -0.1189  0.0651  0.2737
   68SAPC  H16R 5761   3.367   7.527   7.720 -0.4608 -0.5779 -0.5422
   68SAPC  H16S 5762   3.423   7.359   7.768  0.4753  0.5211  0.3277
   68SAPC  C217 5763   3.407   7.498   7.925 -0.1807 -0.4291  0.2429
   68SAPC  H17R 5764   3.518   7.505   7.914 -0.3754  0.0134 -1.8960
   68SAPC  H17S 5765   3.378   7.426   8.004 -1.6661 -0.4655 -0.3195
   68SAPC  C218 5766   3.343   7.635   7.954  0.5258 -0.5285  0.7200
   68SAPC  H18R 5767   3.233   7.636   7.934  0.0224  1.1448  3.1502
   68SAPC  H18S 5768   3.389   7.698   7.875  2.1633  0.6461  2.5205
   68SAPC  C219 5769   3.382   7.698   8.091 -0.4111 -0.0847  0.4178
   68SAPC  H19R 5770   3.490   7.724   8.091 -0.4895  0.3913  2.3297
   68SAPC  H19S 5771   3.372   7.609   8.157 -0.9713 -0.1551  0.2464
   68SAPC  C220 5772   3.290   7.800   8.149  0.1398 -0.9913 -0.4691
   68SAPC  H20R 5773   3.190   7.752   8.147 -0.5189  0.3050 -3.3512
   68SAPC  H20S 5774   3.287   7.896   8.093 -1.9008 -1.4948 -1.3419
   68SAPC  H20T 5775   3.326   7.821   8.252 -1.8800  1.4373 -0.1483
   68SAPC   C33 5776   3.717   6.939   6.762  0.7990 -0.8821 -0.4451
   68SAPC   H3X 5777   3.759   6.840   6.736 -1.0516 -1.8503  0.0902
   68SAPC   H3Y 5778   3.607   6.931   6.752  0.4485  2.2189 -0.1099
   68SAPC   C34 5779   3.747   6.972   6.916 -0.3760  0.7911 -0.0024
   68SAPC   H4X 5780   3.703   7.069   6.948  1.3463  1.6520 -0.1737
   68SAPC   H4Y 5781   3.854   6.961   6.944 -0.3089  1.0351 -0.1686
   68SAPC   C35 5782   3.665   6.874   7.009 -0.5254 -0.1140  0.0910
   68SAPC   H5X 5783   3.728   6.782   7.012 -1.4610 -0.8335 -1.3249
   68SAPC   H5Y 5784   3.566   6.842   6.971 -0.3476  1.5597 -1.9571
   68SAPC   C36 5785   3.644   6.950   7.138 -0.5400  1.1178  0.4875
   68SAPC   H6X 5786   3.579   7.038   7.117 -1.3335  0.4370  0.0260
   68SAPC   H6Y 5787   3.739   6.983   7.185 -0.2584 -0.7753  1.3595
   68SAPC   C37 5788   3.567   6.863   7.246  0.0568 -0.2580 -0.0948
   68SAPC   H7X 5789   3.617   6.765   7.255  3.3366  1.0539 -2.3061
   68SAPC   H7Y 5790   3.466   6.853   7.200  0.1161 -0.0594 -0.2692
   68SAPC   C38 5791   3.556   6.922   7.388 -0.0095 -0.3026 -0.0016
   68SAPC   H8X 5792   3.491   6.850   7.443 -1.5103  1.4343  0.5990
   68SAPC   H8Y 5793   3.495   7.014   7.388 -0.2726 -0.4744  0.1634
   68SAPC   C39 5794   3.688   6.940   7.455 -0.1030 -0.4131 -0.3708
   68SAPC   H9X 5795   3.741   7.029   7.416 -3.4273  1.8489 -0.2061
   68SAPC   H9Y 5796   3.748   6.855   7.418 -2.8178 -2.7991  0.3365
   68SAPC  C310 5797   3.673   6.929   7.609 -0.2971  0.1354 -0.0216
   68SAPC  H10X 5798   3.759   6.957   7.673 -0.5614 -0.4621  0.6016
   68SAPC  H10Y 5799   3.665   6.818   7.620  1.5612  0.1355  1.9193
   68SAPC  C311 5800   3.552   6.999   7.667  0.7108 -0.5927 -0.6135
   68SAPC  H11X 5801   3.463   6.951   7.621  1.0947 -1.0049 -0.9353
   68SAPC  H11Y 5802   3.550   7.102   7.624 -0.3776  0.0193  0.8424
   68SAPC  C312 5803   3.550   6.995   7.823  0.4220  0.3585  0.5967
   68SAPC  H12X 5804   3.573   6.894   7.862 -0.8629 -0.0131  0.4416
   68SAPC  H12Y 5805   3.449   7.013   7.867 -0.3161 -0.6113 -0.6439
   68SAPC  C313 5806   3.657   7.089   7.883  0.0088  0.0192 -0.4943
   68SAPC  H13X 5807   3.684   7.154   7.797 -0.9122  0.1294 -0.7169
   68SAPC  H13Y 5808   3.743   7.029   7.920 -1.4725 -1.4005  0.8164
   68SAPC  C314 5809   3.601   7.177   7.996 -0.2679 -0.4919  0.7846
   68SAPC  H14X 5810   3.513   7.228   7.950  0.5186  1.6310  1.4931
   68SAPC  H14Y 5811   3.674   7.259   8.015  0.3456 -1.2282  1.6750
   68SAPC  C315 5812   3.563   7.123   8.129  0.0292  0.0575 -0.4535
   68SAPC  H15X 5813   3.649   7.063   8.165  0.3653  0.7492 -0.0936
   68SAPC  H15Y 5814   3.477   7.056   8.104 -0.7330  0.6298  0.5487
   68SAPC  C316 5815   3.529   7.236   8.216  0.2754 -0.7032  0.0297
   68SAPC  H16X 5816   3.454   7.299   8.164  0.6007 -1.4328 -1.3863
   68SAPC  H16Y 5817   3.627   7.284   8.238  0.9505 -2.3004  0.7004
   68SAPC  C317 5818   3.468   7.202   8.349  0.5312  0.1482 -0.1554
   68SAPC  H17X 5819   3.387   7.128   8.337  0.5367 -0.0749  1.0465
   68SAPC  H17Y 5820   3.424   7.293   8.396  0.3012 -0.8503  1.6711
   68SAPC  C318 5821   3.560   7.134   8.449 -0.3019 -0.2742  0.2417
   68SAPC  H18X 5822   3.497   7.105   8.536 -2.0181  1.4028 -0.3829
   68SAPC  H18Y 5823   3.642   7.198   8.488  1.1731 -1.9678  0.0927
   68SAPC  H18Z 5824   3.610   7.042   8.411  0.9445 -0.1586  1.5126
   69SLPC     N 5825   1.795   6.107  11.069 -0.6072 -0.3919  0.9706
   69SLPC   C13 5826   1.932   6.065  11.122  0.0274  0.6586  0.0508
   69SLPC  H13A 5827   1.955   6.124  11.209 -1.1483  1.4134 -0.1277
   69SLPC  H13B 5828   1.943   5.963  11.155  0.2698  0.7441  0.2406
   69SLPC  H13C 5829   2.010   6.073  11.047  0.1974  3.0474  0.3980
   69SLPC   C14 5830   1.813   6.256  11.032 -0.1299 -0.3011 -0.1551
   69SLPC  H14A 5831   1.718   6.303  11.011  0.4297  1.3396  0.7921
   69SLPC  H14B 5832   1.844   6.316  11.116 -1.5942  1.2470 -0.6629
   69SLPC  H14C 5833   1.888   6.271  10.957  0.1153  0.3766  0.2117
   69SLPC   C15 5834   1.691   6.080  11.175 -0.3349 -0.1317 -0.0179
   69SLPC  H15A 5835   1.735   6.110  11.269 -3.2334  0.8340  1.1339
   69SLPC  H15B 5836   1.601   6.139  11.161  1.1551  2.5585  0.9931
   69SLPC  H15C 5837   1.673   5.974  11.185  1.2271 -0.3049  1.3047
   69SLPC   C12 5838   1.769   6.032  10.931 -0.1163 -0.2093  0.0674
   69SLPC  H12A 5839   1.750   5.927  10.942 -2.4934 -0.1273 -2.1478
   69SLPC  H12B 5840   1.864   6.025  10.879  0.8140  0.0727  1.6587
   69SLPC   C11 5841   1.648   6.067  10.835  0.0715 -0.6923  0.4967
   69SLPC  H11A 5842   1.652   6.015  10.737  1.6837 -2.3075  1.3660
   69SLPC  H11B 5843   1.655   6.176  10.814  0.9963 -0.9888 -0.9133
   69SLPC     P 5844   1.446   5.908  10.907  0.6213  0.2834  0.0797
   69SLPC   O13 5845   1.532   5.817  10.993  0.2998  0.5868 -0.1264
   69SLPC   O14 5846   1.309   5.916  10.951  0.5323 -0.1024 -0.0220
   69SLPC   O12 5847   1.519   6.051  10.898 -0.6087 -0.0612  0.1947
   69SLPC   O11 5848   1.448   5.853  10.757 -0.0112 -0.2878 -0.1167
   69SLPC    C1 5849   1.373   5.924  10.657 -0.3220 -0.3106  0.0488
   69SLPC    HA 5850   1.270   5.883  10.658 -0.6070  0.3737  2.0524
   69SLPC    HB 5851   1.371   6.033  10.679  1.3665 -0.4688  1.2062
   69SLPC    C2 5852   1.435   5.908  10.517 -0.9704  0.7426  0.0840
   69SLPC    HS 5853   1.512   5.985  10.496  1.4921 -1.2440  1.2503
   69SLPC   O21 5854   1.330   5.901  10.422 -0.1780 -0.2552 -0.2991
   69SLPC   C21 5855   1.283   6.023  10.396  0.0175 -1.3339 -0.1790
   69SLPC   O22 5856   1.310   6.126  10.457  0.6695  0.2785 -0.3257
   69SLPC   C22 5857   1.194   6.014  10.274 -0.4094 -0.2583  1.1354
   69SLPC   H2R 5858   1.247   5.952  10.199  0.4184  1.2612  0.4250
   69SLPC   H2S 5859   1.101   5.963  10.308  0.2577 -0.4378  2.7613
   69SLPC    C3 5860   1.517   5.776  10.507 -0.2869  0.3182 -0.2373
   69SLPC    HX 5861   1.461   5.682  10.525  2.0742 -1.4806 -1.6433
   69SLPC    HY 5862   1.600   5.773  10.581  1.1729  1.4251 -1.7361
   69SLPC   O31 5863   1.586   5.774  10.375  0.0238  0.3942 -0.6502
   69SLPC   C31 5864   1.528   5.706  10.282 -0.3276 -0.3568 -0.4627
   69SLPC   O32 5865   1.439   5.627  10.300 -0.8864  0.5215 -0.4658
   69SLPC   C32 5866   1.599   5.724  10.147  0.2563 -0.0112 -0.1843
   69SLPC   H2X 5867   1.694   5.667  10.145 -0.3466 -1.0852  0.5982
   69SLPC   H2Y 5868   1.601   5.833  10.125 -2.4160  0.3430  0.8822
   69SLPC   C23 5869   1.175   6.161  10.209 -0.1227 -0.1872 -0.2602
   69SLPC   H3R 5870   1.268   6.220  10.223 -0.9644  0.7732  1.8678
   69SLPC   H3S 5871   1.110   6.227  10.271  0.8835  0.3814  0.2159
   69SLPC   C24 5872   1.145   6.160  10.061 -0.3354  0.2538 -0.3564
   69SLPC   H4R 5873   1.108   6.263  10.040 -3.2095 -0.5997  0.0629
   69SLPC   H4S 5874   1.072   6.079  10.044  0.5103 -0.7338  0.6084
   69SLPC   C25 5875   1.258   6.125   9.975  0.4462 -0.0786 -0.1461
   69SLPC   H5R 5876   1.306   6.026   9.990  2.1462  0.4357 -1.7770
   69SLPC   H5S 5877   1.344   6.195   9.984  0.6559 -0.3781  0.2256
   69SLPC   C26 5878   1.219   6.094   9.827 -0.4266  0.0184  0.6766
   69SLPC   H6R 5879   1.302   6.095   9.753 -1.3748 -0.1393 -0.4139
   69SLPC   H6S 5880   1.140   6.163   9.789  0.0369 -1.2412 -2.9325
   69SLPC   C27 5881   1.159   5.956   9.800 -0.0312  0.7477 -0.0733
   69SLPC   H7R 5882   1.069   5.940   9.863  1.9636 -0.0634  2.7781
   69SLPC   H7S 5883   1.220   5.871   9.837 -0.4158  0.6324  0.2992
   69SLPC   C28 5884   1.130   5.924   9.650  0.0654  0.3887  0.2840
   69SLPC   H8R 5885   1.074   5.828   9.651  1.7782 -0.6632 -0.1611
   69SLPC   H8S 5886   1.228   5.907   9.601  0.7684 -2.4835  2.4456
   69SLPC   C29 5887   1.043   6.034   9.589  0.5770  0.3385  0.0111
   69SLPC   H9R 5888   0.944   6.042   9.636  0.9346 -2.0585  1.4036
   69SLPC  C210 5889   1.067   6.106   9.481  0.0768 -0.0403  0.6361
   69SLPC  H10R 5890   0.990   6.175   9.443 -0.7168 -1.0838  0.2879
   69SLPC  C211 5891   1.188   6.101   9.389  0.4852 -0.2570  0.2776
   69SLPC  H11R 5892   1.281   6.100   9.450  0.4470 -2.2740  0.3598
   69SLPC  H11S 5893   1.179   6.186   9.318  1.2163  0.8264  1.4505
   69SLPC  C212 5894   1.183   5.978   9.307  0.1348  0.5334 -0.5722
   69SLPC  H12R 5895   1.238   5.890   9.344  2.1756  1.3849 -1.3976
   69SLPC  C213 5896   1.143   5.962   9.178  0.2143 -0.1915  0.6689
   69SLPC  H13R 5897   1.162   5.862   9.136 -1.3378  0.1184 -0.8992
   69SLPC  C214 5898   1.072   6.053   9.081 -0.2590 -0.4286  0.2328
   69SLPC  H14R 5899   1.040   6.145   9.135  0.3152 -0.2439  0.2654
   69SLPC  H14S 5900   0.984   5.997   9.042  0.6679 -1.2581 -0.7522
   69SLPC  C215 5901   1.154   6.102   8.961  0.1969 -0.8452  0.5240
   69SLPC  H15R 5902   1.172   6.026   8.882  1.1563  1.7564 -1.9687
   69SLPC  H15S 5903   1.250   6.135   9.008 -1.1453  1.4764  1.8301
   69SLPC  C216 5904   1.109   6.224   8.889 -0.1700 -0.2075  0.1395
   69SLPC  H16R 5905   1.140   6.301   8.963 -0.8680  0.9866 -0.7752
   69SLPC  H16S 5906   1.000   6.219   8.868  0.2321 -1.4886 -2.0262
   69SLPC  C217 5907   1.184   6.242   8.755  0.7396 -0.2368  0.6279
   69SLPC  H17R 5908   1.291   6.214   8.770  1.3959  1.5547 -0.3918
   69SLPC  H17S 5909   1.170   6.348   8.725  0.8246 -1.0729 -2.6833
   69SLPC  C218 5910   1.124   6.150   8.646  0.2438  0.4326  0.4230
   69SLPC  H18R 5911   1.190   6.169   8.559  0.4592 -0.5540  0.3583
   69SLPC  H18S 5912   1.016   6.168   8.627  0.0491 -0.4724  0.6221
   69SLPC  H18T 5913   1.148   6.046   8.678  0.6923  0.1967 -0.6315
   69SLPC   C33 5914   1.510   5.656  10.038 -0.3731 -0.0773 -0.0829
   69SLPC   H3X 5915   1.404   5.688  10.034 -0.2841  0.2219 -0.0677
   69SLPC   H3Y 5916   1.513   5.554  10.082 -0.7036  0.8955  2.3564
   69SLPC   C34 5917   1.567   5.662   9.894 -0.3172  0.2029 -0.6308
   69SLPC   H4X 5918   1.556   5.561   9.849 -2.0712 -0.4485  1.1204
   69SLPC   H4Y 5919   1.672   5.698   9.886 -0.5870  0.7685 -2.1022
   69SLPC   C35 5920   1.490   5.763   9.806  0.6431 -0.0324  0.0554
   69SLPC   H5X 5921   1.460   5.851   9.867 -2.4182  0.7162 -2.2549
   69SLPC   H5Y 5922   1.387   5.721   9.805  0.6756 -0.1036 -0.4270
   69SLPC   C36 5923   1.525   5.797   9.667 -0.6737 -0.6532  0.0371
   69SLPC   H6X 5924   1.629   5.837   9.674 -0.4388 -1.2880  0.2860
   69SLPC   H6Y 5925   1.456   5.878   9.636  0.1235 -0.4521 -1.2837
   69SLPC   C37 5926   1.521   5.673   9.581  0.1446  0.1010  0.4679
   69SLPC   H7X 5927   1.431   5.609   9.586  2.1898 -3.2559 -1.6431
   69SLPC   H7Y 5928   1.615   5.614   9.589  1.5853  2.0780 -0.9052
   69SLPC   C38 5929   1.535   5.716   9.431  0.3000 -0.4361  0.1304
   69SLPC   H8X 5930   1.609   5.798   9.422 -1.0851  1.0321  1.4934
   69SLPC   H8Y 5931   1.436   5.760   9.404 -0.2270 -1.6960 -0.0770
   69SLPC   C39 5932   1.558   5.605   9.328  0.1227  0.0143 -0.2779
   69SLPC   H9X 5933   1.479   5.528   9.337  2.2492 -2.1497  1.2111
   69SLPC   H9Y 5934   1.652   5.551   9.353  0.1226 -0.3913 -1.1323
   69SLPC  C310 5935   1.557   5.648   9.182  0.3284 -0.0035 -0.1212
   69SLPC  H10X 5936   1.642   5.716   9.158  1.0886 -1.9867 -3.8843
   69SLPC  H10Y 5937   1.464   5.707   9.168  0.8535  0.6370 -1.0511
   69SLPC  C311 5938   1.563   5.525   9.095 -0.6527  0.2944  0.4796
   69SLPC  H11X 5939   1.477   5.460   9.123  0.3398 -1.0335  0.5184
   69SLPC  H11Y 5940   1.655   5.464   9.109 -0.1279  0.7443 -0.8868
   69SLPC  C312 5941   1.562   5.559   8.943 -1.0526 -0.1553 -0.7708
   69SLPC  H12X 5942   1.646   5.629   8.927 -2.0956  1.9504  2.0509
   69SLPC  H12Y 5943   1.465   5.612   8.929 -0.7760  1.0782  1.4275
   69SLPC  C313 5944   1.570   5.443   8.851 -0.8286  0.1352 -0.0059
   69SLPC  H13X 5945   1.477   5.384   8.839 -1.1700  0.7000 -0.1860
   69SLPC  H13Y 5946   1.648   5.368   8.879 -1.4230 -1.1940 -1.6893
   69SLPC  C314 5947   1.593   5.477   8.695  0.6515  0.0006 -0.3440
   69SLPC  H14X 5948   1.489   5.503   8.665 -0.3790 -1.2417  1.8851
   69SLPC  H14Y 5949   1.619   5.382   8.645  2.5001 -0.2744  1.0040
   69SLPC  C315 5950   1.691   5.590   8.657  0.2269  0.7784  0.1322
   69SLPC  H15X 5951   1.793   5.565   8.693  0.7130  1.2709 -0.8676
   69SLPC  H15Y 5952   1.651   5.682   8.705 -1.4183  1.2502 -2.0086
   69SLPC  C316 5953   1.701   5.607   8.500 -0.0716  0.5592 -0.1566
   69SLPC  H16X 5954   1.605   5.634   8.451 -1.0435 -1.2515  0.6134
   69SLPC  H16Y 5955   1.722   5.506   8.458  0.7579  2.1064 -3.8540
   69SLPC  C317 5956   1.811   5.711   8.454  0.3288  0.6282 -0.4530
   69SLPC  H17X 5957   1.774   5.728   8.351 -2.5288 -1.4907  0.0862
   69SLPC  H17Y 5958   1.912   5.666   8.442  0.6148 -0.1228  3.5136
   69SLPC  C318 5959   1.825   5.837   8.520  0.0636 -0.3876 -0.7713
   69SLPC  H18X 5960   1.853   5.831   8.627  0.6209 -0.2292 -0.9041
   69SLPC  H18Y 5961   1.730   5.896   8.519 -0.7078 -1.4653  1.7458
   69SLPC  H18Z 5962   1.893   5.917   8.484 -0.0270  0.7796  1.4888
   70SLPC     N 5963   2.780   4.451  10.787 -0.0548 -0.8893 -0.1912
   70SLPC   C13 5964   2.869   4.395  10.677  0.0081  0.6093  0.2647
   70SLPC  H13A 5965   2.969   4.391  10.718 -0.4033  1.5062  1.4122
   70SLPC  H13B 5966   2.826   4.300  10.649  0.1372 -0.1576  2.4918
   70SLPC  H13C 5967   2.862   4.454  10.587 -0.9575 -0.7213 -0.5718
   70SLPC   C14 5968   2.651   4.505  10.737 -0.5229 -0.2437 -0.7947
   70SLPC  H14A 5969   2.589   4.422  10.707 -1.2151  0.0528 -0.2072
   70SLPC  H14B 5970   2.598   4.566  10.809  1.9106 -0.3847  1.2218
   70SLPC  H14C 5971   2.655   4.554  10.640 -1.7241  0.1492 -0.6618
   70SLPC   C15 5972   2.857   4.568  10.851 -0.7057  0.1927 -0.4646
   70SLPC  H15A 5973   2.817   4.613  10.940  0.4035  0.9546 -0.3270
   70SLPC  H15B 5974   2.952   4.531  10.887 -0.8474  0.6563  0.3975
   70SLPC  H15C 5975   2.883   4.650  10.785 -1.0505  0.2245 -0.5595
   70SLPC   C12 5976   2.755   4.349  10.892  0.1238 -0.4908 -0.4299
   70SLPC  H12A 5977   2.724   4.405  10.979  0.4703  0.9009 -1.1789
   70SLPC  H12B 5978   2.840   4.285  10.914  0.3121 -0.7519 -1.8110
   70SLPC   C11 5979   2.654   4.242  10.853  0.1103  0.2751  0.4540
   70SLPC  H11A 5980   2.561   4.283  10.808  1.8013  2.7020 -1.0147
   70SLPC  H11B 5981   2.631   4.192  10.950 -0.9370  0.7755  0.4760
   70SLPC     P 5982   2.700   3.988  10.793 -0.0539 -0.2037 -0.2208
   70SLPC   O13 5983   2.819   3.935  10.865  0.1028 -0.2663 -0.1436
   70SLPC   O14 5984   2.567   3.971  10.863  0.1477  0.1662 -0.2074
   70SLPC   O12 5985   2.708   4.148  10.762 -0.3858 -0.1725  0.3480
   70SLPC   O11 5986   2.706   3.929  10.642  0.2278 -0.1431 -0.0718
   70SLPC    C1 5987   2.588   3.905  10.572  0.1082 -0.4370  0.0259
   70SLPC    HA 5988   2.608   3.850  10.479 -1.6085  0.4555 -0.9264
   70SLPC    HB 5989   2.513   3.850  10.633 -1.9817  2.8676  0.7140
   70SLPC    C2 5990   2.532   4.046  10.518  0.1428 -0.7552  0.0125
   70SLPC    HS 5991   2.520   4.101  10.613  1.1926 -3.2742  1.7261
   70SLPC   O21 5992   2.403   4.021  10.455 -0.2768 -0.7404 -0.3716
   70SLPC   C21 5993   2.337   4.124  10.416  0.2140 -0.0309 -0.6333
   70SLPC   O22 5994   2.382   4.238  10.407  0.1400 -0.0200  0.0537
   70SLPC   C22 5995   2.200   4.079  10.387  0.0709 -0.7034 -0.4641
   70SLPC   H2R 5996   2.210   3.978  10.340 -0.0252 -1.5783  1.3358
   70SLPC   H2S 5997   2.137   4.077  10.478 -0.0051 -1.0230 -0.5227
   70SLPC    C3 5998   2.637   4.123  10.432 -0.4684 -0.4871  0.6209
   70SLPC    HX 5999   2.741   4.119  10.471  0.5344  6.1219 -0.1792
   70SLPC    HY 6000   2.617   4.232  10.439  1.5051 -0.1366  1.3963
   70SLPC   O31 6001   2.630   4.068  10.293 -0.2763 -0.1407  0.4705
   70SLPC   C31 6002   2.728   4.113  10.209 -0.0971 -0.5649 -0.1207
   70SLPC   O32 6003   2.813   4.189  10.238 -0.5504 -1.0862  0.3862
   70SLPC   C32 6004   2.718   4.042  10.076  0.3159  0.0660 -0.0467
   70SLPC   H2X 6005   2.740   3.936  10.101  0.5103  0.2172  0.4285
   70SLPC   H2Y 6006   2.803   4.083  10.017 -0.9032 -0.0189 -1.9438
   70SLPC   C23 6007   2.120   4.168  10.285  0.3886 -0.1152  0.4276
   70SLPC   H3R 6008   2.132   4.274  10.316  0.3382  0.3048 -0.9361
   70SLPC   H3S 6009   2.013   4.139  10.296  0.4985 -0.7328 -0.0745
   70SLPC   C24 6010   2.175   4.141  10.144 -0.2857 -0.0312  0.0055
   70SLPC   H4R 6011   2.163   4.035  10.113  0.1788 -0.6152  1.6938
   70SLPC   H4S 6012   2.282   4.168  10.156 -0.2220 -0.1478 -0.2983
   70SLPC   C25 6013   2.111   4.222  10.028  0.0792  0.0592 -0.6110
   70SLPC   H5R 6014   2.157   4.322  10.042  1.1801 -0.5987  0.7534
   70SLPC   H5S 6015   2.003   4.223  10.052 -0.2059  0.2756 -1.8334
   70SLPC   C26 6016   2.155   4.172   9.889  0.2332  0.7081 -0.0509
   70SLPC   H6R 6017   2.263   4.149   9.881 -0.2161 -1.1363 -1.4704
   70SLPC   H6S 6018   2.135   4.252   9.814 -0.6731 -0.8046 -1.5086
   70SLPC   C27 6019   2.078   4.046   9.854  0.5875  0.3111 -0.0784
   70SLPC   H7R 6020   1.969   4.059   9.870  0.8493  1.1314  1.2021
   70SLPC   H7S 6021   2.106   3.962   9.921  1.4579  2.1122  1.9323
   70SLPC   C28 6022   2.099   4.001   9.703 -0.7607  1.0170 -0.3796
   70SLPC   H8R 6023   2.080   3.894   9.679  0.5702  0.7888 -0.5184
   70SLPC   H8S 6024   2.209   4.016   9.689 -0.4690  0.6193  1.2748
   70SLPC   C29 6025   2.024   4.091   9.598 -0.1328 -0.0279 -0.3068
   70SLPC   H9R 6026   2.073   4.186   9.571 -1.3295  0.9721  0.9102
   70SLPC  C210 6027   1.911   4.052   9.535  0.3695  0.5308 -0.5211
   70SLPC  H10R 6028   1.877   4.108   9.447  1.3635  0.1899 -1.1404
   70SLPC  C211 6029   1.839   3.919   9.566 -0.0765  0.1242  0.3203
   70SLPC  H11R 6030   1.842   3.903   9.675 -0.5653 -1.2155  0.1505
   70SLPC  H11S 6031   1.887   3.835   9.512  1.3758  1.0543  0.0973
   70SLPC  C212 6032   1.692   3.930   9.529 -0.6022 -0.3341  0.4739
   70SLPC  H12R 6033   1.621   3.966   9.605 -0.1061  2.0909 -0.1212
   70SLPC  C213 6034   1.635   3.916   9.409  0.1718  0.0086  0.0536
   70SLPC  H13R 6035   1.526   3.924   9.397  0.1454  1.1196  0.8972
   70SLPC  C214 6036   1.707   3.864   9.284  0.1735  0.2382 -0.0502
   70SLPC  H14R 6037   1.656   3.779   9.234 -1.7946  1.6702 -0.5641
   70SLPC  H14S 6038   1.801   3.815   9.317  0.2991  2.0788  2.6268
   70SLPC  C215 6039   1.742   3.969   9.178 -1.0821  0.1545 -0.0445
   70SLPC  H15R 6040   1.836   3.935   9.129 -1.1121 -1.0927  0.7266
   70SLPC  H15S 6041   1.780   4.060   9.231 -1.1193 -0.1294  0.4796
   70SLPC  C216 6042   1.634   3.985   9.075  0.0362  0.5043  0.3174
   70SLPC  H16R 6043   1.654   4.073   9.010  1.9004  0.1502  0.3486
   70SLPC  H16S 6044   1.543   4.025   9.126 -1.5986 -1.4657 -0.9207
   70SLPC  C217 6045   1.607   3.856   9.001 -0.0692  0.0427  0.6278
   70SLPC  H17R 6046   1.567   3.779   9.070  0.3350 -1.5200 -0.8022
   70SLPC  H17S 6047   1.705   3.814   8.968 -0.4463  0.7822 -1.5845
   70SLPC  C218 6048   1.507   3.859   8.884 -0.2457 -0.2839  0.0994
   70SLPC  H18R 6049   1.525   3.952   8.825 -1.6627 -0.7795 -1.1711
   70SLPC  H18S 6050   1.402   3.870   8.917  0.1055  2.1065  0.6301
   70SLPC  H18T 6051   1.515   3.768   8.820  1.3840  1.7996 -2.9451
   70SLPC   C33 6052   2.577   4.066  10.010  0.1613  0.5679  0.1661
   70SLPC   H3X 6053   2.556   4.175  10.015  0.2972  0.6590 -1.0677
   70SLPC   H3Y 6054   2.505   4.011  10.074 -1.3368 -0.1495 -2.0304
   70SLPC   C34 6055   2.557   4.001   9.875 -0.2279 -0.1048  0.1040
   70SLPC   H4X 6056   2.452   4.013   9.843 -0.8077  1.5087  2.3668
   70SLPC   H4Y 6057   2.574   3.891   9.880  0.3136 -0.0981 -1.2529
   70SLPC   C35 6058   2.639   4.068   9.759  0.2659 -0.4862  0.4354
   70SLPC   H5X 6059   2.749   4.056   9.770  0.4474  0.9333  0.2998
   70SLPC   H5Y 6060   2.621   4.177   9.769  2.8836  0.1579 -0.9825
   70SLPC   C36 6061   2.593   4.021   9.621 -1.1867 -0.3797 -0.2204
   70SLPC   H6X 6062   2.483   4.016   9.607 -1.4189  1.0718  0.8250
   70SLPC   H6Y 6063   2.628   3.917   9.607 -0.7847 -0.5444  1.7549
   70SLPC   C37 6064   2.667   4.092   9.507  0.9514  0.1430  0.7844
   70SLPC   H7X 6065   2.777   4.073   9.504  0.6973 -1.4199 -0.2798
   70SLPC   H7Y 6066   2.651   4.202   9.513 -1.9667  0.1937 -3.3490
   70SLPC   C38 6067   2.621   4.051   9.363  0.1243  1.3559  0.0736
   70SLPC   H8X 6068   2.511   4.064   9.357  0.1216  0.9402 -0.8501
   70SLPC   H8Y 6069   2.638   3.942   9.368  1.4921  1.6053  2.8717
   70SLPC   C39 6070   2.692   4.121   9.244  0.7813  0.4961 -0.5574
   70SLPC   H9X 6071   2.797   4.087   9.254  0.2566 -1.2193 -0.5367
   70SLPC   H9Y 6072   2.682   4.232   9.244 -2.3913  0.2958 -1.0555
   70SLPC  C310 6073   2.627   4.076   9.115 -1.0021  0.5007  0.2388
   70SLPC  H10X 6074   2.519   4.102   9.102 -1.1760 -0.9146 -1.5441
   70SLPC  H10Y 6075   2.621   3.965   9.104 -0.2774  0.6813 -2.4271
   70SLPC  C311 6076   2.696   4.118   8.976 -0.4044 -0.7729 -0.6114
   70SLPC  H11X 6077   2.777   4.046   8.951  0.4253 -0.4102  0.9210
   70SLPC  H11Y 6078   2.751   4.213   8.992  0.3522 -1.3397  0.3121
   70SLPC  C312 6079   2.610   4.131   8.844 -0.7339 -0.5884  0.2204
   70SLPC  H12X 6080   2.555   4.228   8.848  0.0197 -0.1214 -0.5915
   70SLPC  H12Y 6081   2.533   4.052   8.855 -1.8845  0.4413 -0.1512
   70SLPC  C313 6082   2.693   4.110   8.711 -0.8864 -0.5142  0.1124
   70SLPC  H13X 6083   2.708   4.001   8.698 -0.0698 -0.5107  0.8904
   70SLPC  H13Y 6084   2.793   4.159   8.716 -0.3167 -1.6915  0.5355
   70SLPC  C314 6085   2.619   4.166   8.590 -1.0922  0.4415 -0.1728
   70SLPC  H14X 6086   2.603   4.274   8.609 -0.7168  0.5863 -0.6469
   70SLPC  H14Y 6087   2.521   4.115   8.593 -0.8346 -0.0666 -0.2927
   70SLPC  C315 6088   2.677   4.135   8.448 -0.3688 -0.1862 -0.1635
   70SLPC  H15X 6089   2.681   4.026   8.424 -0.3175  0.4831 -3.5743
   70SLPC  H15Y 6090   2.781   4.172   8.449 -0.0863 -0.9500 -0.0484
   70SLPC  C316 6091   2.602   4.213   8.341  0.8421 -0.8758  0.0118
   70SLPC  H16X 6092   2.497   4.177   8.341 -0.3821  2.2908 -1.2784
   70SLPC  H16Y 6093   2.638   4.187   8.239 -0.5269 -0.4156 -0.6108
   70SLPC  C317 6094   2.606   4.364   8.363  0.1034  0.5257 -0.5905
   70SLPC  H17X 6095   2.710   4.393   8.389  0.5300  0.5763 -2.2817
   70SLPC  H17Y 6096   2.531   4.386   8.442  0.6000  0.9794 -0.2352
   70SLPC  C318 6097   2.562   4.436   8.237  0.6054 -0.4529 -0.2641
   70SLPC  H18X 6098   2.638   4.416   8.159 -0.6830 -1.5393 -1.2928
   70SLPC  H18Y 6099   2.560   4.546   8.255  1.0587 -0.3518 -0.8207
   70SLPC  H18Z 6100   2.462   4.407   8.197 -0.0752  2.1073 -0.6067
   71SLPC     N 6101   2.024   2.093  10.676  0.3286  0.6269  0.4064
   71SLPC   C13 6102   1.982   2.044  10.810  0.2486 -0.5493  0.0853
   71SLPC  H13A 6103   1.888   1.991  10.802 -1.1246  1.9112 -1.4754
   71SLPC  H13B 6104   2.051   1.966  10.839  0.8621 -1.0619 -2.4699
   71SLPC  H13C 6105   1.959   2.121  10.882 -0.1864 -0.7719  0.1865
   71SLPC   C14 6106   2.027   1.975  10.583  0.2559 -0.1766  0.2949
   71SLPC  H14A 6107   2.095   1.898  10.617  0.0971  0.1406  1.3693
   71SLPC  H14B 6108   1.928   1.936  10.566 -0.2706  1.5704 -0.8777
   71SLPC  H14C 6109   2.070   2.000  10.487 -0.5858  0.2954  0.0360
   71SLPC   C15 6110   2.155   2.155  10.673  0.4996 -0.1939  0.0911
   71SLPC  H15A 6111   2.184   2.208  10.584  2.7793  0.1593  0.9855
   71SLPC  H15B 6112   2.170   2.232  10.746  3.1750  1.0419 -1.6282
   71SLPC  H15C 6113   2.236   2.089  10.702  2.7044  2.9253  1.4879
   71SLPC   C12 6114   1.914   2.191  10.620 -0.6111  0.4516  0.3948
   71SLPC  H12A 6115   1.929   2.216  10.517  0.8566  1.8489  0.9065
   71SLPC  H12B 6116   1.925   2.287  10.669 -0.4778  0.6820 -0.0849
   71SLPC   C11 6117   1.768   2.153  10.626  0.0413 -0.1068  0.0314
   71SLPC  H11A 6118   1.715   2.248  10.603 -0.5070 -0.4503 -0.1515
   71SLPC  H11B 6119   1.745   2.119  10.729 -0.8624  0.3033 -0.0255
   71SLPC     P 6120   1.639   1.947  10.557 -0.0149  0.2344  0.4376
   71SLPC   O13 6121   1.716   1.828  10.608 -1.1121  0.1105  0.4471
   71SLPC   O14 6122   1.535   1.990  10.646 -0.1100 -0.4069  0.3107
   71SLPC   O12 6123   1.730   2.060  10.521 -0.2988 -0.3455  0.4117
   71SLPC   O11 6124   1.571   1.905  10.424  0.0056  0.3314 -0.1204
   71SLPC    C1 6125   1.535   1.993  10.316  0.0321  0.5889 -0.5644
   71SLPC    HA 6126   1.580   2.094  10.326 -0.4527  0.6736  1.1356
   71SLPC    HB 6127   1.576   1.948  10.223  1.3218 -0.5675  0.5165
   71SLPC    C2 6128   1.382   2.011  10.285  0.2989 -0.3318  0.2201
   71SLPC    HS 6129   1.343   2.037  10.386  2.0325  1.1031  0.5874
   71SLPC   O21 6130   1.331   1.876  10.251  0.3017  0.1818  0.4624
   71SLPC   C21 6131   1.202   1.869  10.251  0.3616 -0.2230 -0.7775
   71SLPC   O22 6132   1.125   1.956  10.292  0.6038  0.2194 -0.1252
   71SLPC   C22 6133   1.158   1.730  10.208  0.1338 -0.2809 -0.4434
   71SLPC   H2R 6134   1.247   1.663  10.211  0.8473  0.6609 -0.1569
   71SLPC   H2S 6135   1.090   1.697  10.289 -1.5257  0.7850 -1.3402
   71SLPC    C3 6136   1.344   2.126  10.178  0.8073 -0.0583  0.0070
   71SLPC    HX 6137   1.382   2.221  10.220  0.1054 -0.9839  2.9863
   71SLPC    HY 6138   1.233   2.123  10.169  0.6910 -0.5239  1.4371
   71SLPC   O31 6139   1.406   2.095  10.054  0.2616  0.0494 -0.1093
   71SLPC   C31 6140   1.375   2.177   9.957 -0.0030  0.3143 -0.3029
   71SLPC   O32 6141   1.309   2.284   9.971 -0.5376  0.2958 -0.5897
   71SLPC   C32 6142   1.426   2.107   9.827  0.1123 -0.4694 -0.5888
   71SLPC   H2X 6143   1.383   2.005   9.820 -1.6897  0.2298 -0.1898
   71SLPC   H2Y 6144   1.537   2.108   9.823  0.2025  2.8032 -0.1012
   71SLPC   C23 6145   1.075   1.734  10.079  0.4924  0.2146 -0.2345
   71SLPC   H3R 6146   0.990   1.806  10.076 -0.6940 -1.1576 -2.4246
   71SLPC   H3S 6147   1.029   1.633  10.068 -1.9158  1.3782 -1.7795
   71SLPC   C24 6148   1.151   1.761   9.950  0.2230  0.4577  0.3641
   71SLPC   H4R 6149   1.222   1.677   9.935 -0.6757 -0.2802  0.1557
   71SLPC   H4S 6150   1.212   1.852   9.969 -0.9977  0.8053  2.9806
   71SLPC   C25 6151   1.060   1.774   9.835 -0.2032  0.0238 -0.3283
   71SLPC   H5R 6152   0.979   1.847   9.854 -1.5382 -1.1809 -1.2359
   71SLPC   H5S 6153   1.004   1.682   9.806  0.4788 -0.1667 -1.0833
   71SLPC   C26 6154   1.126   1.821   9.705 -0.4892 -0.8895  0.4690
   71SLPC   H6R 6155   1.211   1.751   9.691  1.8334  2.0677 -1.6637
   71SLPC   H6S 6156   1.173   1.921   9.719  1.2155 -1.3841 -1.3162
   71SLPC   C27 6157   1.020   1.820   9.584  0.2219 -0.0896 -0.3150
   71SLPC   H7R 6158   0.932   1.887   9.599  0.5647  0.2723  0.0921
   71SLPC   H7S 6159   0.985   1.715   9.577  2.1613 -1.0711  2.8853
   71SLPC   C28 6160   1.092   1.865   9.456 -0.2482  0.2923  0.1327
   71SLPC   H8R 6161   1.168   1.787   9.433  0.6129  1.2523 -0.3504
   71SLPC   H8S 6162   1.154   1.948   9.495  0.5541 -0.4876  0.5551
   71SLPC   C29 6163   1.014   1.897   9.328  0.1201 -0.0170 -1.0876
   71SLPC   H9R 6164   0.967   1.995   9.308 -0.6310 -0.2089 -0.3149
   71SLPC  C210 6165   0.992   1.802   9.232  0.1366  0.4760 -0.2047
   71SLPC  H10R 6166   0.942   1.829   9.137  0.2734  1.0194 -0.1244
   71SLPC  C211 6167   1.037   1.656   9.237 -0.4165 -0.0357  0.1213
   71SLPC  H11R 6168   1.135   1.649   9.288  0.2089  0.3529 -0.9952
   71SLPC  H11S 6169   1.067   1.626   9.135 -0.2860  0.2886  0.0644
   71SLPC  C212 6170   0.939   1.564   9.300 -0.5295  0.3349  0.5557
   71SLPC  H12R 6171   0.927   1.579   9.409 -1.2449 -1.5528  0.7621
   71SLPC  C213 6172   0.856   1.484   9.239 -0.4116 -0.5700 -0.3246
   71SLPC  H13R 6173   0.794   1.421   9.304 -2.1061  1.0810 -0.2452
   71SLPC  C214 6174   0.840   1.457   9.094  0.1061 -0.1837  0.3409
   71SLPC  H14R 6175   0.914   1.381   9.060 -0.8255 -0.6071 -0.8580
   71SLPC  H14S 6176   0.860   1.551   9.039 -2.9434  1.1102  1.2601
   71SLPC  C215 6177   0.693   1.420   9.045  0.3360  0.4671  0.1277
   71SLPC  H15R 6178   0.645   1.363   9.127  2.6858  1.6006  2.4081
   71SLPC  H15S 6179   0.697   1.361   8.951  0.0380  0.2269  0.2662
   71SLPC  C216 6180   0.605   1.539   9.011 -0.7348 -0.8503 -0.5539
   71SLPC  H16R 6181   0.653   1.590   8.924  0.3084  0.9860  1.0296
   71SLPC  H16S 6182   0.608   1.613   9.093  0.2844 -1.8939  0.3808
   71SLPC  C217 6183   0.457   1.508   8.977  0.1341 -0.6500  0.4081
   71SLPC  H17R 6184   0.449   1.450   8.882 -2.6457  0.1196  0.0906
   71SLPC  H17S 6185   0.398   1.599   8.954 -0.6382 -0.8947  1.3938
   71SLPC  C218 6186   0.385   1.431   9.085 -0.3018 -0.4468 -0.3053
   71SLPC  H18R 6187   0.405   1.467   9.188 -0.0422 -0.6151 -0.2973
   71SLPC  H18S 6188   0.405   1.322   9.079  2.2341 -0.0183 -0.4494
   71SLPC  H18T 6189   0.275   1.433   9.068 -0.2751 -1.6120 -0.6620
   71SLPC   C33 6190   1.394   2.191   9.701  0.5555  0.2555  0.0559
   71SLPC   H3X 6191   1.442   2.291   9.692  1.7064 -0.1182  1.6753
   71SLPC   H3Y 6192   1.284   2.205   9.706  0.3046 -0.0979 -2.7554
   71SLPC   C34 6193   1.426   2.108   9.573 -0.2896 -0.1735  0.4659
   71SLPC   H4X 6194   1.394   2.002   9.583  0.4845 -0.3668  0.9467
   71SLPC   H4Y 6195   1.536   2.115   9.557 -0.5274  0.6809 -0.9916
   71SLPC   C35 6196   1.364   2.167   9.443 -0.5242  0.6512  0.0141
   71SLPC   H5X 6197   1.376   2.277   9.437  3.0363  0.3127 -1.0809
   71SLPC   H5Y 6198   1.255   2.145   9.438 -0.3938  0.2501 -3.5815
   71SLPC   C36 6199   1.422   2.085   9.329  0.1878  0.5551 -0.3015
   71SLPC   H6X 6200   1.418   1.975   9.347 -1.3995  0.0553 -3.0691
   71SLPC   H6Y 6201   1.528   2.115   9.317 -0.3908  2.2030 -1.5831
   71SLPC   C37 6202   1.360   2.103   9.191  0.5556 -0.0555 -0.1011
   71SLPC   H7X 6203   1.354   2.209   9.159 -2.5184  0.0887  0.6102
   71SLPC   H7Y 6204   1.256   2.065   9.193  1.0236 -1.5623 -1.6746
   71SLPC   C38 6205   1.427   2.022   9.081  0.5113 -0.2544 -0.5054
   71SLPC   H8X 6206   1.463   1.920   9.104 -2.6134 -1.7873 -1.7717
   71SLPC   H8Y 6207   1.520   2.070   9.045  0.9230  0.4643  1.4327
   71SLPC   C39 6208   1.341   1.994   8.960 -0.1137  0.1741 -0.5492
   71SLPC   H9X 6209   1.412   1.940   8.894  1.0144  2.9766 -1.8332
   71SLPC   H9Y 6210   1.312   2.095   8.922 -0.7220  0.3347  0.3149
   71SLPC  C310 6211   1.220   1.904   8.977 -0.5375  0.5204 -0.3027
   71SLPC  H10X 6212   1.138   1.959   9.029 -0.2073 -0.7930  1.7335
   71SLPC  H10Y 6213   1.254   1.817   9.037 -0.7963 -0.7261 -1.9028
   71SLPC  C311 6214   1.156   1.860   8.841  0.3491 -0.2362  0.4152
   71SLPC  H11X 6215   1.234   1.819   8.772  1.2164  0.5101  0.9250
   71SLPC  H11Y 6216   1.117   1.956   8.801  1.8902  1.1266  2.0141
   71SLPC  C312 6217   1.034   1.773   8.854  1.1096 -0.7489 -0.0150
   71SLPC  H12X 6218   0.951   1.818   8.913  0.1024  0.1340 -1.9984
   71SLPC  H12Y 6219   1.054   1.682   8.915 -0.6143 -0.9632  0.2918
   71SLPC  C313 6220   0.975   1.735   8.722  0.4506 -0.6101  0.6716
   71SLPC  H13X 6221   1.032   1.675   8.648 -1.7935  0.6769 -2.3068
   71SLPC  H13Y 6222   0.944   1.832   8.676 -0.9262 -1.3089  0.0923
   71SLPC  C314 6223   0.836   1.667   8.735 -0.1458 -0.4897 -0.5064
   71SLPC  H14X 6224   0.782   1.741   8.799 -0.3924  2.7516 -4.0548
   71SLPC  H14Y 6225   0.854   1.574   8.793  0.0882 -1.5327 -2.1856
   71SLPC  C315 6226   0.764   1.642   8.603  0.5072  0.3660  0.2257
   71SLPC  H15X 6227   0.834   1.598   8.528 -0.6448 -0.3758 -0.4568
   71SLPC  H15Y 6228   0.743   1.737   8.550 -0.0583  0.9206  1.4130
   71SLPC  C316 6229   0.643   1.556   8.615 -0.6542  0.4152  0.1487
   71SLPC  H16X 6230   0.558   1.608   8.663 -0.2360  1.8243 -0.5717
   71SLPC  H16Y 6231   0.679   1.477   8.684 -0.3632  2.2598  2.2143
   71SLPC  C317 6232   0.597   1.505   8.479  0.1788  0.1750  0.0946
   71SLPC  H17X 6233   0.556   1.408   8.514  0.3427  0.6662  1.7405
   71SLPC  H17Y 6234   0.686   1.494   8.414  1.5497  0.0902  1.9318
   71SLPC  C318 6235   0.490   1.584   8.403 -0.3411  1.0201  0.1242
   71SLPC  H18X 6236   0.442   1.518   8.327  0.9344  1.4400 -1.0878
   71SLPC  H18Y 6237   0.530   1.675   8.353 -2.9403  2.1421 -0.0762
   71SLPC  H18Z 6238   0.403   1.617   8.463 -1.6150  3.1808 -2.6799
   72SLPC     N 6239   2.478   1.183  11.047 -0.1855 -0.2974 -0.4826
   72SLPC   C13 6240   2.387   1.294  11.084 -0.1921  0.0899  0.3416
   72SLPC  H13A 6241   2.286   1.272  11.056 -0.0797 -3.0633  1.9430
   72SLPC  H13B 6242   2.400   1.322  11.188 -0.4659 -0.1663  0.4461
   72SLPC  H13C 6243   2.419   1.384  11.033  0.0865  0.5182  1.2489
   72SLPC   C14 6244   2.438   1.061  11.126  0.0624  0.3457 -0.3126
   72SLPC  H14A 6245   2.432   1.083  11.231 -0.3216 -2.8684  0.4181
   72SLPC  H14B 6246   2.334   1.050  11.100 -0.7564  1.4651  2.1564
   72SLPC  H14C 6247   2.498   0.973  11.113 -0.3491 -0.1090  0.7646
   72SLPC   C15 6248   2.624   1.220  11.085 -0.5493 -0.0916 -0.5464
   72SLPC  H15A 6249   2.656   1.310  11.034 -2.6903  2.3354  2.0748
   72SLPC  H15B 6250   2.619   1.246  11.189  1.3300 -0.3985 -0.3403
   72SLPC  H15C 6251   2.694   1.139  11.070 -0.6385 -0.6269  1.6556
   72SLPC   C12 6252   2.476   1.146  10.905  0.1399 -0.5460  0.3023
   72SLPC  H12A 6253   2.382   1.113  10.863 -0.8245  1.5103  0.7413
   72SLPC  H12B 6254   2.547   1.065  10.891 -1.1166 -1.6102 -0.0980
   72SLPC   C11 6255   2.526   1.251  10.803  0.1618  0.1155  0.1370
   72SLPC  H11A 6256   2.538   1.208  10.702 -2.4452 -0.1195 -0.1561
   72SLPC  H11B 6257   2.618   1.295  10.848 -0.5633  2.1145 -0.2029
   72SLPC     P 6258   2.319   1.328  10.687  0.1578 -0.9669  0.5002
   72SLPC   O13 6259   2.268   1.195  10.686 -0.4760  0.3194 -0.1640
   72SLPC   O14 6260   2.224   1.439  10.704  0.3184 -0.6599  0.1058
   72SLPC   O12 6261   2.429   1.355  10.791 -0.0907 -0.4957 -0.3489
   72SLPC   O11 6262   2.390   1.341  10.543  0.4398  0.2967  0.1232
   72SLPC    C1 6263   2.469   1.460  10.516 -0.1505  1.0560 -0.1937
   72SLPC    HA 6264   2.405   1.545  10.483 -0.6154  0.7280 -0.1306
   72SLPC    HB 6265   2.524   1.487  10.608 -3.2396  1.5463  1.6274
   72SLPC    C2 6266   2.569   1.433  10.400  0.1824 -0.5276  0.6657
   72SLPC    HS 6267   2.643   1.516  10.405 -0.8536  0.4562  0.2390
   72SLPC   O21 6268   2.503   1.420  10.274  0.1577 -0.5505  0.3407
   72SLPC   C21 6269   2.479   1.520  10.186  0.0250  0.3680 -0.9078
   72SLPC   O22 6270   2.506   1.636  10.199  0.0898  0.2287  0.5412
   72SLPC   C22 6271   2.409   1.461  10.062 -0.6116  0.1262 -0.1723
   72SLPC   H2R 6272   2.486   1.411  10.000 -1.4944 -2.4739  0.7135
   72SLPC   H2S 6273   2.333   1.393  10.105 -2.1300  2.9642  2.0008
   72SLPC    C3 6274   2.641   1.301  10.434 -0.0419 -0.3844 -0.3406
   72SLPC    HX 6275   2.578   1.209  10.422  0.6100 -0.7880 -0.7414
   72SLPC    HY 6276   2.659   1.305  10.543 -0.8754  1.7607 -0.2478
   72SLPC   O31 6277   2.766   1.279  10.358  0.0948 -0.2261 -0.0829
   72SLPC   C31 6278   2.750   1.236  10.240  0.4617  0.0258 -0.2923
   72SLPC   O32 6279   2.651   1.185  10.193  0.0589  0.2618  0.0974
   72SLPC   C32 6280   2.873   1.259  10.153  0.6561  0.6041 -0.0770
   72SLPC   H2X 6281   2.861   1.184  10.071 -1.0023 -0.3260  0.9349
   72SLPC   H2Y 6282   2.963   1.233  10.212  0.5273 -0.1520 -0.1952
   72SLPC   C23 6283   2.334   1.565   9.982 -0.3321  0.0551 -0.3725
   72SLPC   H3R 6284   2.402   1.651   9.962 -1.2943  0.8206 -0.4102
   72SLPC   H3S 6285   2.243   1.597  10.037 -1.0677 -1.2395 -0.8080
   72SLPC   C24 6286   2.294   1.506   9.843 -0.4962  0.9315  0.6261
   72SLPC   H4R 6287   2.200   1.448   9.849  0.2501 -0.4394 -0.5010
   72SLPC   H4S 6288   2.362   1.423   9.816 -0.8725  0.8328 -0.0479
   72SLPC   C25 6289   2.307   1.605   9.731  0.2441 -0.0968  0.1559
   72SLPC   H5R 6290   2.400   1.664   9.727  0.7195 -0.8308  0.0656
   72SLPC   H5S 6291   2.219   1.672   9.741 -0.7594 -1.5663  1.8706
   72SLPC   C26 6292   2.290   1.527   9.598 -0.3616  0.1540 -0.6916
   72SLPC   H6R 6293   2.199   1.466   9.612 -1.1435  1.9133  3.5385
   72SLPC   H6S 6294   2.378   1.462   9.579 -0.7321 -0.0267 -1.8948
   72SLPC   C27 6295   2.263   1.626   9.487  0.4315 -0.6647 -0.2573
   72SLPC   H7R 6296   2.352   1.690   9.470 -1.0976  0.6801 -4.6888
   72SLPC   H7S 6297   2.172   1.686   9.510  0.3775 -0.8173 -0.0715
   72SLPC   C28 6298   2.229   1.563   9.344 -0.1272  0.3910 -0.1469
   72SLPC   H8R 6299   2.131   1.513   9.356 -0.1657 -0.3247 -2.6819
   72SLPC   H8S 6300   2.302   1.480   9.330  0.6711  0.9424  0.6446
   72SLPC   C29 6301   2.229   1.661   9.235 -0.1493  0.8773  0.6491
   72SLPC   H9R 6302   2.153   1.741   9.235 -0.5008  0.5423  0.9915
   72SLPC  C210 6303   2.303   1.662   9.125  0.7997  0.4197 -0.4190
   72SLPC  H10R 6304   2.307   1.745   9.054 -0.6574 -0.7931 -2.0208
   72SLPC  C211 6305   2.393   1.555   9.075  0.1053 -0.1979 -0.1158
   72SLPC  H11R 6306   2.393   1.471   9.147 -0.7566  1.6765  2.1889
   72SLPC  H11S 6307   2.494   1.599   9.065 -0.9534  2.0985 -1.4182
   72SLPC  C212 6308   2.342   1.501   8.943 -0.3431  0.0301 -0.1017
   72SLPC  H12R 6309   2.269   1.421   8.960 -0.9223  1.1408  3.2868
   72SLPC  C213 6310   2.371   1.540   8.820  0.4195 -0.1731  0.3917
   72SLPC  H13R 6311   2.319   1.494   8.734  0.8181  2.4856 -1.3624
   72SLPC  C214 6312   2.468   1.652   8.779 -0.1360  0.8415  0.4510
   72SLPC  H14R 6313   2.503   1.723   8.857 -0.0051  1.8333 -0.4860
   72SLPC  H14S 6314   2.426   1.712   8.695 -0.9729  1.5392  1.3411
   72SLPC  C215 6315   2.594   1.593   8.714 -0.1531  0.1487  0.5399
   72SLPC  H15R 6316   2.574   1.544   8.617  0.3569  0.5226  0.2376
   72SLPC  H15S 6317   2.637   1.512   8.776  3.2247  0.1577 -1.5364
   72SLPC  C216 6318   2.701   1.694   8.688 -0.1030 -0.8153  0.4426
   72SLPC  H16R 6319   2.710   1.759   8.777  1.0509 -1.2435  0.6615
   72SLPC  H16S 6320   2.669   1.759   8.604  0.6332 -0.1341  0.6789
   72SLPC  C217 6321   2.841   1.639   8.657  0.3936  0.2457  0.4821
   72SLPC  H17R 6322   2.827   1.574   8.568  0.0973 -1.1694  1.5187
   72SLPC  H17S 6323   2.878   1.574   8.739 -0.2846  0.0465  0.6364
   72SLPC  C218 6324   2.955   1.741   8.632 -0.1128  0.3091 -0.1523
   72SLPC  H18R 6325   2.996   1.784   8.726  0.9992 -1.4038  0.1783
   72SLPC  H18S 6326   2.912   1.828   8.578  1.9179  1.2140 -0.3822
   72SLPC  H18T 6327   3.026   1.705   8.554 -0.1379  0.2270 -0.1378
   72SLPC   C33 6328   2.885   1.402  10.100 -0.7102 -0.4182  0.7383
   72SLPC   H3X 6329   2.992   1.412  10.073 -0.6754 -1.8895  0.1999
   72SLPC   H3Y 6330   2.870   1.480  10.177  2.7229 -0.2020  1.3366
   72SLPC   C34 6331   2.790   1.431   9.979 -0.1965 -0.5108 -0.9457
   72SLPC   H4X 6332   2.777   1.541   9.984  0.0019 -0.5544  2.0223
   72SLPC   H4Y 6333   2.689   1.388   9.994 -0.8199  1.4764  0.9904
   72SLPC   C35 6334   2.846   1.386   9.849 -0.0829 -0.3706  0.6128
   72SLPC   H5X 6335   2.853   1.275   9.842 -0.1830 -0.4148  1.1342
   72SLPC   H5Y 6336   2.951   1.422   9.838 -0.2336  0.4580  1.6922
   72SLPC   C36 6337   2.764   1.439   9.725 -0.0594  0.0493 -0.0570
   72SLPC   H6X 6338   2.778   1.549   9.720  0.1184 -0.0137 -1.1654
   72SLPC   H6Y 6339   2.656   1.421   9.743  0.1037 -3.5857 -1.8937
   72SLPC   C37 6340   2.789   1.378   9.593 -0.4271  0.0403 -0.6065
   72SLPC   H7X 6341   2.736   1.281   9.590 -1.0767  0.4207 -2.4316
   72SLPC   H7Y 6342   2.897   1.352   9.590 -1.2588 -3.9017 -0.9273
   72SLPC   C38 6343   2.757   1.466   9.474 -0.2992  0.1232  0.1953
   72SLPC   H8X 6344   2.829   1.551   9.479  0.3539 -0.3655 -0.7340
   72SLPC   H8Y 6345   2.650   1.493   9.479 -0.6966 -0.7239 -2.3498
   72SLPC   C39 6346   2.773   1.395   9.338 -0.1416  0.2894 -0.2322
   72SLPC   H9X 6347   2.673   1.348   9.326 -0.6918  1.5494 -0.8345
   72SLPC   H9Y 6348   2.855   1.321   9.339 -0.9897 -0.7855 -2.9978
   72SLPC  C310 6349   2.793   1.491   9.214 -0.0158  0.7239  1.2420
   72SLPC  H10X 6350   2.893   1.540   9.217  0.5904 -0.3236 -0.5830
   72SLPC  H10Y 6351   2.723   1.577   9.223  0.4126  1.5028 -1.9023
   72SLPC  C311 6352   2.768   1.426   9.072 -0.1586  0.5067 -0.6744
   72SLPC  H11X 6353   2.764   1.506   8.995 -1.2555  0.8352 -0.2983
   72SLPC  H11Y 6354   2.666   1.383   9.072  0.2337 -0.4646  0.5216
   72SLPC  C312 6355   2.876   1.321   9.040 -0.3246  0.1768  0.3226
   72SLPC  H12X 6356   2.867   1.234   9.108 -0.8134  0.8773  1.1756
   72SLPC  H12Y 6357   2.978   1.365   9.050  0.4837 -1.9194  2.0749
   72SLPC  C313 6358   2.872   1.276   8.889  0.1668 -0.6906 -0.0750
   72SLPC  H13X 6359   2.852   1.369   8.831 -0.2034 -0.2781  0.7018
   72SLPC  H13Y 6360   2.778   1.217   8.877  0.3487 -1.8458  3.2180
   72SLPC  C314 6361   2.988   1.189   8.833  0.4029 -0.4791  0.4656
   72SLPC  H14X 6362   2.987   1.107   8.908  0.6221 -0.6888  0.2424
   72SLPC  H14Y 6363   3.079   1.252   8.839  0.3798 -0.2947 -0.7927
   72SLPC  C315 6364   2.958   1.157   8.685 -0.3679  0.8585  0.5248
   72SLPC  H15X 6365   2.856   1.116   8.671  0.3934 -0.7058 -0.7171
   72SLPC  H15Y 6366   3.021   1.070   8.657 -0.1374  0.8626  1.0122
   72SLPC  C316 6367   2.980   1.266   8.573  0.6343  0.8902  0.6951
   72SLPC  H16X 6368   3.089   1.283   8.555 -0.1823  3.2042 -3.4253
   72SLPC  H16Y 6369   2.939   1.361   8.613 -0.9230 -0.2070  1.7689
   72SLPC  C317 6370   2.923   1.228   8.437  0.6111  0.1754 -0.5499
   72SLPC  H17X 6371   2.996   1.161   8.386  1.7101 -1.5433  2.9797
   72SLPC  H17Y 6372   2.909   1.326   8.387  1.7073  0.9732  0.6611
   72SLPC  C318 6373   2.783   1.157   8.437  0.0185 -0.4022  0.4690
   72SLPC  H18X 6374   2.793   1.056   8.481 -0.2206  1.1393  4.4414
   72SLPC  H18Y 6375   2.754   1.145   8.330 -0.4500 -2.4142  0.7893
   72SLPC  H18Z 6376   2.708   1.218   8.492 -0.9249  0.7289 -1.9286
   73SLPC     N 6377   4.208   5.558  10.991 -0.1622  0.0387 -0.4005
   73SLPC   C13 6378   4.357   5.527  10.977  0.1519  0.4864  0.6388
   73SLPC  H13A 6379   4.382   5.445  11.043  0.5735  0.3897  0.3648
   73SLPC  H13B 6380   4.368   5.501  10.872  1.8362  0.7622  0.7107
   73SLPC  H13C 6381   4.423   5.609  11.003  1.4250 -0.4758  0.5807
   73SLPC   C14 6382   4.185   5.680  10.914  0.1356  0.2841 -0.0929
   73SLPC  H14A 6383   4.080   5.704  10.920  0.3190  0.9351  0.5758
   73SLPC  H14B 6384   4.225   5.764  10.968 -3.7560  0.7327  2.4790
   73SLPC  H14C 6385   4.229   5.662  10.817 -0.4073 -1.8889  0.0062
   73SLPC   C15 6386   4.175   5.584  11.134  0.9615 -0.0828 -0.6886
   73SLPC  H15A 6387   4.067   5.589  11.137  1.0296  1.1997  1.6753
   73SLPC  H15B 6388   4.207   5.509  11.205  0.4682  1.5544  1.3556
   73SLPC  H15C 6389   4.210   5.678  11.172  0.2202  0.1885 -0.6719
   73SLPC   C12 6390   4.123   5.445  10.927  0.4636 -0.8551 -0.1400
   73SLPC  H12A 6391   4.164   5.353  10.966  2.3188  1.0566  2.8726
   73SLPC  H12B 6392   4.143   5.451  10.821 -0.3489 -1.9244 -0.3711
   73SLPC   C11 6393   3.971   5.447  10.933  0.9925  0.3852 -0.5014
   73SLPC  H11A 6394   3.932   5.453  11.037 -0.2928  1.4642 -1.0151
   73SLPC  H11B 6395   3.935   5.354  10.885  0.1586  0.7623 -0.6193
   73SLPC     P 6396   3.775   5.617  10.872  0.2058 -0.2073 -0.2636
   73SLPC   O13 6397   3.677   5.507  10.850  0.0812 -0.1836 -0.2396
   73SLPC   O14 6398   3.744   5.700  10.992 -0.6447 -0.0099  1.2461
   73SLPC   O12 6399   3.928   5.567  10.870  0.3305 -0.0860  0.1461
   73SLPC   O11 6400   3.778   5.697  10.737  0.2187 -0.5390 -0.0383
   73SLPC    C1 6401   3.877   5.673  10.642 -0.9294  0.1733  0.8560
   73SLPC    HA 6402   3.967   5.726  10.682 -1.1423  0.4865  0.9279
   73SLPC    HB 6403   3.896   5.565  10.626  0.3800  0.5075 -0.0044
   73SLPC    C2 6404   3.840   5.725  10.499  0.9983 -0.5552  0.4935
   73SLPC    HS 6405   3.818   5.832  10.516 -1.1340 -0.7313 -0.7932
   73SLPC   O21 6406   3.726   5.656  10.444 -0.3729  0.2277 -0.5970
   73SLPC   C21 6407   3.624   5.731  10.405 -0.3112  0.3255 -0.2062
   73SLPC   O22 6408   3.614   5.850  10.408 -0.2998  0.4299  0.1928
   73SLPC   C22 6409   3.508   5.641  10.353  0.5667 -0.7081 -0.3807
   73SLPC   H2R 6410   3.553   5.564  10.287 -0.9414 -1.7252 -0.2620
   73SLPC   H2S 6411   3.473   5.583  10.441 -1.1615 -0.7232 -1.0499
   73SLPC    C3 6412   3.960   5.729  10.405  0.7387 -0.2663  0.8498
   73SLPC    HX 6413   3.978   5.622  10.382  0.5393 -0.3797  1.2252
   73SLPC    HY 6414   4.055   5.754  10.457  1.1322  0.8023 -0.3260
   73SLPC   O31 6415   3.941   5.809  10.282 -0.4032  0.0732  0.2468
   73SLPC   C31 6416   3.869   5.740  10.191  0.0308 -0.5007  0.4002
   73SLPC   O32 6417   3.838   5.621  10.193  0.1250  0.4899 -0.1590
   73SLPC   C32 6418   3.842   5.832  10.070  0.3180  0.2609  0.9504
   73SLPC   H2X 6419   3.906   5.922  10.073  0.1963  0.3523  0.8428
   73SLPC   H2Y 6420   3.741   5.874  10.089 -0.9344 -1.9200 -0.4930
   73SLPC   C23 6421   3.389   5.721  10.301 -0.0651  0.1655  0.3238
   73SLPC   H3R 6422   3.374   5.815  10.358  1.0528  0.9746 -0.6457
   73SLPC   H3S 6423   3.294   5.667  10.316 -0.3682  0.0415 -1.6902
   73SLPC   C24 6424   3.408   5.749  10.154  0.2124  0.1812  0.4382
   73SLPC   H4R 6425   3.441   5.654  10.108  1.0949  2.1218 -3.3373
   73SLPC   H4S 6426   3.492   5.822  10.149  1.2153 -0.9845 -0.3225
   73SLPC   C25 6427   3.286   5.798  10.077  0.1085  0.2600 -0.4310
   73SLPC   H5R 6428   3.215   5.866  10.128 -1.1962  0.4828 -2.4042
   73SLPC   H5S 6429   3.223   5.714  10.040  1.6147 -0.1619 -2.2380
   73SLPC   C26 6430   3.340   5.881   9.961  0.2384 -0.0266  0.1684
   73SLPC   H6R 6431   3.402   5.816   9.896  1.1372  2.1066 -1.2561
   73SLPC   H6S 6432   3.396   5.971   9.997  0.0246  0.3727 -0.4666
   73SLPC   C27 6433   3.228   5.942   9.872 -0.3376 -0.7482 -0.5586
   73SLPC   H7R 6434   3.280   6.026   9.820 -0.4853 -0.6175 -0.4956
   73SLPC   H7S 6435   3.150   5.984   9.938 -0.5235  0.4174 -1.4847
   73SLPC   C28 6436   3.169   5.839   9.772 -0.1282 -0.3509  0.2746
   73SLPC   H8R 6437   3.150   5.742   9.823  1.8919 -2.2139 -2.2671
   73SLPC   H8S 6438   3.247   5.817   9.696 -0.7099 -1.9005  0.0875
   73SLPC   C29 6439   3.045   5.896   9.710 -0.1034  0.5300 -0.5151
   73SLPC   H9R 6440   2.950   5.902   9.766 -0.3897  0.7999 -1.0202
   73SLPC  C210 6441   3.034   5.952   9.586  0.0254 -0.2317 -0.1834
   73SLPC  H10R 6442   2.942   6.002   9.554  0.9121  0.6846 -1.4048
   73SLPC  C211 6443   3.147   5.971   9.482  0.3951 -0.1453  0.4114
   73SLPC  H11R 6444   3.188   5.868   9.466 -2.2645 -1.1125 -0.6810
   73SLPC  H11S 6445   3.230   6.025   9.532  0.6882 -1.9040  1.8960
   73SLPC  C212 6446   3.123   6.032   9.347 -0.7321  0.6784  0.0944
   73SLPC  H12R 6447   3.170   6.132   9.340 -0.2176  0.6097  1.8643
   73SLPC  C213 6448   3.063   5.991   9.235  0.3687 -0.1845  0.1026
   73SLPC  H13R 6449   3.052   6.063   9.153 -1.2355  1.9129  2.0291
   73SLPC  C214 6450   2.983   5.862   9.213  0.3824 -0.8209 -0.1946
   73SLPC  H14R 6451   2.880   5.889   9.180  1.0054 -0.5303 -2.0363
   73SLPC  H14S 6452   2.968   5.806   9.308 -2.7512 -0.4552 -0.3516
   73SLPC  C215 6453   3.041   5.758   9.111  0.4090  0.0874  0.3989
   73SLPC  H15R 6454   2.993   5.661   9.132 -0.7201  0.3567 -0.7883
   73SLPC  H15S 6455   3.152   5.750   9.122  0.4909  0.2407 -0.2540
   73SLPC  C216 6456   3.007   5.801   8.964 -0.4876  0.0895  0.1323
   73SLPC  H16R 6457   3.055   5.901   8.964  1.5309 -0.7549  2.8427
   73SLPC  H16S 6458   2.896   5.813   8.957 -0.5059 -0.2067 -0.0994
   73SLPC  C217 6459   3.070   5.714   8.857  0.4111  0.0927 -0.2568
   73SLPC  H17R 6460   3.034   5.610   8.871 -0.5223  0.3705 -0.5602
   73SLPC  H17S 6461   3.180   5.712   8.875  0.2250 -1.6922  0.8753
   73SLPC  C218 6462   3.036   5.737   8.708  0.1767 -0.1299  0.0053
   73SLPC  H18R 6463   3.104   5.674   8.647 -0.3769 -1.4758  0.7358
   73SLPC  H18S 6464   3.055   5.842   8.676  1.0339 -0.0817  0.6279
   73SLPC  H18T 6465   2.932   5.705   8.688 -0.0223  0.6801 -0.3063
   73SLPC   C33 6466   3.827   5.778   9.923 -0.5356 -0.3365  0.3001
   73SLPC   H3X 6467   3.777   5.679   9.932 -1.6624  0.4238  3.4552
   73SLPC   H3Y 6468   3.922   5.757   9.869 -0.8335 -0.6848 -0.1041
   73SLPC   C34 6469   3.744   5.870   9.832 -0.3603 -0.2162  0.1394
   73SLPC   H4X 6470   3.785   5.972   9.845  2.4887 -1.3007  0.4075
   73SLPC   H4Y 6471   3.638   5.863   9.865 -0.7470 -2.5619 -1.3399
   73SLPC   C35 6472   3.752   5.836   9.684 -0.3672  0.3218 -0.9099
   73SLPC   H5X 6473   3.735   5.727   9.678  1.4166 -0.0248 -0.2280
   73SLPC   H5Y 6474   3.857   5.852   9.651  0.0443  0.6600  0.5110
   73SLPC   C36 6475   3.644   5.904   9.591 -0.0986  0.1433  0.0043
   73SLPC   H6X 6476   3.642   6.015   9.594 -1.0542  0.1956 -1.3904
   73SLPC   H6Y 6477   3.543   5.874   9.628  0.1159  0.6050  0.9844
   73SLPC   C37 6478   3.648   5.849   9.446 -0.1194  0.0588 -0.6972
   73SLPC   H7X 6479   3.628   5.740   9.454 -0.1710 -0.0650 -2.1546
   73SLPC   H7Y 6480   3.747   5.866   9.398  0.5812 -0.0123  0.6718
   73SLPC   C38 6481   3.543   5.906   9.355  0.4054  0.0485 -0.5610
   73SLPC   H8X 6482   3.540   6.017   9.346 -1.7474 -0.1485 -3.1189
   73SLPC   H8Y 6483   3.441   5.890   9.396 -0.3995  2.6971 -1.3317
   73SLPC   C39 6484   3.557   5.855   9.218  0.2352  0.6969  0.7975
   73SLPC   H9X 6485   3.577   5.746   9.216 -1.6577  0.3041 -1.5430
   73SLPC   H9Y 6486   3.645   5.899   9.166  0.6337 -0.8817  0.0851
   73SLPC  C310 6487   3.434   5.900   9.136 -0.2832 -0.0607  0.7700
   73SLPC  H10X 6488   3.415   6.008   9.123  2.4448  0.5181  0.9783
   73SLPC  H10Y 6489   3.347   5.860   9.193  0.2753 -0.6851  1.2102
   73SLPC  C311 6490   3.423   5.827   9.001 -0.6332  0.5001  0.0426
   73SLPC  H11X 6491   3.326   5.841   8.949  1.0822 -0.3233 -3.6401
   73SLPC  H11Y 6492   3.425   5.721   9.035  0.4282 -0.0663 -1.6869
   73SLPC  C312 6493   3.537   5.854   8.900  0.2359 -0.2748 -0.0271
   73SLPC  H12X 6494   3.631   5.809   8.939  0.3510  0.6721  0.8215
   73SLPC  H12Y 6495   3.546   5.964   8.890 -0.3159 -0.1931  0.3183
   73SLPC  C313 6496   3.493   5.791   8.767 -0.7655 -0.0724  0.2473
   73SLPC  H13X 6497   3.427   5.706   8.794  0.1201 -1.0624 -0.5802
   73SLPC  H13Y 6498   3.581   5.750   8.711  0.1302 -0.0412  1.5874
   73SLPC  C314 6499   3.426   5.896   8.673 -0.4640 -0.0263 -0.0435
   73SLPC  H14X 6500   3.486   5.988   8.661 -0.6231  0.0401 -0.3421
   73SLPC  H14Y 6501   3.334   5.921   8.730 -0.7884 -1.6240  0.1920
   73SLPC  C315 6502   3.370   5.842   8.543  0.6968 -0.3495  0.2012
   73SLPC  H15X 6503   3.300   5.761   8.573  0.1066 -0.0984 -0.4665
   73SLPC  H15Y 6504   3.448   5.795   8.480  1.5810  2.4454 -0.9274
   73SLPC  C316 6505   3.291   5.952   8.463 -0.3632 -0.4554 -0.1892
   73SLPC  H16X 6506   3.349   6.045   8.446 -1.3053  0.5230  1.6091
   73SLPC  H16Y 6507   3.209   5.997   8.523 -2.0904 -0.3317 -2.5497
   73SLPC  C317 6508   3.237   5.907   8.331 -0.4706  0.2598  1.1542
   73SLPC  H17X 6509   3.317   5.856   8.273 -0.8098 -1.1223  1.8539
   73SLPC  H17Y 6510   3.219   5.998   8.270  0.4189 -0.4846 -0.2718
   73SLPC  C318 6511   3.114   5.807   8.339 -0.1285  0.2238  0.3162
   73SLPC  H18X 6512   3.025   5.851   8.388 -2.1229 -2.7761 -0.3714
   73SLPC  H18Y 6513   3.149   5.717   8.394 -0.5693  0.5275  1.1069
   73SLPC  H18Z 6514   3.079   5.783   8.236 -1.4357  1.0018  0.5540
   74SLPC     N 6515   3.837   0.397  10.790  0.4354  0.0808 -0.7129
   74SLPC   C13 6516   3.835   0.440  10.935  0.6996  0.0274 -0.3165
   74SLPC  H13A 6517   3.737   0.418  10.974  0.2629 -0.1289 -1.4524
   74SLPC  H13B 6518   3.912   0.388  10.990 -0.5550 -1.7284 -0.1550
   74SLPC  H13C 6519   3.851   0.547  10.939 -0.6705  0.2644 -0.6425
   74SLPC   C14 6520   3.864   0.248  10.788  0.1185 -0.0493  0.0041
   74SLPC  H14A 6521   3.846   0.210  10.689  0.2271  0.6106 -0.2746
   74SLPC  H14B 6522   3.963   0.210  10.807 -0.6642 -2.2039 -0.0595
   74SLPC  H14C 6523   3.802   0.199  10.861  0.7300  0.1783  0.7024
   74SLPC   C15 6524   3.948   0.465  10.716 -0.3070  0.1135 -0.0075
   74SLPC  H15A 6525   3.952   0.571  10.737  0.9282  0.3399 -1.2554
   74SLPC  H15B 6526   4.042   0.424  10.749 -0.5212  0.0332  0.5083
   74SLPC  H15C 6527   3.949   0.443  10.610  1.0432 -1.4897  0.2991
   74SLPC   C12 6528   3.706   0.427  10.725  0.1851  0.1013  0.1530
   74SLPC  H12A 6529   3.673   0.528  10.746  0.3798  0.0389  0.7869
   74SLPC  H12B 6530   3.631   0.366  10.773 -2.8013  1.2554 -2.6389
   74SLPC   C11 6531   3.690   0.393  10.576 -0.0576 -0.1189  0.0406
   74SLPC  H11A 6532   3.767   0.454  10.524 -0.7102  0.1107 -0.6700
   74SLPC  H11B 6533   3.589   0.429  10.545 -0.2618  0.3024  1.1577
   74SLPC     P 6534   3.599   0.153  10.567  0.7234  0.4330 -0.0014
   74SLPC   O13 6535   3.650   0.016  10.523 -0.3815  0.1000 -0.1476
   74SLPC   O14 6536   3.541   0.158  10.704 -0.0300 -0.5327 -0.0453
   74SLPC   O12 6537   3.714   0.258  10.544  0.4401 -0.0876  0.4481
   74SLPC   O11 6538   3.488   0.196  10.457 -0.0746 -0.0317 -0.1832
   74SLPC    C1 6539   3.478   0.151  10.327  0.1813 -0.0540 -0.7814
   74SLPC    HA 6540   3.539   0.060  10.307  0.6583  0.1954 -0.4978
   74SLPC    HB 6541   3.374   0.125  10.300 -0.3777 -0.0490  1.1930
   74SLPC    C2 6542   3.556   0.248  10.239  0.1635 -0.2170 -0.1308
   74SLPC    HS 6543   3.652   0.270  10.291 -0.1713 -0.6359  0.6849
   74SLPC   O21 6544   3.484   0.372  10.236 -0.0350  0.8005  0.1471
   74SLPC   C21 6545   3.549   0.479  10.232  0.8141 -0.4213  0.4792
   74SLPC   O22 6546   3.670   0.496  10.234 -0.2243  1.0757 -0.6427
   74SLPC   C22 6547   3.448   0.601  10.229 -0.4509  0.0847 -0.1228
   74SLPC   H2R 6548   3.385   0.587  10.320  1.8426  0.7321  1.6352
   74SLPC   H2S 6549   3.509   0.686  10.267 -2.3010  1.3360  0.2007
   74SLPC    C3 6550   3.575   0.191  10.096  0.6063 -0.2227 -0.8660
   74SLPC    HX 6551   3.468   0.177  10.069  0.4300  0.0223 -0.3164
   74SLPC    HY 6552   3.608   0.085  10.099 -1.6666 -0.9802 -0.8638
   74SLPC   O31 6553   3.634   0.274   9.995 -0.5798 -0.4922  0.1849
   74SLPC   C31 6554   3.769   0.271   9.991 -0.0358 -0.4023 -0.9591
   74SLPC   O32 6555   3.840   0.196  10.056 -0.2257 -0.4691 -0.2934
   74SLPC   C32 6556   3.826   0.366   9.886 -0.1239  0.4709 -0.1317
   74SLPC   H2X 6557   3.931   0.385   9.919 -0.4157  0.2657  0.9791
   74SLPC   H2Y 6558   3.779   0.466   9.881 -0.1375  0.4493 -0.4781
   74SLPC   C23 6559   3.370   0.628  10.094  0.0195  1.5083  0.2616
   74SLPC   H3R 6560   3.292   0.705  10.107 -0.1690  1.0978  1.7225
   74SLPC   H3S 6561   3.325   0.531  10.063  2.4778  0.0240  1.0295
   74SLPC   C24 6562   3.464   0.654   9.977 -0.7926 -0.6092 -0.0542
   74SLPC   H4R 6563   3.528   0.564   9.966 -0.8792 -0.7540  0.6111
   74SLPC   H4S 6564   3.543   0.731   9.974 -1.0544 -0.2297  1.8033
   74SLPC   C25 6565   3.391   0.660   9.842 -0.0220 -0.0839 -0.5119
   74SLPC   H5R 6566   3.330   0.753   9.836  2.0157  1.3962  0.5936
   74SLPC   H5S 6567   3.335   0.564   9.845 -0.6167  0.2750  0.1361
   74SLPC   C26 6568   3.488   0.655   9.724 -0.9169 -0.0841 -0.1263
   74SLPC   H6R 6569   3.544   0.559   9.732 -0.5203  0.0359 -1.2632
   74SLPC   H6S 6570   3.572   0.727   9.733  0.0756 -1.3647  1.3754
   74SLPC   C27 6571   3.431   0.642   9.588  0.3798 -0.2916 -0.4410
   74SLPC   H7R 6572   3.358   0.725   9.574  0.7272  0.0445 -0.2865
   74SLPC   H7S 6573   3.371   0.549   9.576  0.0642  0.2076 -3.2624
   74SLPC   C28 6574   3.523   0.649   9.467  0.3655  0.3510 -0.2820
   74SLPC   H8R 6575   3.479   0.603   9.376  0.5112  1.6620 -1.0382
   74SLPC   H8S 6576   3.613   0.589   9.493  0.2574  0.2296 -0.1861
   74SLPC   C29 6577   3.563   0.789   9.433  0.0638 -0.3043 -0.0382
   74SLPC   H9R 6578   3.627   0.829   9.513 -0.6985  1.5864 -0.3401
   74SLPC  C210 6579   3.517   0.871   9.338  0.4094  0.1873  0.0648
   74SLPC  H10R 6580   3.562   0.965   9.304 -1.0620 -0.1118 -3.0190
   74SLPC  C211 6581   3.400   0.829   9.248  0.0427 -0.3634  0.4157
   74SLPC  H11R 6582   3.319   0.783   9.309 -1.3811  1.7462  0.2134
   74SLPC  H11S 6583   3.425   0.737   9.190 -0.4714  1.1138 -2.2924
   74SLPC  C212 6584   3.360   0.941   9.157  0.5553 -0.2337 -0.5626
   74SLPC  H12R 6585   3.443   0.976   9.094  0.9628 -1.7131 -0.8775
   74SLPC  C213 6586   3.245   1.015   9.162 -0.1250  0.2426  0.6045
   74SLPC  H13R 6587   3.230   1.097   9.090 -0.6023 -0.0844  0.3309
   74SLPC  C214 6588   3.118   1.001   9.240  0.0797  0.4849  0.9261
   74SLPC  H14R 6589   3.113   0.898   9.283  0.1920 -0.4599 -1.2082
   74SLPC  H14S 6590   3.033   1.011   9.169  1.6007 -0.7244 -1.1709
   74SLPC  C215 6591   3.094   1.104   9.350 -0.4065  0.1410 -1.0009
   74SLPC  H15R 6592   2.990   1.090   9.386 -1.3802 -0.5497 -3.8088
   74SLPC  H15S 6593   3.104   1.207   9.308  1.8811  1.3191  2.0434
   74SLPC  C216 6594   3.191   1.083   9.466  0.1391  0.4316  0.7416
   74SLPC  H16R 6595   3.295   1.108   9.437 -0.2020  0.2727 -0.6771
   74SLPC  H16S 6596   3.176   0.975   9.489 -2.0542 -0.0455 -2.3392
   74SLPC  C217 6597   3.146   1.152   9.598  0.4716  0.6674 -0.6141
   74SLPC  H17R 6598   3.042   1.114   9.611 -0.7058  2.9243 -2.5984
   74SLPC  H17S 6599   3.147   1.263   9.591  3.1471  0.9418  1.8871
   74SLPC  C218 6600   3.225   1.099   9.720 -0.1479  0.0897 -0.2532
   74SLPC  H18R 6601   3.211   0.991   9.740  0.5197  0.6507  4.3201
   74SLPC  H18S 6602   3.209   1.151   9.817 -2.3085 -2.1629  0.7075
   74SLPC  H18T 6603   3.333   1.113   9.698 -0.3587 -1.4574 -2.6377
   74SLPC   C33 6604   3.829   0.303   9.744  0.8473  0.8336  0.2558
   74SLPC   H3X 6605   3.724   0.274   9.718  0.2574  2.1632  1.0423
   74SLPC   H3Y 6606   3.905   0.223   9.735  0.7243  0.7735 -0.3021
   74SLPC   C34 6607   3.854   0.420   9.644 -0.2117  0.3156 -0.3962
   74SLPC   H4X 6608   3.953   0.464   9.666 -1.5164  2.7087  1.0228
   74SLPC   H4Y 6609   3.789   0.504   9.673 -2.9315 -2.0087  0.7557
   74SLPC   C35 6610   3.860   0.374   9.496  0.1592 -0.3019 -0.5628
   74SLPC   H5X 6611   3.778   0.305   9.471 -0.9477  0.8495 -0.2297
   74SLPC   H5Y 6612   3.954   0.315   9.497  0.1974 -0.2451  0.5211
   74SLPC   C36 6613   3.878   0.489   9.391  0.3490 -0.4920 -0.5428
   74SLPC   H6X 6614   3.971   0.543   9.417 -0.0625 -0.2622  0.4898
   74SLPC   H6Y 6615   3.800   0.566   9.413  0.3693 -1.1733  2.3905
   74SLPC   C37 6616   3.873   0.436   9.245 -0.1418 -0.3926  0.3094
   74SLPC   H7X 6617   3.970   0.386   9.223 -0.2126 -0.1973 -0.4549
   74SLPC   H7Y 6618   3.874   0.523   9.175 -0.5582 -0.5541  0.1035
   74SLPC   C38 6619   3.743   0.357   9.216  0.1521 -0.1927  0.2338
   74SLPC   H8X 6620   3.661   0.391   9.283 -0.2376  0.1293 -0.3896
   74SLPC   H8Y 6621   3.751   0.248   9.236 -1.0712 -0.4118 -0.3493
   74SLPC   C39 6622   3.694   0.380   9.073  0.8829  0.3603  0.2407
   74SLPC   H9X 6623   3.776   0.364   9.000  1.1389  1.0131  0.3783
   74SLPC   H9Y 6624   3.660   0.485   9.068 -0.2739  0.0567  1.3002
   74SLPC  C310 6625   3.572   0.294   9.033  0.7427  0.2492  0.1484
   74SLPC  H10X 6626   3.490   0.337   9.095  1.4407  0.4757  0.9372
   74SLPC  H10Y 6627   3.597   0.188   9.057  2.1342  0.5315  0.0351
   74SLPC  C311 6628   3.545   0.313   8.879  0.8619  0.4596  0.0904
   74SLPC  H11X 6629   3.454   0.257   8.850 -0.7230  3.0706 -0.2915
   74SLPC  H11Y 6630   3.629   0.256   8.834  0.0170  1.0078 -2.3468
   74SLPC  C312 6631   3.533   0.454   8.827 -0.3390 -0.4391  0.8357
   74SLPC  H12X 6632   3.533   0.437   8.717  1.1860  1.4385  0.5047
   74SLPC  H12Y 6633   3.623   0.518   8.840 -1.0214  0.3615  1.6822
   74SLPC  C313 6634   3.402   0.533   8.852  0.1249 -0.2639 -0.0057
   74SLPC  H13X 6635   3.388   0.560   8.959 -2.7164  0.2919 -0.4343
   74SLPC  H13Y 6636   3.312   0.470   8.834  0.5344 -1.9325  3.0370
   74SLPC  C314 6637   3.401   0.661   8.770  0.5593  0.4941  0.6664
   74SLPC  H14X 6638   3.417   0.643   8.661  1.2735 -0.2065  0.8721
   74SLPC  H14Y 6639   3.489   0.719   8.804  2.4579 -1.8499  0.0305
   74SLPC  C315 6640   3.283   0.756   8.796  0.6450 -0.0553  0.1502
   74SLPC  H15X 6641   3.269   0.754   8.906 -0.1089  0.2234  0.0664
   74SLPC  H15Y 6642   3.180   0.720   8.774  0.8431 -0.3808 -0.2636
   74SLPC  C316 6643   3.308   0.896   8.739  0.0391 -0.7619  0.7008
   74SLPC  H16X 6644   3.392   0.954   8.785  0.3973 -0.4237 -0.3566
   74SLPC  H16Y 6645   3.230   0.972   8.760  1.0760  1.3371 -2.3957
   74SLPC  C317 6646   3.334   0.905   8.586 -0.3792  0.1911 -0.2058
   74SLPC  H17X 6647   3.435   0.878   8.550 -0.0478  0.3202  0.6132
   74SLPC  H17Y 6648   3.335   1.011   8.554  0.9609 -0.1562 -1.3797
   74SLPC  C318 6649   3.238   0.826   8.502  0.2216  0.6168 -0.1456
   74SLPC  H18X 6650   3.269   0.819   8.395  1.5587  0.0209  0.2574
   74SLPC  H18Y 6651   3.138   0.874   8.508  0.0725  0.3146 -0.2498
   74SLPC  H18Z 6652   3.221   0.723   8.538  1.4321  0.3836 -0.1792
   75SLPC     N 6653   2.422   3.445   6.309  0.1325 -0.1734  0.1076
   75SLPC   C13 6654   2.561   3.489   6.279 -0.6247 -0.7641  0.6857
   75SLPC  H13A 6655   2.619   3.533   6.360 -0.1167 -1.5337  0.7502
   75SLPC  H13B 6656   2.630   3.413   6.246  2.2674  1.6213  0.7240
   75SLPC  H13C 6657   2.550   3.561   6.199  0.4453 -3.0666 -1.6525
   75SLPC   C14 6658   2.366   3.396   6.182  0.4827 -0.0439 -1.0281
   75SLPC  H14A 6659   2.341   3.472   6.110 -3.1539  1.0574  1.1192
   75SLPC  H14B 6660   2.428   3.323   6.132 -0.1144 -0.4155 -1.2385
   75SLPC  H14C 6661   2.268   3.354   6.199  0.2966  0.0731 -1.7781
   75SLPC   C15 6662   2.347   3.566   6.360 -0.9624  0.2062  0.3399
   75SLPC  H15A 6663   2.352   3.651   6.294  0.1183 -0.8686 -1.0290
   75SLPC  H15B 6664   2.249   3.532   6.391 -0.2143 -1.8655  0.6341
   75SLPC  H15C 6665   2.395   3.602   6.450 -0.5049  1.4896 -0.3978
   75SLPC   C12 6666   2.422   3.326   6.413  0.2110 -0.0962 -0.7380
   75SLPC  H12A 6667   2.462   3.370   6.503  2.9810 -2.6451 -0.5868
   75SLPC  H12B 6668   2.495   3.253   6.381  0.9551  0.8539 -1.2633
   75SLPC   C11 6669   2.290   3.248   6.443 -0.4915  0.1355 -0.6564
   75SLPC  H11A 6670   2.325   3.178   6.521 -0.5489  1.4149  0.5586
   75SLPC  H11B 6671   2.258   3.185   6.358  0.5408 -1.4289  0.0723
   75SLPC     P 6672   2.033   3.300   6.453 -0.5463 -0.2455 -0.0303
   75SLPC   O13 6673   2.016   3.367   6.318  0.4443  0.5694 -0.1955
   75SLPC   O14 6674   1.990   3.162   6.461  0.0833 -0.2150  0.1570
   75SLPC   O12 6675   2.188   3.329   6.493  0.1412  0.3901  0.0161
   75SLPC   O11 6676   1.952   3.382   6.565  0.3685  0.1389  0.2015
   75SLPC    C1 6677   2.005   3.459   6.672 -0.2142 -0.7278 -0.6517
   75SLPC    HA 6678   2.089   3.527   6.643 -1.3201  1.0952  0.1904
   75SLPC    HB 6679   1.918   3.518   6.709 -0.5275 -1.9024  0.5378
   75SLPC    C2 6680   2.053   3.357   6.787 -0.2910 -1.3099 -0.0849
   75SLPC    HS 6681   2.126   3.292   6.734 -0.0167 -0.0700 -1.3028
   75SLPC   O21 6682   1.936   3.277   6.820 -0.2100 -0.8127 -0.6793
   75SLPC   C21 6683   1.963   3.159   6.866 -0.4557 -0.1312 -0.2818
   75SLPC   O22 6684   2.075   3.110   6.862  0.0503 -0.1617  0.1685
   75SLPC   C22 6685   1.831   3.093   6.918  0.4702 -0.4874 -0.5200
   75SLPC   H2R 6686   1.782   3.165   6.988  1.6802  0.8736 -1.0284
   75SLPC   H2S 6687   1.768   3.086   6.827  0.5904 -0.1026 -0.6338
   75SLPC    C3 6688   2.121   3.428   6.913  0.6121  0.4614 -0.0387
   75SLPC    HX 6689   2.054   3.511   6.944 -0.7809 -0.0760 -1.4806
   75SLPC    HY 6690   2.216   3.470   6.872  0.9861  0.2339  0.5897
   75SLPC   O31 6691   2.136   3.338   7.024  0.2639 -0.0257 -0.6144
   75SLPC   C31 6692   2.253   3.289   7.045 -0.1517  0.1010 -0.4269
   75SLPC   O32 6693   2.353   3.301   6.976 -0.1466  0.2359  0.5140
   75SLPC   C32 6694   2.254   3.217   7.184 -0.4726 -0.1933  0.3334
   75SLPC   H2X 6695   2.163   3.154   7.196  0.7480 -2.0656  0.1642
   75SLPC   H2Y 6696   2.259   3.292   7.266  0.8738  0.6543 -0.4750
   75SLPC   C23 6697   1.843   2.959   7.001  0.0072 -0.7510 -0.7125
   75SLPC   H3R 6698   1.907   2.880   6.956  0.7555 -0.9531  0.6555
   75SLPC   H3S 6699   1.738   2.924   7.010 -0.6017  1.4281  1.8132
   75SLPC   C24 6700   1.910   2.980   7.139  0.3342 -0.1360  0.6992
   75SLPC   H4R 6701   1.854   3.050   7.204 -2.2683 -0.6392 -0.8486
   75SLPC   H4S 6702   2.016   3.013   7.134  0.0355  0.8405  0.5422
   75SLPC   C25 6703   1.915   2.848   7.212  0.0626 -0.4951  0.2542
   75SLPC   H5R 6704   1.963   2.779   7.140 -0.1659  2.0202 -2.5207
   75SLPC   H5S 6705   1.812   2.819   7.241 -1.0352 -1.3471 -3.9386
   75SLPC   C26 6706   1.967   2.881   7.351  0.3762  0.0367  0.2116
   75SLPC   H6R 6707   1.891   2.935   7.412 -2.4001 -3.3099  0.1000
   75SLPC   H6S 6708   2.063   2.936   7.342 -0.0451  0.7854  0.2117
   75SLPC   C27 6709   2.003   2.753   7.420  0.0523  0.9627 -0.3814
   75SLPC   H7R 6710   2.077   2.694   7.361 -0.8836 -0.9086  0.2323
   75SLPC   H7S 6711   1.911   2.692   7.432 -0.7761  2.0437 -1.0187
   75SLPC   C28 6712   2.076   2.775   7.557 -0.5456  0.3327 -0.2112
   75SLPC   H8R 6713   2.154   2.854   7.549  0.0738 -0.4173 -1.8430
   75SLPC   H8S 6714   2.120   2.674   7.574 -0.0987  0.6825  0.7899
   75SLPC   C29 6715   1.979   2.809   7.675  0.2792 -0.3618 -0.5787
   75SLPC   H9R 6716   1.968   2.917   7.693 -2.0921 -0.4157 -1.4299
   75SLPC  C210 6717   1.920   2.730   7.770 -0.0103  0.6633  0.5188
   75SLPC  H10R 6718   1.862   2.780   7.848 -1.3996  0.5071 -0.3759
   75SLPC  C211 6719   1.917   2.577   7.779  0.3236  0.4852 -0.0913
   75SLPC  H11R 6720   1.913   2.530   7.679  0.5891 -0.0954  0.1707
   75SLPC  H11S 6721   1.821   2.543   7.822  0.9048 -1.2516 -0.0846
   75SLPC  C212 6722   2.023   2.515   7.855 -0.3942 -0.5537 -0.7498
   75SLPC  H12R 6723   2.119   2.519   7.803 -1.2073  0.3270 -2.2478
   75SLPC  C213 6724   2.021   2.456   7.977 -0.3976  0.1038  0.1024
   75SLPC  H13R 6725   2.117   2.448   8.029  0.0208  0.9799 -0.5054
   75SLPC  C214 6726   1.901   2.432   8.061 -0.1077  0.2251  0.2525
   75SLPC  H14R 6727   1.895   2.322   8.072 -1.8224  0.1507 -0.9706
   75SLPC  H14S 6728   1.806   2.455   8.008 -0.3238  0.9924  0.9356
   75SLPC  C215 6729   1.912   2.495   8.194 -0.0772  0.2714 -0.0437
   75SLPC  H15R 6730   1.934   2.604   8.190  0.4653  0.1335 -1.2781
   75SLPC  H15S 6731   1.991   2.442   8.251 -0.9074 -0.8373  0.1195
   75SLPC  C216 6732   1.775   2.469   8.267 -0.2893 -0.2160 -0.5366
   75SLPC  H16R 6733   1.751   2.361   8.258 -1.0513 -0.0419 -0.6411
   75SLPC  H16S 6734   1.708   2.531   8.203 -0.2528 -1.3201 -1.6696
   75SLPC  C217 6735   1.772   2.517   8.412  0.0468 -1.3461 -0.5117
   75SLPC  H17R 6736   1.866   2.485   8.462 -0.2295  0.3469  1.1946
   75SLPC  H17S 6737   1.689   2.461   8.460 -0.0624 -0.6973  0.0584
   75SLPC  C218 6738   1.756   2.667   8.424  0.8699  0.7458 -0.5883
   75SLPC  H18R 6739   1.855   2.709   8.397  0.7074  0.4038 -1.7668
   75SLPC  H18S 6740   1.743   2.674   8.534  0.6647 -0.8358 -0.4929
   75SLPC  H18T 6741   1.669   2.702   8.364 -0.7249 -1.5558  0.2419
   75SLPC   C33 6742   2.371   3.119   7.204  0.0446 -0.5571  0.0936
   75SLPC   H3X 6743   2.370   3.038   7.127  1.8860 -0.6450  0.1169
   75SLPC   H3Y 6744   2.460   3.180   7.176 -1.1621  0.5940 -1.4062
   75SLPC   C34 6745   2.394   3.061   7.349 -0.1002 -0.0818 -0.4469
   75SLPC   H4X 6746   2.497   3.019   7.342 -0.9109 -1.9885 -1.9525
   75SLPC   H4Y 6747   2.327   2.976   7.376  1.1835 -1.2433 -0.7753
   75SLPC   C35 6748   2.394   3.161   7.460  0.2814  0.3004 -0.4076
   75SLPC   H5X 6749   2.288   3.178   7.489 -0.6240 -1.6087 -2.2939
   75SLPC   H5Y 6750   2.451   3.254   7.442  0.0660  0.7738  1.2413
   75SLPC   C36 6751   2.463   3.103   7.584 -0.1797  0.0207 -0.3418
   75SLPC   H6X 6752   2.572   3.095   7.567  0.0398 -2.1761  1.5918
   75SLPC   H6Y 6753   2.429   2.998   7.599  1.3845 -0.2179  2.1745
   75SLPC   C37 6754   2.442   3.182   7.711 -0.0868  0.2037  0.7918
   75SLPC   H7X 6755   2.333   3.201   7.722 -0.6399 -1.4356 -1.2479
   75SLPC   H7Y 6756   2.487   3.283   7.697  1.1347 -0.4047  0.1388
   75SLPC   C38 6757   2.508   3.118   7.841 -0.2571 -0.0468 -0.3338
   75SLPC   H8X 6758   2.617   3.110   7.825  0.1342 -0.5026  2.1022
   75SLPC   H8Y 6759   2.450   3.023   7.848 -0.3547  0.1377  3.6675
   75SLPC   C39 6760   2.475   3.192   7.969 -0.2419 -0.3972  0.2080
   75SLPC   H9X 6761   2.498   3.301   7.965 -0.9891 -0.1627  1.5780
   75SLPC   H9Y 6762   2.553   3.165   8.043  0.0984  0.2950  0.1167
   75SLPC  C310 6763   2.338   3.177   8.031  0.4013  0.0776 -0.2129
   75SLPC  H10X 6764   2.333   3.078   8.082  1.4138 -0.2473 -0.7146
   75SLPC  H10Y 6765   2.260   3.186   7.952 -1.8399 -1.7048  1.6537
   75SLPC  C311 6766   2.315   3.282   8.143 -0.3319 -0.0757 -0.5276
   75SLPC  H11X 6767   2.317   3.383   8.098  1.5812 -0.1302 -0.6723
   75SLPC  H11Y 6768   2.405   3.272   8.209 -0.8430  0.3267  0.2416
   75SLPC  C312 6769   2.182   3.279   8.220  0.0139 -0.2143  0.6607
   75SLPC  H12X 6770   2.169   3.188   8.284  0.9787  0.5347  1.9721
   75SLPC  H12Y 6771   2.097   3.272   8.149  1.5040  0.6357 -1.2786
   75SLPC  C313 6772   2.163   3.400   8.309 -0.1429 -0.2265 -0.3742
   75SLPC  H13X 6773   2.183   3.489   8.246  0.4126  0.2878  0.5156
   75SLPC  H13Y 6774   2.239   3.402   8.389  0.1101  1.3873 -0.6264
   75SLPC  C314 6775   2.015   3.434   8.342  0.2014 -0.0458  0.2799
   75SLPC  H14X 6776   1.969   3.344   8.388  2.2541 -1.8485 -1.0317
   75SLPC  H14Y 6777   1.957   3.440   8.247  0.6003  1.4719  0.0948
   75SLPC  C315 6778   2.005   3.557   8.432  0.7342  0.3688  0.2280
   75SLPC  H15X 6779   2.080   3.635   8.406 -0.1436  1.4298  0.7846
   75SLPC  H15Y 6780   2.030   3.524   8.535 -3.2172 -1.4943  0.7627
   75SLPC  C316 6781   1.867   3.625   8.433  0.0307  0.6128 -0.5454
   75SLPC  H16X 6782   1.812   3.575   8.515  1.1172  0.4076  0.0612
   75SLPC  H16Y 6783   1.809   3.609   8.339 -0.1731 -1.1512 -0.1418
   75SLPC  C317 6784   1.868   3.774   8.468  0.6179  0.3942  0.0484
   75SLPC  H17X 6785   1.763   3.806   8.451  0.6795 -0.0442 -1.2868
   75SLPC  H17Y 6786   1.939   3.830   8.403  2.4799 -0.1473  1.5322
   75SLPC  C318 6787   1.903   3.803   8.615  0.4169  0.6465  1.2389
   75SLPC  H18X 6788   1.838   3.733   8.674  2.3853 -3.0299 -0.6274
   75SLPC  H18Y 6789   1.892   3.912   8.636  1.7788  0.8398  0.9775
   75SLPC  H18Z 6790   2.011   3.785   8.634  0.2666 -1.7384  0.1891
   76SLPC     N 6791   3.457   1.761   6.271  0.0715  0.2946 -0.4878
   76SLPC   C13 6792   3.381   1.704   6.154  0.8115  0.2639 -0.2952
   76SLPC  H13A 6793   3.313   1.632   6.196 -0.1027  2.4195  2.2197
   76SLPC  H13B 6794   3.332   1.788   6.109 -1.3357 -0.6694  0.1863
   76SLPC  H13C 6795   3.455   1.653   6.094  1.5402 -0.5325  1.1895
   76SLPC   C14 6796   3.534   1.644   6.333 -1.1721 -0.1880 -0.0021
   76SLPC  H14A 6797   3.619   1.621   6.270  0.0937  0.7175  1.3207
   76SLPC  H14B 6798   3.583   1.668   6.426  0.0024 -1.5135 -0.2469
   76SLPC  H14C 6799   3.473   1.556   6.348  1.0507 -2.0146 -1.0266
   76SLPC   C15 6800   3.358   1.807   6.370  0.0269  0.5183 -0.1008
   76SLPC  H15A 6801   3.318   1.903   6.339 -2.7623 -0.2476  0.8338
   76SLPC  H15B 6802   3.273   1.742   6.383 -2.3912  3.6554  1.3772
   76SLPC  H15C 6803   3.401   1.829   6.467  1.2037 -2.4564  0.1419
   76SLPC   C12 6804   3.553   1.880   6.247 -0.5131 -0.0913  0.2996
   76SLPC  H12A 6805   3.618   1.894   6.332 -0.3957  0.3337  0.1444
   76SLPC  H12B 6806   3.500   1.973   6.232 -1.4708 -0.8716 -1.4613
   76SLPC   C11 6807   3.632   1.860   6.118  0.7270 -0.6896  0.5034
   76SLPC  H11A 6808   3.676   1.961   6.099 -2.1747  1.0412  2.1488
   76SLPC  H11B 6809   3.563   1.858   6.031  0.6655  1.7644  0.4250
   76SLPC     P 6810   3.866   1.753   6.194  0.4189  0.2178 -0.2895
   76SLPC   O13 6811   3.894   1.607   6.222  0.2925  0.4226 -0.6235
   76SLPC   O14 6812   3.969   1.834   6.120 -0.6409 -0.4134  0.0996
   76SLPC   O12 6813   3.722   1.754   6.122  0.2649  0.1230  0.2556
   76SLPC   O11 6814   3.828   1.817   6.333  0.0409  0.3428 -0.2275
   76SLPC    C1 6815   3.918   1.898   6.407 -0.1748 -0.4004  0.5310
   76SLPC    HA 6816   4.019   1.911   6.361 -1.1461  1.6172 -1.2222
   76SLPC    HB 6817   3.874   1.999   6.414  1.7889  0.6733 -1.3546
   76SLPC    C2 6818   3.947   1.842   6.541  0.0491 -0.5929  0.3738
   76SLPC    HS 6819   4.025   1.896   6.598 -1.3905  2.6197 -0.4820
   76SLPC   O21 6820   3.990   1.705   6.534  0.1876 -0.3776 -0.2896
   76SLPC   C21 6821   4.117   1.677   6.510 -0.0974 -0.3730 -0.5154
   76SLPC   O22 6822   4.200   1.763   6.486  0.1696 -0.0977 -0.3454
   76SLPC   C22 6823   4.132   1.527   6.497 -0.5686  0.0657 -0.1680
   76SLPC   H2R 6824   4.041   1.469   6.524 -0.3262 -1.0212 -1.5810
   76SLPC   H2S 6825   4.147   1.497   6.391  1.7561  0.2197  0.0735
   76SLPC    C3 6826   3.820   1.856   6.632 -0.0896  0.4440 -0.4608
   76SLPC    HX 6827   3.732   1.817   6.576 -1.0348 -0.1499  1.3656
   76SLPC    HY 6828   3.805   1.964   6.652  0.6680  0.4044  0.3582
   76SLPC   O31 6829   3.832   1.771   6.748  0.7137 -0.1836  0.2372
   76SLPC   C31 6830   3.893   1.832   6.856  0.2702  0.1534 -0.0981
   76SLPC   O32 6831   3.946   1.945   6.852 -0.4908  0.2038  0.3880
   76SLPC   C32 6832   3.865   1.739   6.986 -0.7897 -0.3891  0.2084
   76SLPC   H2X 6833   3.877   1.632   6.958  0.8705  0.4064 -2.5040
   76SLPC   H2Y 6834   3.760   1.751   7.018 -0.4978 -2.3154  2.0506
   76SLPC   C23 6835   4.256   1.478   6.578 -0.9818  0.0569 -0.0118
   76SLPC   H3R 6836   4.337   1.551   6.558  0.5066 -0.8582  2.3061
   76SLPC   H3S 6837   4.271   1.372   6.547 -2.7357 -0.0908 -0.5026
   76SLPC   C24 6838   4.232   1.499   6.729  0.7141 -0.6715  0.3627
   76SLPC   H4R 6839   4.139   1.445   6.757 -1.0451  0.6622 -2.4559
   76SLPC   H4S 6840   4.210   1.606   6.746  0.1776 -0.4154 -1.6551
   76SLPC   C25 6841   4.341   1.444   6.819  0.3124 -0.6926  0.0883
   76SLPC   H5R 6842   4.429   1.508   6.799 -0.4773  0.1174 -0.9515
   76SLPC   H5S 6843   4.367   1.341   6.786  0.3845 -0.1300 -1.7055
   76SLPC   C26 6844   4.309   1.445   6.974 -0.3931 -0.1100  0.1063
   76SLPC   H6R 6845   4.386   1.377   7.018 -1.7287 -2.2275 -0.7165
   76SLPC   H6S 6846   4.213   1.398   7.003  0.2967  0.2267  3.3380
   76SLPC   C27 6847   4.335   1.581   7.029 -0.4792 -0.3204  0.2089
   76SLPC   H7R 6848   4.266   1.640   6.965  0.5485  3.8825  2.5654
   76SLPC   H7S 6849   4.441   1.607   7.010 -0.6077  0.7988  0.9311
   76SLPC   C28 6850   4.307   1.587   7.180  0.4557 -0.3360  0.1551
   76SLPC   H8R 6851   4.201   1.560   7.197  0.3319  0.2659  0.3470
   76SLPC   H8S 6852   4.377   1.507   7.213 -0.9673 -2.7808 -2.3374
   76SLPC   C29 6853   4.334   1.716   7.238 -0.5177 -0.4851  0.8134
   76SLPC   H9R 6854   4.329   1.795   7.162  2.1555 -1.6306 -0.7050
   76SLPC  C210 6855   4.396   1.735   7.352  0.9667 -0.5830 -0.2400
   76SLPC  H10R 6856   4.407   1.838   7.390  0.0903 -0.8951  0.9052
   76SLPC  C211 6857   4.448   1.614   7.434  0.8830 -0.3235 -0.1057
   76SLPC  H11R 6858   4.477   1.533   7.364 -0.6760 -2.4885  1.6067
   76SLPC  H11S 6859   4.369   1.555   7.486  0.6858 -1.4493 -1.6287
   76SLPC  C212 6860   4.569   1.647   7.521  0.5802 -0.1223 -0.3956
   76SLPC  H12R 6861   4.659   1.688   7.473  0.1600 -0.0216 -1.1157
   76SLPC  C213 6862   4.577   1.601   7.648  0.1484  0.2128  0.0009
   76SLPC  H13R 6863   4.666   1.622   7.709  1.0395 -0.2387 -1.0979
   76SLPC  C214 6864   4.480   1.514   7.723 -0.0598 -0.3018 -0.9801
   76SLPC  H14R 6865   4.510   1.409   7.739  1.4688  0.1759 -0.6000
   76SLPC  H14S 6866   4.380   1.522   7.674 -1.1539  0.0369  1.1521
   76SLPC  C215 6867   4.459   1.574   7.865 -0.0616  0.5341  0.3344
   76SLPC  H15R 6868   4.367   1.531   7.912  0.5426 -1.0385  0.1235
   76SLPC  H15S 6869   4.445   1.684   7.864  0.1810  0.5814  1.1896
   76SLPC  C216 6870   4.570   1.546   7.978  0.7198 -0.0807  0.2256
   76SLPC  H16R 6871   4.645   1.624   7.953  0.1671  0.0791 -1.0014
   76SLPC  H16S 6872   4.617   1.447   7.960  2.7095  1.2577 -2.8612
   76SLPC  C217 6873   4.512   1.569   8.116 -0.7450 -0.6513 -1.1261
   76SLPC  H17R 6874   4.455   1.479   8.148 -2.5326 -0.2190 -2.9022
   76SLPC  H17S 6875   4.438   1.651   8.114  0.0186  0.2471  1.6786
   76SLPC  C218 6876   4.609   1.608   8.233  0.4651 -0.0992  0.2207
   76SLPC  H18R 6877   4.688   1.531   8.242  0.1138 -0.3966  0.7433
   76SLPC  H18S 6878   4.555   1.614   8.330 -1.1323  0.3742 -0.6600
   76SLPC  H18T 6879   4.655   1.706   8.205 -1.2158  0.4406 -0.8761
   76SLPC   C33 6880   3.965   1.763   7.102 -0.5669 -0.1907  0.5793
   76SLPC   H3X 6881   4.006   1.866   7.103  1.7841 -1.0442  0.6251
   76SLPC   H3Y 6882   4.050   1.691   7.104 -1.9654 -1.9380  0.0473
   76SLPC   C34 6883   3.895   1.740   7.241 -0.6383  0.0715 -0.5339
   76SLPC   H4X 6884   3.813   1.666   7.240 -0.6011 -0.1928  2.9135
   76SLPC   H4Y 6885   3.850   1.835   7.278  0.2976  0.0017  0.8815
   76SLPC   C35 6886   3.997   1.698   7.346  0.1991 -0.4183 -0.9914
   76SLPC   H5X 6887   4.079   1.773   7.348 -1.8965  2.0251 -0.5835
   76SLPC   H5Y 6888   4.032   1.596   7.323 -1.5978 -1.2677 -0.1228
   76SLPC   C36 6889   3.926   1.700   7.483 -0.6665  0.3941  0.2005
   76SLPC   H6X 6890   3.841   1.628   7.480 -1.6383  1.5353 -0.4500
   76SLPC   H6Y 6891   3.880   1.800   7.495 -1.6190  0.1698 -1.3182
   76SLPC   C37 6892   4.028   1.656   7.585 -0.7310  0.0826 -0.2962
   76SLPC   H7X 6893   4.121   1.717   7.575 -0.6539 -0.1706 -1.2817
   76SLPC   H7Y 6894   4.057   1.549   7.570  1.7374  0.8402 -1.5923
   76SLPC   C38 6895   3.972   1.660   7.721  0.0809 -0.2109 -0.1720
   76SLPC   H8X 6896   3.862   1.646   7.715 -0.1356  0.8294  1.0649
   76SLPC   H8Y 6897   3.991   1.753   7.777 -1.1318 -1.3160  2.2040
   76SLPC   C39 6898   4.020   1.529   7.801 -0.0953  0.7133 -0.2611
   76SLPC   H9X 6899   4.129   1.514   7.782 -0.1456  2.0121 -1.8475
   76SLPC   H9Y 6900   3.974   1.447   7.743  1.3758 -1.4913  1.5147
   76SLPC  C310 6901   3.978   1.529   7.947  0.4058  0.4897 -0.1906
   76SLPC  H10X 6902   3.960   1.423   7.975  2.7040  0.3860  1.1052
   76SLPC  H10Y 6903   3.883   1.585   7.962 -0.0803  0.1599 -1.8282
   76SLPC  C311 6904   4.093   1.566   8.047  0.2456 -0.0244  0.6542
   76SLPC  H11X 6905   4.133   1.665   8.017 -1.6488  0.0086 -2.2676
   76SLPC  H11Y 6906   4.167   1.488   8.019 -0.5721 -0.5665 -0.1011
   76SLPC  C312 6907   4.056   1.579   8.193 -0.5902 -0.5585  0.3538
   76SLPC  H12X 6908   3.999   1.493   8.234 -0.2486 -1.3320 -0.7439
   76SLPC  H12Y 6909   3.993   1.669   8.210 -0.3184 -0.5316  1.2500
   76SLPC  C313 6910   4.178   1.603   8.284 -0.2412  1.2427 -0.1739
   76SLPC  H13X 6911   4.261   1.647   8.225  0.5616 -1.7178 -1.4615
   76SLPC  H13Y 6912   4.202   1.499   8.315 -2.2167  1.0717  0.9313
   76SLPC  C314 6913   4.148   1.682   8.409  0.4066  0.2242  0.6990
   76SLPC  H14X 6914   4.069   1.636   8.472 -0.0694  1.4015  0.9833
   76SLPC  H14Y 6915   4.117   1.782   8.373 -2.3520 -0.7980 -0.0527
   76SLPC  C315 6916   4.287   1.702   8.476 -0.5140 -0.0259  0.0085
   76SLPC  H15X 6917   4.348   1.771   8.413 -1.4175  1.8652  1.1049
   76SLPC  H15Y 6918   4.349   1.610   8.484  0.6396  0.8398  1.6250
   76SLPC  C316 6919   4.281   1.776   8.611 -0.2097 -0.6979 -0.3165
   76SLPC  H16X 6920   4.202   1.852   8.591  1.3820  0.7977 -1.2674
   76SLPC  H16Y 6921   4.357   1.850   8.644 -0.4764 -0.4155 -0.3221
   76SLPC  C317 6922   4.258   1.678   8.725  0.3385  0.3124  0.1150
   76SLPC  H17X 6923   4.347   1.612   8.723  0.2848  0.2294 -2.3628
   76SLPC  H17Y 6924   4.171   1.612   8.702  1.1047 -1.2151  1.3794
   76SLPC  C318 6925   4.228   1.731   8.869  0.6141 -0.4666  0.1405
   76SLPC  H18X 6926   4.319   1.779   8.911  2.3264  1.0574 -4.6839
   76SLPC  H18Y 6927   4.181   1.645   8.921  0.7037  0.1241  1.2278
   76SLPC  H18Z 6928   4.154   1.813   8.853  1.9090  0.1516 -3.6223
   77SLPC     N 6929   6.226   1.741   6.447  0.8040 -0.1804 -0.2230
   77SLPC   C13 6930   6.372   1.781   6.452 -0.5379  0.0046 -0.5476
   77SLPC  H13A 6931   6.387   1.884   6.484  0.3002 -0.0760 -0.6609
   77SLPC  H13B 6932   6.434   1.727   6.522  0.8061  3.1798  0.9468
   77SLPC  H13C 6933   6.427   1.766   6.360 -1.5229 -2.4500 -0.7881
   77SLPC   C14 6934   6.208   1.594   6.437  0.1103  0.4434  0.2382
   77SLPC  H14A 6935   6.249   1.566   6.341  2.1939  0.1260  1.1739
   77SLPC  H14B 6936   6.259   1.545   6.519 -1.9228 -0.4962  1.0302
   77SLPC  H14C 6937   6.105   1.562   6.448  0.3894 -0.3961  0.4989
   77SLPC   C15 6938   6.172   1.811   6.324  0.2281  0.6287 -0.2835
   77SLPC  H15A 6939   6.071   1.776   6.311  0.9826 -2.5085  1.2241
   77SLPC  H15B 6940   6.170   1.918   6.338 -1.3234  0.5557  0.2594
   77SLPC  H15C 6941   6.225   1.778   6.236  0.1974 -2.0845  0.6307
   77SLPC   C12 6942   6.160   1.790   6.578 -0.6654  1.1833  0.2587
   77SLPC  H12A 6943   6.131   1.894   6.568 -1.4455  0.9285 -0.1977
   77SLPC  H12B 6944   6.238   1.793   6.653 -0.1017  3.0870 -0.3519
   77SLPC   C11 6945   6.042   1.719   6.628 -0.0055  0.3779  0.2004
   77SLPC  H11A 6946   6.020   1.764   6.727  4.2022  1.5002  0.8356
   77SLPC  H11B 6947   6.066   1.611   6.639  1.7722  0.7734  0.4826
   77SLPC     P 6948   5.822   1.609   6.533 -0.1222 -0.0813  0.2719
   77SLPC   O13 6949   5.691   1.673   6.501 -0.2416 -0.4607 -0.0565
   77SLPC   O14 6950   5.872   1.510   6.434 -0.0223 -0.2321  0.3471
   77SLPC   O12 6951   5.931   1.727   6.544 -0.3032 -0.0746  0.4005
   77SLPC   O11 6952   5.819   1.543   6.673  0.3832 -0.4262  0.4203
   77SLPC    C1 6953   5.800   1.403   6.692 -0.8373  0.1819 -0.2598
   77SLPC    HA 6954   5.691   1.386   6.707 -0.2389 -1.2462  3.2650
   77SLPC    HB 6955   5.842   1.341   6.610  0.4064  0.8868 -0.1927
   77SLPC    C2 6956   5.853   1.356   6.831 -0.3565  0.3856 -0.0782
   77SLPC    HS 6957   5.776   1.280   6.859 -0.4802  0.5349 -0.0122
   77SLPC   O21 6958   5.860   1.456   6.927  0.6627 -0.1676  0.0722
   77SLPC   C21 6959   5.735   1.486   6.986  0.0007  0.0258 -0.5812
   77SLPC   O22 6960   5.633   1.422   6.972  0.1005  0.0714  0.5728
   77SLPC   C22 6961   5.751   1.579   7.099  0.4087  0.0702  0.1972
   77SLPC   H2R 6962   5.855   1.583   7.137  0.6310  0.2773 -0.4256
   77SLPC   H2S 6963   5.725   1.681   7.063 -2.1002  0.4970  2.7764
   77SLPC    C3 6964   5.995   1.292   6.817 -0.7836 -0.4668 -0.3915
   77SLPC    HX 6965   6.070   1.368   6.786 -0.6231 -0.7416 -0.6781
   77SLPC    HY 6966   5.989   1.214   6.738  1.9088  1.0879 -2.2881
   77SLPC   O31 6967   6.029   1.223   6.940  0.2716 -0.2298 -0.3845
   77SLPC   C31 6968   6.103   1.287   7.027  0.1708  0.3852 -0.1331
   77SLPC   O32 6969   6.164   1.392   7.003 -0.4095 -0.6190 -0.0380
   77SLPC   C32 6970   6.087   1.211   7.161 -0.6623  0.5386 -0.2691
   77SLPC   H2X 6971   6.131   1.110   7.142  1.7448  0.9275  2.5088
   77SLPC   H2Y 6972   5.977   1.208   7.171 -0.7376 -1.5724 -1.1474
   77SLPC   C23 6973   5.650   1.555   7.212 -0.2916 -0.9211  0.0164
   77SLPC   H3R 6974   5.659   1.450   7.245  0.0375 -0.6821  0.7191
   77SLPC   H3S 6975   5.549   1.578   7.175 -0.6218 -2.9766 -0.4647
   77SLPC   C24 6976   5.691   1.644   7.330 -0.6899  0.0048 -0.3161
   77SLPC   H4R 6977   5.706   1.747   7.292 -0.9916 -0.4748 -1.7835
   77SLPC   H4S 6978   5.784   1.601   7.372 -0.9242  0.4213  0.6566
   77SLPC   C25 6979   5.616   1.622   7.454  0.5460  0.4481 -0.1112
   77SLPC   H5R 6980   5.624   1.517   7.490  2.2060  1.0132  1.3045
   77SLPC   H5S 6981   5.507   1.640   7.440  0.7259  0.2312 -1.9730
   77SLPC   C26 6982   5.682   1.702   7.566  0.6006  0.2661 -0.0148
   77SLPC   H6R 6983   5.718   1.802   7.535  0.7223  0.2038 -0.0726
   77SLPC   H6S 6984   5.775   1.647   7.590  0.4416 -0.1518 -0.3407
   77SLPC   C27 6985   5.590   1.702   7.695  0.4533 -0.2883 -0.4625
   77SLPC   H7R 6986   5.535   1.606   7.686 -1.4757  0.8532 -1.4836
   77SLPC   H7S 6987   5.502   1.765   7.670  0.9470  0.9957  0.8432
   77SLPC   C28 6988   5.662   1.739   7.823 -0.4029 -0.5775 -0.3102
   77SLPC   H8R 6989   5.592   1.772   7.901 -1.0811  0.1579 -1.2074
   77SLPC   H8S 6990   5.738   1.817   7.798 -0.1503 -0.1763  1.6031
   77SLPC   C29 6991   5.734   1.616   7.882 -0.5000  0.3063 -0.0036
   77SLPC   H9R 6992   5.735   1.523   7.822  1.2583  0.4606 -0.2611
   77SLPC  C210 6993   5.785   1.620   8.002  0.4189  0.4138 -1.0564
   77SLPC  H10R 6994   5.841   1.533   8.041 -1.2785 -0.8260 -1.2479
   77SLPC  C211 6995   5.771   1.723   8.106 -0.4568 -0.4177 -0.5788
   77SLPC  H11R 6996   5.734   1.822   8.073  1.5816  0.9462  0.9327
   77SLPC  H11S 6997   5.871   1.746   8.150 -0.3362 -1.3432 -0.3515
   77SLPC  C212 6998   5.679   1.683   8.212 -0.6719  1.0780  0.3692
   77SLPC  H12R 6999   5.615   1.596   8.188 -0.2697  1.0436 -0.6106
   77SLPC  C213 7000   5.651   1.749   8.323  0.0717  0.3673 -1.1437
   77SLPC  H13R 7001   5.570   1.711   8.386  0.0858 -0.9118 -1.8559
   77SLPC  C214 7002   5.723   1.881   8.365  0.4842 -0.5451  0.2935
   77SLPC  H14R 7003   5.648   1.956   8.399  0.0949 -2.1224  3.2536
   77SLPC  H14S 7004   5.771   1.944   8.287 -0.3555 -0.0864  0.1403
   77SLPC  C215 7005   5.818   1.868   8.489  0.0502 -0.0774  0.1617
   77SLPC  H15R 7006   5.902   1.801   8.460  0.0707  0.1920 -0.4228
   77SLPC  H15S 7007   5.767   1.824   8.577 -1.3197  1.8896  0.4157
   77SLPC  C216 7008   5.897   1.991   8.538 -0.0433  0.4192  0.2605
   77SLPC  H16R 7009   5.947   1.953   8.630 -2.0027 -2.2389  0.3306
   77SLPC  H16S 7010   5.824   2.071   8.566 -0.8809 -0.4002  0.4853
   77SLPC  C217 7011   5.987   2.056   8.432 -0.3407  0.3719  0.4814
   77SLPC  H17R 7012   5.937   2.079   8.336  1.4751 -1.7382 -1.0757
   77SLPC  H17S 7013   6.072   1.987   8.413  1.3571  2.6136 -0.4485
   77SLPC  C218 7014   6.050   2.184   8.480 -0.3898 -0.4354 -0.6706
   77SLPC  H18R 7015   5.976   2.265   8.499 -2.3500 -2.4054  0.5670
   77SLPC  H18S 7016   6.131   2.220   8.413 -0.2605  1.2575  0.3410
   77SLPC  H18T 7017   6.096   2.157   8.578  0.1253 -1.1950 -1.1130
   77SLPC   C33 7018   6.152   1.284   7.283 -0.2018 -0.5592  0.0098
   77SLPC   H3X 7019   6.252   1.311   7.244 -0.2086 -1.3349 -0.5826
   77SLPC   H3Y 7020   6.162   1.214   7.369  0.3988  1.0021  1.2602
   77SLPC   C34 7021   6.065   1.404   7.325 -1.1159 -0.6703 -0.7495
   77SLPC   H4X 7022   5.956   1.388   7.322 -1.1106 -0.5995 -2.5256
   77SLPC   H4Y 7023   6.073   1.497   7.265 -1.3960  0.2976  0.6558
   77SLPC   C35 7024   6.119   1.466   7.460 -0.2504  0.2112  0.8868
   77SLPC   H5X 7025   6.230   1.467   7.458 -0.1210 -1.3109  3.3947
   77SLPC   H5Y 7026   6.083   1.399   7.540 -2.5631  0.1022 -0.1551
   77SLPC   C36 7027   6.087   1.616   7.489 -0.1059 -0.6602  0.1151
   77SLPC   H6X 7028   5.977   1.630   7.492 -0.7161 -4.2534 -1.2277
   77SLPC   H6Y 7029   6.138   1.675   7.409  1.8130  0.9882  2.3957
   77SLPC   C37 7030   6.149   1.649   7.627 -0.3725  1.0591  0.5229
   77SLPC   H7X 7031   6.247   1.602   7.650 -0.5635  0.2914 -0.2032
   77SLPC   H7Y 7032   6.087   1.590   7.698 -0.2252  0.2407 -0.0144
   77SLPC   C38 7033   6.155   1.796   7.667  0.5215  0.1652 -0.1905
   77SLPC   H8X 7034   6.205   1.850   7.585 -0.1181  1.8720  0.4964
   77SLPC   H8Y 7035   6.218   1.809   7.758  1.5930  1.4859 -1.0933
   77SLPC   C39 7036   6.024   1.875   7.685 -0.1561  0.5838  0.1859
   77SLPC   H9X 7037   5.980   1.864   7.786 -2.1818  3.6031 -0.2107
   77SLPC   H9Y 7038   5.946   1.845   7.611 -1.8997 -1.7946  2.7960
   77SLPC  C310 7039   6.057   2.024   7.671 -0.2956 -0.0021  0.3615
   77SLPC  H10X 7040   6.102   2.040   7.571 -0.9387  1.9867  0.3393
   77SLPC  H10Y 7041   6.124   2.066   7.749  0.8976 -1.2825  0.0751
   77SLPC  C311 7042   5.930   2.101   7.670  0.0880  0.1117  0.7293
   77SLPC  H11X 7043   5.851   2.059   7.604  1.5633 -0.6418 -0.6263
   77SLPC  H11Y 7044   5.966   2.195   7.623  0.7676  0.2436  1.4949
   77SLPC  C312 7045   5.874   2.134   7.804 -0.6365  0.0896 -0.7512
   77SLPC  H12X 7046   5.961   2.145   7.872 -1.5443 -0.0182  0.4703
   77SLPC  H12Y 7047   5.828   2.037   7.837  0.2976 -0.3891 -0.8319
   77SLPC  C313 7048   5.791   2.263   7.795 -0.3859 -0.1300  0.2137
   77SLPC  H13X 7049   5.708   2.242   7.724 -0.6604 -1.1880  0.8231
   77SLPC  H13Y 7050   5.864   2.336   7.755  1.5122 -0.7746  2.3065
   77SLPC  C314 7051   5.738   2.316   7.926  0.6567 -0.5210  0.4524
   77SLPC  H14X 7052   5.766   2.249   8.010  1.3417 -0.2848  0.4172
   77SLPC  H14Y 7053   5.628   2.322   7.936  0.6034 -0.7810  0.0463
   77SLPC  C315 7054   5.795   2.451   7.952 -0.0240  0.0398 -0.1592
   77SLPC  H15X 7055   5.736   2.525   7.894 -1.0082  1.0303  2.0213
   77SLPC  H15Y 7056   5.903   2.451   7.928 -0.0033 -1.4735 -0.1712
   77SLPC  C316 7057   5.780   2.484   8.106  0.3004  0.1852  0.8056
   77SLPC  H16X 7058   5.818   2.398   8.166 -0.4145 -1.4654 -1.0065
   77SLPC  H16Y 7059   5.672   2.498   8.125 -0.2768 -0.9838 -1.3247
   77SLPC  C317 7060   5.854   2.608   8.138  0.3831  0.0148 -0.3711
   77SLPC  H17X 7061   5.807   2.689   8.078  0.3466  1.7423  1.8418
   77SLPC  H17Y 7062   5.962   2.600   8.112  0.4227  0.9060 -0.5035
   77SLPC  C318 7063   5.833   2.640   8.293  0.4570  0.8700  0.4186
   77SLPC  H18X 7064   5.861   2.554   8.357 -1.3560 -0.7651 -0.8797
   77SLPC  H18Y 7065   5.726   2.663   8.312  0.2430  1.1300 -0.9865
   77SLPC  H18Z 7066   5.897   2.729   8.311  1.1100 -0.0209  3.0142
   78SLPC     N 7067   3.333   0.892   6.213 -0.0029 -0.8183  0.2809
   78SLPC   C13 7068   3.364   1.042   6.176  0.4840 -0.1239 -0.4957
   78SLPC  H13A 7069   3.457   1.053   6.123 -0.2147  1.3877 -1.4996
   78SLPC  H13B 7070   3.284   1.084   6.116  0.3208  1.4384  0.7398
   78SLPC  H13C 7071   3.373   1.091   6.272 -1.7344 -2.1102  0.8330
   78SLPC   C14 7072   3.452   0.839   6.289  0.2255  0.1072 -0.0138
   78SLPC  H14A 7073   3.456   0.877   6.390  4.1774 -0.4501  0.1987
   78SLPC  H14B 7074   3.461   0.731   6.288  3.1054  0.2644 -1.2107
   78SLPC  H14C 7075   3.543   0.870   6.240 -0.1499 -1.0923 -1.5447
   78SLPC   C15 7076   3.313   0.815   6.089  0.1892  0.2687 -0.4120
   78SLPC  H15A 7077   3.237   0.857   6.025  0.4413 -1.2360 -1.7842
   78SLPC  H15B 7078   3.409   0.816   6.040  0.7630  0.2283  0.6671
   78SLPC  H15C 7079   3.280   0.715   6.117  0.8120  0.1859  0.0563
   78SLPC   C12 7080   3.211   0.883   6.308 -0.4603  0.7561  0.0776
   78SLPC  H12A 7081   3.212   0.784   6.352 -1.9376  0.5710 -0.2567
   78SLPC  H12B 7082   3.119   0.894   6.252 -1.3696  0.2807  1.4209
   78SLPC   C11 7083   3.213   0.987   6.423 -0.2578  0.3892 -0.0631
   78SLPC  H11A 7084   3.314   0.984   6.471 -0.1358  2.5168 -0.1016
   78SLPC  H11B 7085   3.146   0.957   6.506  0.7295 -0.0530  0.6042
   78SLPC     P 7086   3.048   1.170   6.356 -0.3083  0.0339  0.2550
   78SLPC   O13 7087   3.046   1.323   6.353 -0.2775 -0.0223 -0.5616
   78SLPC   O14 7088   2.991   1.092   6.246 -0.3736 -0.5005  0.7605
   78SLPC   O12 7089   3.194   1.124   6.383  0.1201  0.0115 -0.0359
   78SLPC   O11 7090   2.955   1.123   6.472 -0.1769  0.2843  0.1737
   78SLPC    C1 7091   2.899   1.215   6.565 -0.5615 -0.0901  0.2369
   78SLPC    HA 7092   2.958   1.305   6.593 -1.2825  0.4712 -0.0197
   78SLPC    HB 7093   2.799   1.247   6.529 -0.6104  0.8009  1.1395
   78SLPC    C2 7094   2.868   1.129   6.693 -0.0034 -0.2318  0.0533
   78SLPC    HS 7095   2.844   1.199   6.776  0.1009  0.8177 -0.7805
   78SLPC   O21 7096   2.987   1.066   6.747 -0.5801  0.0644  0.1231
   78SLPC   C21 7097   3.084   1.146   6.794 -0.2898 -0.0176  0.2207
   78SLPC   O22 7098   3.080   1.264   6.809 -0.0955  0.3579 -0.4480
   78SLPC   C22 7099   3.211   1.066   6.819 -0.0444  0.3821 -0.1412
   78SLPC   H2R 7100   3.188   0.958   6.835  0.3700 -0.1965 -2.9467
   78SLPC   H2S 7101   3.263   1.064   6.721  0.8150 -0.9271  0.3131
   78SLPC    C3 7102   2.751   1.030   6.676  0.2975 -0.4469 -0.3035
   78SLPC    HX 7103   2.800   0.939   6.634  1.4171 -0.9355  1.9047
   78SLPC    HY 7104   2.683   1.052   6.591 -0.1056 -1.5474 -0.2790
   78SLPC   O31 7105   2.686   0.991   6.800 -0.1349 -0.1476  0.1818
   78SLPC   C31 7106   2.576   1.051   6.821 -0.0189  0.2942  0.3614
   78SLPC   O32 7107   2.517   1.121   6.740 -0.6835 -0.2182 -0.0712
   78SLPC   C32 7108   2.521   1.024   6.958 -0.1641 -1.0719 -0.4245
   78SLPC   H2X 7109   2.584   0.954   7.017 -0.2169 -0.5366  0.2776
   78SLPC   H2Y 7110   2.425   0.976   6.929 -0.7925 -0.0882 -0.0285
   78SLPC   C23 7111   3.309   1.115   6.926  0.1854  0.0223 -1.1974
   78SLPC   H3R 7112   3.316   1.225   6.916  0.9481  0.0968  0.0569
   78SLPC   H3S 7113   3.406   1.063   6.918  0.8719  0.8043  1.1950
   78SLPC   C24 7114   3.266   1.064   7.070 -0.5955 -0.0150  0.4068
   78SLPC   H4R 7115   3.254   0.954   7.059  4.3399 -0.6028 -1.1979
   78SLPC   H4S 7116   3.165   1.108   7.084  0.6250  2.1487  3.7830
   78SLPC   C25 7117   3.361   1.105   7.180 -0.4677  0.3017 -0.5025
   78SLPC   H5R 7118   3.378   1.215   7.179  0.2010  0.2063 -0.3362
   78SLPC   H5S 7119   3.464   1.065   7.170 -1.4342 -2.6753  0.3112
   78SLPC   C26 7120   3.309   1.067   7.317 -0.2903 -0.1421  0.4881
   78SLPC   H6R 7121   3.341   0.964   7.343 -0.1123 -0.1964  0.0502
   78SLPC   H6S 7122   3.198   1.062   7.320 -0.3392  1.1619  1.6172
   78SLPC   C27 7123   3.338   1.158   7.434 -0.3257  1.3574  0.1026
   78SLPC   H7R 7124   3.250   1.226   7.436 -1.1755  0.3038  3.0788
   78SLPC   H7S 7125   3.435   1.209   7.411  1.4194 -1.6359  0.3319
   78SLPC   C28 7126   3.352   1.088   7.568 -0.2691  0.5619  0.5003
   78SLPC   H8R 7127   3.440   1.020   7.569 -0.5182  0.1339 -1.6319
   78SLPC   H8S 7128   3.267   1.019   7.584  0.2563  0.6480  4.6698
   78SLPC   C29 7129   3.356   1.196   7.674 -0.6226  0.8069  0.0414
   78SLPC   H9R 7130   3.264   1.254   7.684  0.3873  2.6543 -0.9036
   78SLPC  C210 7131   3.468   1.231   7.740 -0.3979 -0.4882 -0.2854
   78SLPC  H10R 7132   3.464   1.313   7.813  1.3203  0.7859 -1.5472
   78SLPC  C211 7133   3.608   1.175   7.731  0.6628  0.6370  0.0501
   78SLPC  H11R 7134   3.689   1.249   7.720  0.1152  1.0002 -1.9275
   78SLPC  H11S 7135   3.619   1.118   7.636  1.3975 -1.4051  1.3002
   78SLPC  C212 7136   3.632   1.069   7.838  0.3012  0.0103  0.7162
   78SLPC  H12R 7137   3.616   0.964   7.809  1.5602 -0.2477  0.9274
   78SLPC  C213 7138   3.676   1.103   7.959 -0.2464 -0.3166  0.4036
   78SLPC  H13R 7139   3.675   1.032   8.044  0.0507  1.1127  1.6515
   78SLPC  C214 7140   3.713   1.242   8.003  0.5765  0.1726  0.1870
   78SLPC  H14R 7141   3.739   1.320   7.928  1.7133 -0.3775 -0.0287
   78SLPC  H14S 7142   3.805   1.232   8.064  0.1654  1.9420  1.1547
   78SLPC  C215 7143   3.606   1.326   8.086 -0.1582 -0.2023 -0.2154
   78SLPC  H15R 7144   3.517   1.350   8.023 -0.0096  3.2847  0.7012
   78SLPC  H15S 7145   3.647   1.426   8.112  0.0592  0.2008 -1.9685
   78SLPC  C216 7146   3.546   1.258   8.214  0.0403  0.2413  0.2926
   78SLPC  H16R 7147   3.618   1.194   8.268  0.4929  0.4848 -0.0144
   78SLPC  H16S 7148   3.458   1.198   8.183  0.2603  0.5660 -1.0128
   78SLPC  C217 7149   3.506   1.352   8.322  0.5609 -0.6618  0.1062
   78SLPC  H17R 7150   3.428   1.422   8.285  1.5560  0.0338 -0.7504
   78SLPC  H17S 7151   3.589   1.415   8.359  0.8672 -1.1853  0.3239
   78SLPC  C218 7152   3.441   1.276   8.439  0.4111 -0.1064 -0.5164
   78SLPC  H18R 7153   3.399   1.340   8.520  0.6808 -2.1322  1.3015
   78SLPC  H18S 7154   3.516   1.217   8.496  1.8983  0.1982 -2.0691
   78SLPC  H18T 7155   3.374   1.198   8.398 -0.2789  0.4447 -0.4712
   78SLPC   C33 7156   2.497   1.154   7.036  0.6747 -0.0430  0.5507
   78SLPC   H3X 7157   2.440   1.216   6.963 -1.8393 -1.0990  1.4872
   78SLPC   H3Y 7158   2.592   1.210   7.047  1.1169 -0.6973  0.0973
   78SLPC   C34 7159   2.424   1.142   7.168  0.1763  0.0153  0.4480
   78SLPC   H4X 7160   2.494   1.141   7.254  0.2310 -1.2863  0.4049
   78SLPC   H4Y 7161   2.357   1.054   7.180 -0.5003  0.6438  1.4821
   78SLPC   C35 7162   2.331   1.263   7.188 -0.4239  0.1442 -0.1386
   78SLPC   H5X 7163   2.247   1.253   7.116  1.0143 -0.8903 -1.7626
   78SLPC   H5Y 7164   2.380   1.359   7.161  1.1224 -0.3441  0.8188
   78SLPC   C36 7165   2.271   1.289   7.330 -0.4038 -0.8990 -0.3980
   78SLPC   H6X 7166   2.196   1.210   7.352 -1.7137  0.5848  0.7742
   78SLPC   H6Y 7167   2.211   1.382   7.322  0.5167 -0.4519 -2.7320
   78SLPC   C37 7168   2.377   1.299   7.445  0.3776  0.1717 -0.1694
   78SLPC   H7X 7169   2.465   1.359   7.416  0.2719  0.3533 -0.1167
   78SLPC   H7Y 7170   2.417   1.197   7.462 -1.1299 -0.1573  1.8055
   78SLPC   C38 7171   2.331   1.339   7.584 -0.2738 -0.2517 -0.6350
   78SLPC   H8X 7172   2.235   1.292   7.613  0.6826 -1.1043  1.2756
   78SLPC   H8Y 7173   2.304   1.447   7.580 -0.5902 -0.3646 -2.0038
   78SLPC   C39 7174   2.440   1.320   7.699 -0.3938 -0.2780  0.1857
   78SLPC   H9X 7175   2.524   1.391   7.680 -1.9949  1.2640 -1.5384
   78SLPC   H9Y 7176   2.490   1.221   7.708  0.6998  0.2115 -0.2542
   78SLPC  C310 7177   2.400   1.377   7.836  0.1682 -0.7492 -0.5910
   78SLPC  H10X 7178   2.315   1.445   7.818  0.1861 -0.8983 -1.2406
   78SLPC  H10Y 7179   2.487   1.427   7.883 -2.1130  2.2566  0.7199
   78SLPC  C311 7180   2.348   1.270   7.940 -0.2610  0.1637 -0.8242
   78SLPC  H11X 7181   2.413   1.187   7.974 -0.9215 -0.1804 -0.3740
   78SLPC  H11Y 7182   2.269   1.209   7.892  0.7449  1.3114 -4.1978
   78SLPC  C312 7183   2.291   1.342   8.070 -0.2644  0.6798 -0.3309
   78SLPC  H12X 7184   2.207   1.280   8.108  1.0332 -1.7980 -1.3023
   78SLPC  H12Y 7185   2.243   1.441   8.054 -2.4825 -0.0020  1.4740
   78SLPC  C313 7186   2.384   1.348   8.187 -0.2110 -0.0251 -0.1214
   78SLPC  H13X 7187   2.468   1.413   8.155  1.9973 -1.4752  2.3121
   78SLPC  H13Y 7188   2.436   1.254   8.215  0.6428  0.8483  1.3475
   78SLPC  C314 7189   2.324   1.420   8.313 -0.2213 -0.0248 -0.0501
   78SLPC  H14X 7190   2.292   1.520   8.277 -0.7038 -0.4082 -0.7200
   78SLPC  H14Y 7191   2.397   1.453   8.390 -3.7273  1.4447  2.9461
   78SLPC  C315 7192   2.207   1.338   8.370  0.0124  0.1224  0.0223
   78SLPC  H15X 7193   2.244   1.233   8.373  1.9704  0.6641 -1.9662
   78SLPC  H15Y 7194   2.122   1.323   8.301  1.0430 -0.3249 -1.1908
   78SLPC  C316 7195   2.158   1.388   8.510  1.0294 -0.3785 -0.7164
   78SLPC  H16X 7196   2.150   1.497   8.490 -2.9997 -0.2993  0.3748
   78SLPC  H16Y 7197   2.241   1.379   8.584 -0.4790 -2.1091  0.8672
   78SLPC  C317 7198   2.027   1.331   8.563 -0.4622  1.1527 -0.4290
   78SLPC  H17X 7199   2.017   1.363   8.669 -0.8302  0.1953 -0.1571
   78SLPC  H17Y 7200   2.035   1.220   8.572 -3.1298  0.9694  0.5848
   78SLPC  C318 7201   1.902   1.371   8.483  0.0035  0.3316 -0.3039
   78SLPC  H18X 7202   1.928   1.388   8.376 -0.8701 -1.0054 -0.7545
   78SLPC  H18Y 7203   1.860   1.468   8.516  1.5880  0.7632  0.5375
   78SLPC  H18Z 7204   1.831   1.286   8.482  1.3933 -0.8684 -0.0134
   79SLPC     N 7205   0.166   3.971   6.214 -0.3014 -0.7087 -0.3618
   79SLPC   C13 7206   0.156   3.886   6.339  0.9219 -0.4038 -0.0510
   79SLPC  H13A 7207   0.248   3.881   6.394  1.0693  1.3679 -0.0586
   79SLPC  H13B 7208   0.077   3.935   6.393 -1.3072 -1.1749 -2.3814
   79SLPC  H13C 7209   0.123   3.784   6.324 -0.4303  0.0388 -0.2200
   79SLPC   C14 7210   0.031   3.985   6.149 -0.0456  0.0002  0.4609
   79SLPC  H14A 7211  -0.036   4.041   6.212  0.6484  0.4092  0.8539
   79SLPC  H14B 7212   0.049   4.023   6.050  0.8251  0.0248  0.6153
   79SLPC  H14C 7213  -0.005   3.885   6.129  2.6336 -0.7071 -1.2800
   79SLPC   C15 7214   0.271   3.906   6.132  0.2103 -0.7072  0.6007
   79SLPC  H15A 7215   0.248   3.804   6.106 -0.0270 -0.3513 -0.6567
   79SLPC  H15B 7216   0.285   3.955   6.037 -1.0357 -0.6849  0.4051
   79SLPC  H15C 7217   0.365   3.911   6.185  0.8193 -0.8154 -0.4430
   79SLPC   C12 7218   0.218   4.109   6.252  0.2216  0.5540  0.8474
   79SLPC  H12A 7219   0.192   4.179   6.174  1.9309  2.6377  2.0382
   79SLPC  H12B 7220   0.325   4.108   6.266  0.3263  1.9273  0.3822
   79SLPC   C11 7221   0.152   4.166   6.383 -0.4306 -0.0886 -0.2397
   79SLPC  H11A 7222   0.185   4.271   6.371  2.2351 -0.9803 -1.8062
   79SLPC  H11B 7223   0.223   4.119   6.455  0.3278  1.4190  0.0441
   79SLPC     P 7224  -0.071   4.278   6.407  0.2792 -0.3187  0.4560
   79SLPC   O13 7225  -0.030   4.355   6.286 -0.7499  0.0004  0.7050
   79SLPC   O14 7226  -0.211   4.235   6.404  0.0634 -0.2641 -0.4085
   79SLPC   O12 7227   0.015   4.143   6.409  0.3052  0.0351 -0.4417
   79SLPC   O11 7228  -0.029   4.353   6.541  0.1808 -0.3404 -0.0491
   79SLPC    C1 7229  -0.087   4.322   6.667 -0.6692 -0.0420  0.2182
   79SLPC    HA 7230  -0.109   4.214   6.683  0.5419 -0.5494 -1.2678
   79SLPC    HB 7231  -0.014   4.333   6.750 -0.5779 -0.9789  0.2786
   79SLPC    C2 7232  -0.208   4.412   6.696 -0.2230  0.3835  0.2197
   79SLPC    HS 7233  -0.268   4.415   6.603  2.1199 -1.3060 -1.4732
   79SLPC   O21 7234  -0.171   4.541   6.743 -0.0866 -0.0028 -0.7311
   79SLPC   C21 7235  -0.264   4.615   6.790 -0.5640  0.0436  0.9531
   79SLPC   O22 7236  -0.381   4.601   6.772  0.1055  0.5701  0.4425
   79SLPC   C22 7237  -0.199   4.735   6.868  0.0655 -0.2225  0.2479
   79SLPC   H2R 7238  -0.089   4.740   6.880 -0.1563  2.4873  2.0934
   79SLPC   H2S 7239  -0.219   4.829   6.811  1.1805  0.4257  0.9098
   79SLPC    C3 7240  -0.286   4.330   6.809 -0.6739 -0.2599  0.1462
   79SLPC    HX 7241  -0.326   4.238   6.761 -2.0983  0.9835 -1.1604
   79SLPC    HY 7242  -0.378   4.380   6.846 -2.4949 -1.0403 -2.9304
   79SLPC   O31 7243  -0.203   4.293   6.920  0.7154 -0.5634  0.1769
   79SLPC   C31 7244  -0.275   4.239   7.019  0.8296 -0.7726 -0.2352
   79SLPC   O32 7245  -0.399   4.223   7.022  0.2265 -0.2050 -0.3422
   79SLPC   C32 7246  -0.189   4.198   7.140 -0.4163 -0.4917 -0.1542
   79SLPC   H2X 7247  -0.110   4.275   7.146 -0.1107 -0.8579  0.6043
   79SLPC   H2Y 7248  -0.139   4.104   7.110  3.7593  1.0036  1.4539
   79SLPC   C23 7249  -0.259   4.761   7.012  0.5531 -0.3518  0.0188
   79SLPC   H3R 7250  -0.369   4.760   6.999  0.4894 -0.5902  0.5362
   79SLPC   H3S 7251  -0.235   4.867   7.034 -0.6462  0.0666 -0.5679
   79SLPC   C24 7252  -0.214   4.651   7.109 -0.0475 -0.0222  0.2241
   79SLPC   H4R 7253  -0.104   4.638   7.110  0.3058  2.2704 -0.9491
   79SLPC   H4S 7254  -0.258   4.553   7.079  0.8580 -0.2298 -0.4494
   79SLPC   C25 7255  -0.275   4.687   7.246  0.2725  0.6607  0.6050
   79SLPC   H5R 7256  -0.382   4.707   7.224 -0.9033 -1.9367  3.2697
   79SLPC   H5S 7257  -0.230   4.782   7.281  1.2334  0.5197 -0.2164
   79SLPC   C26 7258  -0.259   4.573   7.339 -0.3098  0.7810  0.4141
   79SLPC   H6R 7259  -0.152   4.549   7.355 -0.3039 -0.3331 -1.0470
   79SLPC   H6S 7260  -0.305   4.484   7.290  1.4368  0.8607 -1.5159
   79SLPC   C27 7261  -0.313   4.586   7.482 -0.1479 -0.4488  0.2707
   79SLPC   H7R 7262  -0.419   4.621   7.481 -0.3768 -1.0995 -1.3239
   79SLPC   H7S 7263  -0.247   4.654   7.541 -0.7287  0.1242  0.2724
   79SLPC   C28 7264  -0.320   4.454   7.562  0.2297 -0.4622  0.5876
   79SLPC   H8R 7265  -0.212   4.434   7.582  0.5981 -1.1506 -1.7951
   79SLPC   H8S 7266  -0.346   4.369   7.496 -0.8488  0.7603 -0.6220
   79SLPC   C29 7267  -0.398   4.470   7.690  0.0844  0.4734 -0.4317
   79SLPC   H9R 7268  -0.506   4.449   7.686 -0.4883  2.3401  2.2521
   79SLPC  C210 7269  -0.347   4.507   7.808  0.1409  0.6000  1.1493
   79SLPC  H10R 7270  -0.407   4.494   7.900 -2.3275  0.0916 -0.4467
   79SLPC  C211 7271  -0.205   4.558   7.830  0.1822  0.6331  0.0566
   79SLPC  H11R 7272  -0.204   4.640   7.906  1.8287  1.4286 -0.7808
   79SLPC  H11S 7273  -0.156   4.600   7.740  1.1472  1.9277  1.1270
   79SLPC  C212 7274  -0.116   4.451   7.879  0.5338  1.0033 -0.8314
   79SLPC  H12R 7275  -0.082   4.391   7.793  0.0042  0.0548 -0.3861
   79SLPC  C213 7276  -0.068   4.423   7.999 -0.6440 -0.0457 -0.0357
   79SLPC  H13R 7277  -0.000   4.336   8.007  1.1791  1.3868  0.8802
   79SLPC  C214 7278  -0.091   4.503   8.129 -0.2173 -0.0099  0.2969
   79SLPC  H14R 7279  -0.076   4.613   8.133 -3.8467  0.5748  2.6421
   79SLPC  H14S 7280  -0.022   4.463   8.207 -1.4560 -1.0441  0.8946
   79SLPC  C215 7281  -0.236   4.491   8.182 -0.4749  0.2893 -0.0743
   79SLPC  H15R 7282  -0.303   4.532   8.103  0.4347  1.4933 -0.2405
   79SLPC  H15S 7283  -0.238   4.559   8.270  1.7567  0.3643 -0.0135
   79SLPC  C216 7284  -0.298   4.359   8.243 -0.2080  0.0636 -0.9554
   79SLPC  H16R 7285  -0.240   4.312   8.325 -1.2188 -2.3327 -1.5122
   79SLPC  H16S 7286  -0.288   4.280   8.165  0.5455  1.4972 -2.3598
   79SLPC  C217 7287  -0.450   4.377   8.284  0.2744 -0.1614 -0.2326
   79SLPC  H17R 7288  -0.504   4.402   8.191  0.1583 -0.3699 -0.2217
   79SLPC  H17S 7289  -0.460   4.470   8.345 -0.0131  0.2553 -0.9085
   79SLPC  C218 7290  -0.508   4.252   8.348  0.0797  0.1364 -0.1269
   79SLPC  H18R 7291  -0.440   4.221   8.430 -0.2522  1.1308  0.5474
   79SLPC  H18S 7292  -0.516   4.170   8.274 -2.2552  1.0232 -0.9427
   79SLPC  H18T 7293  -0.609   4.269   8.391  1.0884 -0.5403  2.7524
   79SLPC   C33 7294  -0.269   4.173   7.272 -0.4631 -0.1328 -0.0370
   79SLPC   H3X 7295  -0.359   4.108   7.267 -0.2789 -0.3123 -1.9073
   79SLPC   H3Y 7296  -0.289   4.266   7.329 -0.9219  1.1776 -2.2131
   79SLPC   C34 7297  -0.173   4.104   7.371 -0.3287 -0.5552 -0.0194
   79SLPC   H4X 7298  -0.084   4.171   7.369  0.7995 -1.9543 -2.4155
   79SLPC   H4Y 7299  -0.142   4.000   7.346 -0.8901 -1.0350  1.2182
   79SLPC   C35 7300  -0.223   4.109   7.515  0.3750  0.9517 -0.9382
   79SLPC   H5X 7301  -0.328   4.077   7.502  0.7088 -1.4503  1.4013
   79SLPC   H5Y 7302  -0.226   4.215   7.548 -1.0195  0.7391 -0.3220
   79SLPC   C36 7303  -0.147   4.010   7.613 -0.7984 -0.6415  1.0776
   79SLPC   H6X 7304  -0.049   4.057   7.638 -1.7713  0.6381  2.6892
   79SLPC   H6Y 7305  -0.132   3.909   7.570 -2.0866 -0.9422  1.2886
   79SLPC   C37 7306  -0.213   3.985   7.748  0.6803 -0.5848 -0.5185
   79SLPC   H7X 7307  -0.317   3.948   7.731  0.6286  0.9638 -4.4474
   79SLPC   H7Y 7308  -0.220   4.090   7.784 -0.1226 -0.4672 -0.9878
   79SLPC   C38 7309  -0.123   3.899   7.840  0.3551 -0.4498 -0.6669
   79SLPC   H8X 7310  -0.033   3.960   7.859 -1.5724  2.0916  1.0046
   79SLPC   H8Y 7311  -0.092   3.810   7.780  1.4543 -0.2771 -0.3732
   79SLPC   C39 7312  -0.174   3.857   7.976  0.4297  0.1327 -0.1082
   79SLPC   H9X 7313  -0.090   3.800   8.021  0.2298 -1.6185 -1.8207
   79SLPC   H9Y 7314  -0.257   3.789   7.946  0.7689  0.7998 -2.7352
   79SLPC  C310 7315  -0.215   3.974   8.063  0.9186  0.3072  0.0068
   79SLPC  H10X 7316  -0.302   4.024   8.016  1.6508  1.6325  0.0309
   79SLPC  H10Y 7317  -0.125   4.039   8.057  0.2139  1.2267 -1.1923
   79SLPC  C311 7318  -0.256   3.935   8.208 -0.2406 -0.4611 -0.6242
   79SLPC  H11X 7319  -0.275   4.022   8.275  4.7496  0.0274  0.5750
   79SLPC  H11Y 7320  -0.174   3.876   8.254 -0.8770 -1.4995 -0.8032
   79SLPC  C312 7321  -0.393   3.851   8.216 -0.5137 -0.4075 -0.0429
   79SLPC  H12X 7322  -0.386   3.782   8.129  1.2482  1.7070 -1.7251
   79SLPC  H12Y 7323  -0.479   3.917   8.193 -1.4618 -1.5959  0.0132
   79SLPC  C313 7324  -0.406   3.762   8.341  0.1629 -0.2312  0.5359
   79SLPC  H13X 7325  -0.305   3.722   8.366  0.6525  0.3845 -0.4063
   79SLPC  H13Y 7326  -0.477   3.679   8.320  1.0178 -0.9384  0.3625
   79SLPC  C314 7327  -0.456   3.833   8.466  0.3933  0.6783  0.1614
   79SLPC  H14X 7328  -0.555   3.882   8.451  0.3086  0.4109 -0.1617
   79SLPC  H14Y 7329  -0.389   3.921   8.474 -1.0151  1.8700 -0.5897
   79SLPC  C315 7330  -0.454   3.754   8.598  0.2388 -0.0957 -0.2297
   79SLPC  H15X 7331  -0.494   3.821   8.677  1.8596  0.5764  0.0625
   79SLPC  H15Y 7332  -0.346   3.731   8.616  0.2691 -0.1521 -0.4789
   79SLPC  C316 7333  -0.535   3.625   8.606 -0.6036 -0.1491  0.3973
   79SLPC  H16X 7334  -0.485   3.553   8.675  0.7732 -0.0380 -0.4491
   79SLPC  H16Y 7335  -0.535   3.565   8.513  0.6999  0.0895  0.2239
   79SLPC  C317 7336  -0.666   3.656   8.677  1.0106 -0.5119  0.0255
   79SLPC  H17X 7337  -0.647   3.723   8.764  2.5946  0.5507 -1.0899
   79SLPC  H17Y 7338  -0.708   3.567   8.728 -0.7259  0.9554  1.3085
   79SLPC  C318 7339  -0.772   3.706   8.577 -0.5016 -0.1323  0.1796
   79SLPC  H18X 7340  -0.720   3.760   8.494 -0.3935  1.7380  1.4157
   79SLPC  H18Y 7341  -0.839   3.772   8.636 -1.0460 -0.3083 -0.2274
   79SLPC  H18Z 7342  -0.836   3.626   8.534  0.3382  0.2461 -1.9039
   80SLPC     N 7343   1.243   1.678   5.951  0.9914  0.5369 -0.8614
   80SLPC   C13 7344   1.372   1.746   5.986 -0.4720 -0.5862  0.1394
   80SLPC  H13A 7345   1.450   1.671   5.990 -0.7743 -1.0535 -1.7158
   80SLPC  H13B 7346   1.410   1.820   5.917  2.0168 -1.0945  0.8583
   80SLPC  H13C 7347   1.367   1.778   6.089  0.5356 -3.2139  1.0945
   80SLPC   C14 7348   1.254   1.618   5.817  0.1242  0.2930  0.7164
   80SLPC  H14A 7349   1.297   1.684   5.744 -1.8631 -0.4611 -1.2432
   80SLPC  H14B 7350   1.321   1.534   5.823  0.7695  0.6896 -0.6430
   80SLPC  H14C 7351   1.160   1.578   5.782  2.4341 -1.3795 -4.6291
   80SLPC   C15 7352   1.137   1.784   5.947  0.0313  0.1478 -0.1111
   80SLPC  H15A 7353   1.061   1.751   5.878 -2.4855  3.1731  0.9443
   80SLPC  H15B 7354   1.075   1.794   6.035 -2.6482 -1.8679 -1.6217
   80SLPC  H15C 7355   1.165   1.885   5.924  2.6275 -0.3288  0.6470
   80SLPC   C12 7356   1.202   1.567   6.047 -0.5645  0.0146 -0.4472
   80SLPC  H12A 7357   1.196   1.614   6.144  0.8863  2.3205 -1.4058
   80SLPC  H12B 7358   1.281   1.495   6.061 -0.9767 -0.2858  0.4531
   80SLPC   C11 7359   1.074   1.489   6.021  0.1520 -0.0858  0.6974
   80SLPC  H11A 7360   1.064   1.397   6.082  0.5702  0.0262  0.9401
   80SLPC  H11B 7361   1.090   1.443   5.921 -0.0410 -1.8665  1.4531
   80SLPC     P 7362   0.905   1.615   6.178 -0.3920 -0.0787 -0.0576
   80SLPC   O13 7363   0.953   1.753   6.193  0.3333  0.5305 -0.2870
   80SLPC   O14 7364   0.760   1.592   6.176 -0.1799  0.5536  0.5831
   80SLPC   O12 7365   0.953   1.565   6.030 -0.1465  0.1677  0.5778
   80SLPC   O11 7366   0.972   1.523   6.284  0.3722  0.6362 -0.2116
   80SLPC    C1 7367   1.075   1.566   6.371 -0.7972  0.0186 -0.1637
   80SLPC    HA 7368   1.165   1.502   6.361 -0.4115 -0.1971  3.3105
   80SLPC    HB 7369   1.118   1.660   6.329  1.2209 -0.1086  1.4603
   80SLPC    C2 7370   1.026   1.595   6.509 -0.4931 -0.5888 -0.5296
   80SLPC    HS 7371   0.963   1.686   6.502 -0.4516 -0.6155 -1.2623
   80SLPC   O21 7372   1.133   1.602   6.602 -0.2503 -0.1010  0.0044
   80SLPC   C21 7373   1.190   1.720   6.612 -0.7505  0.1411  0.4014
   80SLPC   O22 7374   1.146   1.829   6.575 -0.4546 -0.2092 -0.1189
   80SLPC   C22 7375   1.321   1.705   6.680 -0.4516 -0.2507 -0.3529
   80SLPC   H2R 7376   1.303   1.692   6.789 -1.4912  1.2285 -0.3282
   80SLPC   H2S 7377   1.394   1.634   6.635  2.4737  3.2828 -1.7528
   80SLPC    C3 7378   0.913   1.493   6.559 -0.7725  0.2619 -0.3769
   80SLPC    HX 7379   0.949   1.397   6.518 -2.1170  0.3152 -1.7723
   80SLPC    HY 7380   0.819   1.511   6.503 -0.9375 -1.1292 -0.5712
   80SLPC   O31 7381   0.886   1.497   6.701 -0.3637 -0.1163 -0.1784
   80SLPC   C31 7382   0.957   1.409   6.777 -0.3759  0.1879  1.2452
   80SLPC   O32 7383   1.027   1.319   6.729  0.9375  0.5613  0.2916
   80SLPC   C32 7384   0.937   1.439   6.922 -0.2377 -1.2299 -0.5520
   80SLPC   H2X 7385   0.919   1.340   6.969 -0.4653 -1.5500 -1.2927
   80SLPC   H2Y 7386   0.853   1.511   6.938  0.5730 -0.5088  0.5897
   80SLPC   C23 7387   1.410   1.835   6.670 -0.5586  0.4827  0.0316
   80SLPC   H3R 7388   1.350   1.916   6.717 -0.0247  1.4469 -0.9017
   80SLPC   H3S 7389   1.426   1.876   6.567 -1.7599  1.6085  0.2523
   80SLPC   C24 7390   1.542   1.806   6.736 -0.2277  0.6767 -0.4915
   80SLPC   H4R 7391   1.590   1.725   6.678 -0.3299 -0.2774  0.7149
   80SLPC   H4S 7392   1.513   1.780   6.840 -0.7733  0.3626 -0.7175
   80SLPC   C25 7393   1.629   1.928   6.759  0.9201  0.1536 -0.0686
   80SLPC   H5R 7394   1.569   2.014   6.796  1.7451  2.2370 -3.1787
   80SLPC   H5S 7395   1.678   1.957   6.664 -0.6808  0.9748 -0.6849
   80SLPC   C26 7396   1.745   1.897   6.860 -0.1966  0.3358 -0.1902
   80SLPC   H6R 7397   1.808   1.807   6.838 -0.2296 -1.2034  4.7263
   80SLPC   H6S 7398   1.700   1.863   6.956 -1.1619  0.8956 -0.4346
   80SLPC   C27 7399   1.843   2.014   6.879  0.1379  0.3085  0.8392
   80SLPC   H7R 7400   1.788   2.110   6.885 -0.3952  0.1678 -1.0826
   80SLPC   H7S 7401   1.887   2.036   6.779  0.2702 -0.6349  0.6782
   80SLPC   C28 7402   1.950   2.021   6.992  0.5498  0.4602  0.0815
   80SLPC   H8R 7403   2.017   2.107   6.973 -1.0863  1.9241  0.6425
   80SLPC   H8S 7404   2.015   1.931   6.980 -1.5207 -0.9518 -1.2090
   80SLPC   C29 7405   1.891   2.025   7.131 -0.6395  0.4716  0.0734
   80SLPC   H9R 7406   1.820   1.947   7.162  0.1527 -0.6055 -0.6882
   80SLPC  C210 7407   1.936   2.111   7.222 -0.5335 -0.0960  0.9360
   80SLPC  H10R 7408   1.891   2.105   7.322 -0.6726  0.7653  0.9279
   80SLPC  C211 7409   2.041   2.221   7.222 -0.0933 -0.4301  0.2980
   80SLPC  H11R 7410   2.005   2.298   7.151 -0.6567  0.7931  1.8565
   80SLPC  H11S 7411   2.131   2.181   7.170 -0.7788  0.1586 -1.4047
   80SLPC  C212 7412   2.067   2.296   7.355 -0.2639  0.2754 -0.2945
   80SLPC  H12R 7413   2.052   2.403   7.338 -1.9975 -0.0885 -1.3127
   80SLPC  C213 7414   2.103   2.245   7.472  0.3812 -0.5102  0.5640
   80SLPC  H13R 7415   2.107   2.312   7.559  0.9071  0.8570 -0.4698
   80SLPC  C214 7416   2.137   2.102   7.507 -0.0563 -0.3527 -0.6977
   80SLPC  H14R 7417   2.114   2.036   7.421 -1.5645  0.9359 -1.3229
   80SLPC  H14S 7418   2.083   2.062   7.595  0.7404  1.9746  0.9822
   80SLPC  C215 7419   2.292   2.085   7.515 -0.2969 -0.0618 -0.2624
   80SLPC  H15R 7420   2.332   2.120   7.417 -0.7161  2.0566  0.2868
   80SLPC  H15S 7421   2.319   1.977   7.521  0.3731  0.1573  0.9598
   80SLPC  C216 7422   2.360   2.157   7.629 -0.2948 -0.2720  0.3965
   80SLPC  H16R 7423   2.352   2.265   7.606  1.7146 -0.0022  0.7141
   80SLPC  H16S 7424   2.466   2.130   7.608 -0.9418 -0.9571 -2.5044
   80SLPC  C217 7425   2.296   2.138   7.766  0.4385 -0.6835  0.4429
   80SLPC  H17R 7426   2.273   2.029   7.774 -0.4461 -0.5485 -0.1335
   80SLPC  H17S 7427   2.202   2.196   7.749  0.2713 -0.9096  0.5919
   80SLPC  C218 7428   2.360   2.198   7.892 -0.1370 -0.6387  0.3512
   80SLPC  H18R 7429   2.385   2.304   7.873  1.1981 -0.8734  0.6751
   80SLPC  H18S 7430   2.457   2.151   7.920  0.7642  1.3110  0.6434
   80SLPC  H18T 7431   2.291   2.181   7.978  0.7224 -2.0871  0.8007
   80SLPC   C33 7432   1.069   1.509   6.967 -0.5216 -0.6265 -0.1188
   80SLPC   H3X 7433   1.078   1.602   6.906  0.9797 -1.0591 -0.5865
   80SLPC   H3Y 7434   1.156   1.450   6.932 -1.5350 -0.9079 -2.3486
   80SLPC   C34 7435   1.073   1.538   7.119 -0.0207 -0.7402 -0.3589
   80SLPC   H4X 7436   0.988   1.605   7.145  0.0247 -0.6075 -0.5472
   80SLPC   H4Y 7437   1.167   1.594   7.141  0.0418  0.2666 -2.8678
   80SLPC   C35 7438   1.059   1.414   7.199 -0.4079 -0.2662 -0.5712
   80SLPC   H5X 7439   1.125   1.336   7.157 -0.8341  0.0371 -1.8534
   80SLPC   H5Y 7440   0.956   1.374   7.194 -0.3091 -0.6397  0.1699
   80SLPC   C36 7441   1.107   1.419   7.347 -0.4605  0.9230  0.1204
   80SLPC   H6X 7442   1.217   1.432   7.340 -0.0001 -1.2834  2.0008
   80SLPC   H6Y 7443   1.076   1.324   7.396 -2.7119 -0.4612 -3.5565
   80SLPC   C37 7444   1.055   1.547   7.422  0.1918 -0.3663 -0.7510
   80SLPC   H7X 7445   0.944   1.554   7.417  0.0103 -0.7365  1.5503
   80SLPC   H7Y 7446   1.094   1.636   7.370 -0.1004 -0.6503 -1.4677
   80SLPC   C38 7447   1.078   1.552   7.575 -0.4868  0.2134  0.0888
   80SLPC   H8X 7448   1.012   1.472   7.614 -1.5617  0.8814 -0.3343
   80SLPC   H8Y 7449   1.037   1.645   7.620  0.3033  0.1745  0.9294
   80SLPC   C39 7450   1.222   1.524   7.622 -0.1898  0.3882  0.1969
   80SLPC   H9X 7451   1.288   1.602   7.578  2.0646  0.9407  4.0981
   80SLPC   H9Y 7452   1.267   1.433   7.577  0.2904  0.0547  1.3085
   80SLPC  C310 7453   1.234   1.544   7.776  0.5407 -0.3005  0.2375
   80SLPC  H10X 7454   1.205   1.650   7.786  0.5401 -0.1970 -0.7510
   80SLPC  H10Y 7455   1.343   1.542   7.799  0.7177 -1.7956 -0.5826
   80SLPC  C311 7456   1.154   1.454   7.872 -0.5654  0.2800 -0.0205
   80SLPC  H11X 7457   1.171   1.347   7.845  0.3918 -0.3000  2.5684
   80SLPC  H11Y 7458   1.045   1.474   7.862 -0.6165 -0.2124 -0.4801
   80SLPC  C312 7459   1.201   1.468   8.019 -0.6346  0.2981 -0.3474
   80SLPC  H12X 7460   1.237   1.570   8.043 -0.4935  0.1889 -0.0882
   80SLPC  H12Y 7461   1.289   1.402   8.039  0.6544  2.0731  0.0548
   80SLPC  C313 7462   1.099   1.422   8.125  0.2335 -0.8198 -0.7635
   80SLPC  H13X 7463   1.061   1.320   8.104 -2.7851 -0.2138  1.1948
   80SLPC  H13Y 7464   1.021   1.500   8.109 -0.6332 -1.0909  1.7158
   80SLPC  C314 7465   1.150   1.432   8.268 -0.0949 -0.6453  0.1752
   80SLPC  H14X 7466   1.176   1.538   8.291  0.1628 -0.4699 -0.8784
   80SLPC  H14Y 7467   1.246   1.377   8.268 -0.1598 -0.8604 -2.2380
   80SLPC  C315 7468   1.052   1.376   8.374 -0.1832  0.2834  0.7804
   80SLPC  H15X 7469   1.029   1.273   8.337 -1.0561  1.0375 -0.9118
   80SLPC  H15Y 7470   0.959   1.435   8.385  0.2635  0.9775  0.8946
   80SLPC  C316 7471   1.123   1.367   8.518  0.1038  0.2363  0.5158
   80SLPC  H16X 7472   1.147   1.471   8.549  0.3219  0.3903 -0.1474
   80SLPC  H16Y 7473   1.226   1.328   8.505 -0.1771 -0.5545  0.6063
   80SLPC  C317 7474   1.052   1.301   8.628  1.0148  0.6212 -0.0458
   80SLPC  H17X 7475   1.075   1.192   8.621  1.0699  0.4587  2.0362
   80SLPC  H17Y 7476   0.941   1.305   8.625  0.9820 -0.0798  0.0969
   80SLPC  C318 7477   1.094   1.338   8.767 -0.0083  0.1294 -0.2021
   80SLPC  H18X 7478   1.203   1.319   8.773 -0.1855 -2.1977 -2.5111
   80SLPC  H18Y 7479   1.030   1.283   8.840  0.7733 -0.7494 -0.1567
   80SLPC  H18Z 7480   1.080   1.448   8.778 -2.5294 -0.0051 -1.3363
   81SAPS     N 7481   0.946   4.072  11.069  0.1513  0.0514 -1.2163
   81SAPS   HN1 7482   0.866   4.043  11.009 -1.7549 -2.2265  2.0891
   81SAPS   HN2 7483   0.905   4.117  11.154  2.8664  1.4375 -0.5304
   81SAPS   HN3 7484   1.000   4.151  11.029 -0.0666 -0.0351 -1.6876
   81SAPS   C12 7485   1.037   3.959  11.108  0.1742  0.0705 -0.6765
   81SAPS  H12A 7486   1.132   4.008  11.121  0.4769 -0.7388  0.3148
   81SAPS   C13 7487   0.999   3.883  11.238 -0.5189  0.2835 -0.7746
   81SAPS  O13A 7488   0.891   3.917  11.296  0.7588 -0.2385  0.6736
   81SAPS  O13B 7489   1.082   3.814  11.303  0.1802 -0.5526  0.0607
   81SAPS   C11 7490   1.033   3.855  10.989 -0.4371  0.1886  0.5108
   81SAPS  H11A 7491   0.940   3.796  11.003 -1.0935  0.7505 -1.2928
   81SAPS  H11B 7492   1.111   3.777  11.000  1.5265  2.0741  0.6161
   81SAPS     P 7493   1.190   3.953  10.810  0.2409  0.0238  0.1464
   81SAPS   O13 7494   1.288   3.966  10.921 -0.8151 -0.5064 -0.6219
   81SAPS   O14 7495   1.236   3.859  10.704  0.2260 -0.2316 -0.4738
   81SAPS   O12 7496   1.051   3.920  10.867  1.0586 -0.2914  0.2528
   81SAPS   O11 7497   1.159   4.097  10.747 -0.4406  0.1236  0.1682
   81SAPS    C1 7498   1.037   4.127  10.675 -0.0040 -0.1608  0.7927
   81SAPS    HA 7499   0.941   4.095  10.721  1.2829 -0.8438  3.1781
   81SAPS    HB 7500   1.033   4.234  10.646 -0.4316 -0.2596  0.4877
   81SAPS    C2 7501   1.043   4.047  10.542  0.1808 -0.4085  0.4438
   81SAPS    HS 7502   1.036   3.939  10.563 -4.3058 -0.2981  0.3708
   81SAPS   O21 7503   1.173   4.075  10.480 -0.1588  0.0608 -0.3171
   81SAPS   C21 7504   1.229   3.983  10.405  0.1825  0.2416  0.1103
   81SAPS   O22 7505   1.181   3.869  10.389 -0.4727  0.4007 -0.4890
   81SAPS   C22 7506   1.354   4.023  10.328 -0.1626 -0.3760 -0.3315
   81SAPS   H2R 7507   1.425   4.064  10.402 -2.1103  1.1538  0.7946
   81SAPS   H2S 7508   1.403   3.934  10.283 -2.8089 -2.2003  0.1348
   81SAPS    C3 7509   0.924   4.096  10.443 -0.0955  0.7909 -0.3817
   81SAPS    HX 7510   0.921   4.206  10.459  2.1133  0.3759  5.3326
   81SAPS    HY 7511   0.833   4.051  10.488  0.7896 -0.7359 -0.0472
   81SAPS   O31 7512   0.937   4.065  10.303  0.3988 -0.0677 -0.1107
   81SAPS   C31 7513   0.914   3.933  10.285  0.6581 -0.8275 -0.0081
   81SAPS   O32 7514   0.880   3.861  10.377  0.3720 -0.2315 -0.1082
   81SAPS   C32 7515   0.939   3.894  10.140 -0.4994 -0.2103  0.4303
   81SAPS   H2X 7516   1.046   3.872  10.120 -0.4911 -1.5436  1.7773
   81SAPS   H2Y 7517   0.903   3.967  10.064 -0.0485 -0.7836 -0.3546
   81SAPS   C23 7518   1.324   4.128  10.215 -0.1750 -0.1536 -0.1705
   81SAPS   H3R 7519   1.238   4.191  10.246  0.5127  0.5655  0.3288
   81SAPS   H3S 7520   1.297   4.084  10.116 -1.4177 -0.2166  0.1802
   81SAPS   C24 7521   1.439   4.232  10.208 -0.0379  0.3197  0.5809
   81SAPS   H4R 7522   1.439   4.288  10.305 -0.6710 -0.6791  1.1711
   81SAPS   H4S 7523   1.403   4.299  10.128  1.2385 -0.6797 -0.8890
   81SAPS   C25 7524   1.581   4.181  10.178  0.4603 -0.1216  0.3208
   81SAPS   H5R 7525   1.612   4.110  10.256 -2.2309 -2.6253 -0.7071
   81SAPS   C26 7526   1.659   4.225  10.073  0.2984  0.6656 -0.4847
   81SAPS   H6R 7527   1.763   4.193  10.057 -0.1721 -0.6714 -1.0048
   81SAPS   C27 7528   1.619   4.328   9.975  0.2683  0.7734  0.8593
   81SAPS   H7R 7529   1.702   4.381   9.925  0.8391 -2.6793 -2.2518
   81SAPS   H7S 7530   1.565   4.414  10.020  2.2178  2.3690  0.2907
   81SAPS   C28 7531   1.520   4.275   9.873 -1.0122 -0.1338  0.1405
   81SAPS   H8R 7532   1.425   4.242   9.917 -0.0950  0.4847  2.7910
   81SAPS   C29 7533   1.539   4.253   9.743  0.1666  0.7160  0.3158
   81SAPS   H9R 7534   1.464   4.192   9.690 -0.0942  2.3011 -1.2101
   81SAPS  C210 7535   1.663   4.287   9.666 -0.6044  0.4297  0.5993
   81SAPS  H10R 7536   1.684   4.209   9.590  0.5302  2.6820 -1.5608
   81SAPS  H10S 7537   1.753   4.281   9.730 -0.2299  1.9106  0.2605
   81SAPS  C211 7538   1.663   4.429   9.616 -0.5427  0.1250 -1.1020
   81SAPS  H11R 7539   1.623   4.493   9.696 -2.9935 -2.8253  0.2417
   81SAPS  C212 7540   1.696   4.477   9.498 -0.0340  0.0783  0.0834
   81SAPS  H12R 7541   1.676   4.583   9.478  2.5294  0.7220  0.6240
   81SAPS  C213 7542   1.755   4.405   9.376  0.2294  0.2659 -0.7107
   81SAPS  H13R 7543   1.679   4.373   9.301 -0.8934 -0.7886  0.8096
   81SAPS  H13S 7544   1.796   4.304   9.398 -1.1198 -0.2426 -0.4225
   81SAPS  C214 7545   1.872   4.473   9.320 -0.3597 -0.0873  0.7642
   81SAPS  H14R 7546   1.951   4.520   9.380  2.1681  0.3176 -2.6047
   81SAPS  C215 7547   1.898   4.469   9.185 -0.7050 -0.4344  0.2450
   81SAPS  H15R 7548   1.989   4.521   9.154 -1.1212  0.0835 -0.1238
   81SAPS  C216 7549   1.821   4.397   9.078 -0.0939 -0.3267 -0.1862
   81SAPS  H16R 7550   1.715   4.428   9.071 -0.8148 -1.9597  2.1609
   81SAPS  H16S 7551   1.821   4.288   9.097  0.5351 -0.0454  1.6422
   81SAPS  C217 7552   1.880   4.419   8.940  0.3682 -0.1630  0.8710
   81SAPS  H17R 7553   1.815   4.358   8.874 -0.5897 -0.8173  2.3541
   81SAPS  H17S 7554   1.977   4.365   8.932  0.5618  0.3624 -0.4661
   81SAPS  C218 7555   1.904   4.560   8.894 -0.4300 -0.3782 -0.3293
   81SAPS  H18R 7556   1.958   4.627   8.965 -1.8765 -0.1714  0.6210
   81SAPS  H18S 7557   1.803   4.606   8.886 -0.1960 -0.1178 -2.3108
   81SAPS  C219 7558   1.968   4.572   8.755 -0.0776  0.3910  0.2842
   81SAPS  H19R 7559   2.069   4.527   8.743  0.9506  2.1406  1.8085
   81SAPS  H19S 7560   1.985   4.681   8.751  1.1118  0.2881  1.6368
   81SAPS  C220 7561   1.888   4.529   8.630 -0.9790  0.2718  0.2941
   81SAPS  H20R 7562   1.943   4.564   8.540 -0.4547 -0.4683  0.3152
   81SAPS  H20S 7563   1.784   4.566   8.620 -0.4681  1.0353 -4.2398
   81SAPS  H20T 7564   1.883   4.418   8.631  0.4639  0.1826  0.7839
   81SAPS   C33 7565   0.857   3.766  10.105 -0.7413  0.2718 -0.5759
   81SAPS   H3X 7566   0.749   3.791  10.106 -1.0835 -1.1486  0.1599
   81SAPS   H3Y 7567   0.854   3.686  10.181  1.4798  0.3490 -0.3429
   81SAPS   C34 7568   0.890   3.716   9.966  0.0914 -0.0013  0.4861
   81SAPS   H4X 7569   0.999   3.719   9.949  0.6705 -0.2453  3.6351
   81SAPS   H4Y 7570   0.843   3.781   9.889  0.5798  1.2555  1.2251
   81SAPS   C35 7571   0.848   3.568   9.953 -0.0253  0.1525 -0.3366
   81SAPS   H5X 7572   0.743   3.567   9.988 -0.9089  0.3727 -2.8016
   81SAPS   H5Y 7573   0.910   3.510  10.025  0.8771 -0.5013 -1.5962
   81SAPS   C36 7574   0.860   3.515   9.816  0.0626  0.0364 -0.4089
   81SAPS   H6X 7575   0.967   3.534   9.793  0.1299 -0.4136 -0.4802
   81SAPS   H6Y 7576   0.788   3.561   9.746 -1.5854 -1.4871  0.2248
   81SAPS   C37 7577   0.826   3.365   9.816  0.3059  0.1603 -0.4939
   81SAPS   H7X 7578   0.718   3.343   9.829  0.5815 -0.3560  1.0826
   81SAPS   H7Y 7579   0.879   3.315   9.900  1.7721 -0.6640 -1.8539
   81SAPS   C38 7580   0.873   3.296   9.692  0.5649  0.3283 -0.4022
   81SAPS   H8X 7581   0.984   3.300   9.687  0.6339  1.9668  1.2653
   81SAPS   H8Y 7582   0.830   3.339   9.599 -1.3237 -0.5657  0.0051
   81SAPS   C39 7583   0.818   3.152   9.686  0.9571 -0.3291 -0.0672
   81SAPS   H9X 7584   0.710   3.164   9.666  0.7689 -0.2710  0.9315
   81SAPS   H9Y 7585   0.830   3.099   9.783 -2.5630 -0.2099  0.5593
   81SAPS  C310 7586   0.868   3.066   9.570 -0.7343 -0.5126  0.3522
   81SAPS  H10X 7587   0.978   3.080   9.581 -0.5747 -1.2051 -0.3050
   81SAPS  H10Y 7588   0.837   3.111   9.473  0.0869  1.3830  0.9106
   81SAPS  C311 7589   0.841   2.917   9.590  0.2545  0.0388  0.0922
   81SAPS  H11X 7590   0.733   2.895   9.575  0.2899  0.6971 -1.2242
   81SAPS  H11Y 7591   0.873   2.900   9.695  1.3501  1.7376  0.0570
   81SAPS  C312 7592   0.928   2.829   9.494  0.5021 -0.3139 -0.0697
   81SAPS  H12X 7593   0.887   2.726   9.503 -0.3992  0.0356  0.0151
   81SAPS  H12Y 7594   1.030   2.835   9.538  0.5224 -0.6170 -0.0786
   81SAPS  C313 7595   0.913   2.871   9.342 -0.2985 -0.4552 -0.1898
   81SAPS  H13X 7596   0.975   2.800   9.283  2.1441  0.7454  0.7885
   81SAPS  H13Y 7597   0.958   2.971   9.322 -0.2060 -0.2719  0.8446
   81SAPS  C314 7598   0.766   2.870   9.296 -0.6961  0.3754 -0.6433
   81SAPS  H14X 7599   0.709   2.944   9.357  1.1814  0.6873  0.7870
   81SAPS  H14Y 7600   0.736   2.764   9.311  1.9072 -0.4507 -0.7667
   81SAPS  C315 7601   0.740   2.897   9.147  0.2714  0.2665 -0.0067
   81SAPS  H15X 7602   0.635   2.871   9.124 -0.2244  2.3578 -0.2891
   81SAPS  H15Y 7603   0.809   2.830   9.091  1.9680  2.9864 -1.3857
   81SAPS  C316 7604   0.775   3.042   9.103 -0.5031 -0.2447 -0.0563
   81SAPS  H16X 7605   0.885   3.056   9.110 -0.4820 -0.6076  0.3605
   81SAPS  H16Y 7606   0.733   3.108   9.182 -2.0044  0.2837 -1.2401
   81SAPS  C317 7607   0.742   3.075   8.951 -0.0511  0.3563  0.0937
   81SAPS  H17X 7608   0.801   3.015   8.878 -0.2122  0.9397 -0.5337
   81SAPS  H17Y 7609   0.752   3.186   8.945 -0.3557  0.3236 -2.4345
   81SAPS  C318 7610   0.594   3.045   8.918  0.0297  0.6425 -0.2968
   81SAPS  H18X 7611   0.561   3.093   8.824  1.6717 -0.4141 -1.4750
   81SAPS  H18Y 7612   0.532   3.082   9.003 -0.3021 -2.0853  0.7549
   81SAPS  H18Z 7613   0.572   2.937   8.909 -0.9660  0.7857  0.3033
   82SAPS     N 7614   6.794   3.584  10.867  0.2617  0.9208  0.0413
   82SAPS   HN1 7615   6.873   3.610  10.805  0.1134  4.3007  1.0634
   82SAPS   HN2 7616   6.704   3.601  10.818 -0.0298 -1.8224 -0.5474
   82SAPS   HN3 7617   6.798   3.637  10.956 -2.4680 -0.9013  1.4107
   82SAPS   C12 7618   6.803   3.442  10.895 -1.0369  0.2597  0.9256
   82SAPS  H12A 7619   6.905   3.429  10.930 -0.9444 -0.1665  0.5075
   82SAPS   C13 7620   6.715   3.385  11.001  0.3285 -0.5713  0.4804
   82SAPS  O13A 7621   6.615   3.448  11.042  0.1945 -0.2442  0.0506
   82SAPS  O13B 7622   6.745   3.269  11.040 -0.0665  0.1549 -0.5491
   82SAPS   C11 7623   6.784   3.374  10.756  0.9532 -0.5002  0.9153
   82SAPS  H11A 7624   6.687   3.411  10.717  0.1777 -0.8920  2.3733
   82SAPS  H11B 7625   6.764   3.265  10.769 -1.3746 -0.1229  0.8623
   82SAPS     P 7626   6.976   3.276  10.600  0.1913  0.5868  0.1583
   82SAPS   O13 7627   7.112   3.327  10.577  0.3086 -0.1958 -0.3785
   82SAPS   O14 7628   6.967   3.152  10.680  0.1150 -0.7772 -0.0229
   82SAPS   O12 7629   6.894   3.392  10.663  0.0189  0.1449 -0.5593
   82SAPS   O11 7630   6.894   3.253  10.465  0.0544  0.0014  0.3405
   82SAPS    C1 7631   6.838   3.365  10.396  0.5504 -0.5300 -1.0099
   82SAPS    HA 7632   6.729   3.350  10.380  0.3213 -0.1073  0.0643
   82SAPS    HB 7633   6.841   3.458  10.457  0.6016 -1.4287  0.3769
   82SAPS    C2 7634   6.900   3.389  10.255 -0.4268  0.9761 -0.5600
   82SAPS    HS 7635   6.879   3.496  10.231 -1.9066  0.5385 -1.3492
   82SAPS   O21 7636   6.846   3.290  10.167  0.1214  0.2086 -0.5673
   82SAPS   C21 7637   6.801   3.341  10.055  0.2077  0.4356  0.1832
   82SAPS   O22 7638   6.806   3.462  10.025 -0.0292 -0.0040 -0.4296
   82SAPS   C22 7639   6.730   3.234   9.973 -0.6653  0.3568 -0.0075
   82SAPS   H2R 7640   6.779   3.137   9.997  0.6414  0.7912 -0.8006
   82SAPS   H2S 7641   6.626   3.219  10.008 -0.2172 -1.7916  0.5458
   82SAPS    C3 7642   7.050   3.380  10.255  0.0762  0.6832 -0.0604
   82SAPS    HX 7643   7.060   3.275  10.289  0.5539  1.0343  0.9355
   82SAPS    HY 7644   7.098   3.436  10.339 -0.6555 -0.6916  1.3142
   82SAPS   O31 7645   7.113   3.391  10.130  0.0711 -0.0156  0.2207
   82SAPS   C31 7646   7.138   3.525  10.114  0.1190  0.3602 -0.2807
   82SAPS   O32 7647   7.103   3.615  10.186 -0.7227 -0.3973 -0.3144
   82SAPS   C32 7648   7.217   3.540   9.979  0.4088 -0.4282  0.3118
   82SAPS   H2X 7649   7.156   3.493   9.899  2.6289  1.6447 -2.8043
   82SAPS   H2Y 7650   7.312   3.484   9.984  1.2139  0.8233 -0.3975
   82SAPS   C23 7651   6.734   3.275   9.829 -0.3313  0.0937  0.8249
   82SAPS   H3R 7652   6.836   3.299   9.791 -0.5564 -1.0677 -0.6140
   82SAPS   H3S 7653   6.676   3.366   9.804 -3.2139 -1.7604  0.2628
   82SAPS   C24 7654   6.691   3.160   9.734  0.1480  0.4420  0.3680
   82SAPS   H4R 7655   6.582   3.141   9.735  0.4033 -1.1526  0.1494
   82SAPS   H4S 7656   6.748   3.078   9.783 -0.8958 -0.5081  0.0329
   82SAPS   C25 7657   6.745   3.172   9.591  0.1738 -0.8774 -0.3024
   82SAPS   H5R 7658   6.836   3.114   9.572 -1.0851 -2.8943 -0.4456
   82SAPS   C26 7659   6.691   3.258   9.496  0.9476  0.4458 -0.5585
   82SAPS   H6R 7660   6.726   3.255   9.392 -0.1908 -0.8915 -0.9172
   82SAPS   C27 7661   6.580   3.359   9.503 -0.2629  1.0006  0.1435
   82SAPS   H7R 7662   6.516   3.354   9.594 -0.4558 -1.7598 -0.0737
   82SAPS   H7S 7663   6.505   3.325   9.429 -0.9379  0.2679  1.1461
   82SAPS   C28 7664   6.627   3.502   9.484  0.5575  0.2596  0.4543
   82SAPS   H8R 7665   6.635   3.561   9.577 -0.6594 -0.2904  0.9343
   82SAPS   C29 7666   6.654   3.566   9.364  0.0768 -0.4123 -0.4956
   82SAPS   H9R 7667   6.706   3.663   9.370 -0.8560  0.0577  0.4757
   82SAPS  C210 7668   6.654   3.503   9.227  0.8015 -0.8537 -0.2195
   82SAPS  H10R 7669   6.608   3.402   9.224 -2.7087  0.5793  0.0030
   82SAPS  H10S 7670   6.757   3.504   9.186  1.0166 -0.9842  0.3259
   82SAPS  C211 7671   6.585   3.583   9.117 -0.0697  0.4938 -0.2962
   82SAPS  H11R 7672   6.611   3.688   9.134  0.6780  0.1401  0.8750
   82SAPS  C212 7673   6.496   3.543   9.022  0.1001 -0.3239 -0.5578
   82SAPS  H12R 7674   6.455   3.613   8.947  1.3736 -1.0608 -1.9984
   82SAPS  C213 7675   6.463   3.401   9.006 -0.2761 -0.4728  0.4148
   82SAPS  H13R 7676   6.372   3.383   9.066 -0.2735 -1.8950  0.0249
   82SAPS  H13S 7677   6.541   3.329   9.038  0.6551 -0.0048 -0.7297
   82SAPS  C214 7678   6.421   3.357   8.870 -0.2091 -0.0450 -0.2761
   82SAPS  H14R 7679   6.314   3.352   8.846 -0.2479 -2.5326  0.1305
   82SAPS  C215 7680   6.495   3.296   8.773  0.0921  0.2743 -0.3131
   82SAPS  H15R 7681   6.443   3.263   8.682 -0.2002 -1.5562  0.4771
   82SAPS  C216 7682   6.637   3.258   8.773 -0.5730 -0.5599 -0.4060
   82SAPS  H16R 7683   6.640   3.148   8.761  0.2931 -0.7661  1.4509
   82SAPS  H16S 7684   6.690   3.277   8.868 -1.3531  1.2549 -0.2793
   82SAPS  C217 7685   6.713   3.339   8.663  0.3418 -0.5151  0.3105
   82SAPS  H17R 7686   6.680   3.444   8.671 -0.0544 -0.4249 -1.8172
   82SAPS  H17S 7687   6.669   3.301   8.568 -0.5243  0.4094  0.3263
   82SAPS  C218 7688   6.867   3.339   8.677 -0.1679  0.3149 -0.8393
   82SAPS  H18R 7689   6.898   3.364   8.781  0.0006 -3.1552  0.0517
   82SAPS  H18S 7690   6.904   3.419   8.609 -1.6226  1.0002 -0.8464
   82SAPS  C219 7691   6.926   3.211   8.616  0.1648 -0.5587  0.3659
   82SAPS  H19R 7692   6.883   3.216   8.514  0.0282  2.9119  0.4855
   82SAPS  H19S 7693   6.890   3.118   8.665  0.4018  0.3460  2.3509
   82SAPS  C220 7694   7.078   3.205   8.630  0.4683 -0.8148  0.2596
   82SAPS  H20R 7695   7.138   3.286   8.583 -0.0811  0.1059  1.0959
   82SAPS  H20S 7696   7.120   3.113   8.584  1.0191 -0.1589 -0.5778
   82SAPS  H20T 7697   7.093   3.204   8.740 -1.5827  3.7228  0.7914
   82SAPS   C33 7698   7.231   3.693   9.937  0.2584  0.1280  0.6732
   82SAPS   H3X 7699   7.281   3.750  10.018  0.3197  1.3499 -0.1851
   82SAPS   H3Y 7700   7.125   3.723   9.928  0.4703  0.8570  0.4829
   82SAPS   C34 7701   7.315   3.708   9.805 -0.1728  0.6369  0.0856
   82SAPS   H4X 7702   7.257   3.647   9.732 -2.5320  2.2939  0.4245
   82SAPS   H4Y 7703   7.411   3.654   9.810 -1.1950 -1.2114  0.4611
   82SAPS   C35 7704   7.319   3.861   9.762 -0.1701 -0.1394 -0.0038
   82SAPS   H5X 7705   7.389   3.913   9.832 -0.4470  1.9376 -1.1818
   82SAPS   H5Y 7706   7.215   3.897   9.775 -0.6406 -1.7379  0.9399
   82SAPS   C36 7707   7.370   3.877   9.619  0.7428 -0.1770 -0.4160
   82SAPS   H6X 7708   7.291   3.845   9.549 -0.2711  0.4144  0.4357
   82SAPS   H6Y 7709   7.465   3.822   9.602  0.7247  0.0003 -1.1509
   82SAPS   C37 7710   7.417   4.024   9.597 -0.2476  0.0517  0.3560
   82SAPS   H7X 7711   7.513   4.038   9.653 -0.6290 -0.6252  1.2100
   82SAPS   H7Y 7712   7.339   4.092   9.637 -0.2192 -0.8448  2.0421
   82SAPS   C38 7713   7.432   4.060   9.440  0.0376 -0.0885  0.1872
   82SAPS   H8X 7714   7.460   4.167   9.430 -1.2128  0.0989 -1.7367
   82SAPS   H8Y 7715   7.337   4.040   9.386  0.8648  0.8483 -1.7231
   82SAPS   C39 7716   7.531   3.961   9.369 -0.2112  0.1781  0.2377
   82SAPS   H9X 7717   7.477   3.864   9.372 -0.7997  0.5207  2.4185
   82SAPS   H9Y 7718   7.630   3.945   9.416 -0.4075 -0.4111  0.4530
   82SAPS  C310 7719   7.564   3.998   9.223 -0.3922 -0.2970 -0.0026
   82SAPS  H10X 7720   7.636   3.924   9.184 -1.1108 -0.4576 -1.0752
   82SAPS  H10Y 7721   7.614   4.097   9.224 -2.4444  0.8010  1.4389
   82SAPS  C311 7722   7.443   4.018   9.131  0.1036 -0.0074  0.5833
   82SAPS  H11X 7723   7.425   4.126   9.115 -0.0628 -0.1667 -0.3658
   82SAPS  H11Y 7724   7.353   3.976   9.182 -1.4057  1.8373 -0.4351
   82SAPS  C312 7725   7.451   3.952   8.995 -0.1560  0.1011 -0.0622
   82SAPS  H12X 7726   7.468   3.842   8.991 -0.7624  0.0451 -1.6472
   82SAPS  H12Y 7727   7.545   3.984   8.946 -0.4119 -2.2920 -2.3199
   82SAPS  C313 7728   7.321   3.981   8.913 -0.2026 -0.1429  0.1966
   82SAPS  H13X 7729   7.305   4.089   8.894 -2.8202 -0.6156 -0.6241
   82SAPS  H13Y 7730   7.234   3.944   8.971 -0.2841  0.5554  0.5349
   82SAPS  C314 7731   7.326   3.895   8.788 -0.1172  1.1746  0.1763
   82SAPS  H14X 7732   7.226   3.890   8.740 -0.0755 -1.7282  0.2092
   82SAPS  H14Y 7733   7.339   3.788   8.818 -0.5502  0.7875 -0.9523
   82SAPS  C315 7734   7.429   3.944   8.689  0.0018  0.1018  0.9963
   82SAPS  H15X 7735   7.531   3.952   8.733  0.6372  1.1046 -0.5332
   82SAPS  H15Y 7736   7.393   4.040   8.646 -1.8041 -0.1586  1.8606
   82SAPS  C316 7737   7.450   3.840   8.577 -0.5808 -0.4352  0.6614
   82SAPS  H16X 7738   7.352   3.817   8.529 -0.8035 -1.0998  1.4063
   82SAPS  H16Y 7739   7.490   3.738   8.599  1.3583 -0.5719 -2.8371
   82SAPS  C317 7740   7.553   3.888   8.470 -0.0314 -0.1741  1.2544
   82SAPS  H17X 7741   7.542   3.805   8.397  3.5119 -0.0719  0.4589
   82SAPS  H17Y 7742   7.656   3.874   8.508 -0.0718  0.1777  1.4941
   82SAPS  C318 7743   7.537   4.024   8.411  0.5615 -0.2099  0.1731
   82SAPS  H18X 7744   7.552   4.105   8.485 -0.1331 -1.5531  1.8547
   82SAPS  H18Y 7745   7.434   4.035   8.370  0.4518  0.3097  0.5816
   82SAPS  H18Z 7746   7.609   4.059   8.334 -0.3639  2.7872  0.5422
   83SAPS     N 7747   0.865   5.631  10.975  0.5914  0.0264 -0.4803
   83SAPS   HN1 7748   0.862   5.541  10.921  1.2447 -0.4395  0.2343
   83SAPS   HN2 7749   0.781   5.683  10.945 -0.1441 -0.9230 -0.1336
   83SAPS   HN3 7750   0.957   5.675  10.957  2.1463 -2.4778  0.6721
   83SAPS   C12 7751   0.839   5.591  11.126  0.1881 -0.2105  0.1698
   83SAPS  H12A 7752   0.834   5.687  11.175  1.7907 -0.7877  1.5639
   83SAPS   C13 7753   0.701   5.529  11.153 -0.8363  0.0736  0.0875
   83SAPS  O13A 7754   0.611   5.547  11.066  0.5324  0.2394  0.2371
   83SAPS  O13B 7755   0.677   5.509  11.274 -0.5763 -0.2162  0.0306
   83SAPS   C11 7756   0.956   5.505  11.174 -0.0056 -0.1033 -0.2997
   83SAPS  H11A 7757   0.926   5.400  11.154  1.6079 -0.2894 -2.0629
   83SAPS  H11B 7758   0.966   5.507  11.284  0.2129  0.0846 -0.3211
   83SAPS     P 7759   1.208   5.444  11.134 -0.3060  0.2940 -0.0660
   83SAPS   O13 7760   1.292   5.495  11.246 -0.6691 -0.3538 -0.5491
   83SAPS   O14 7761   1.155   5.305  11.160  0.4466 -0.6692  0.1783
   83SAPS   O12 7762   1.081   5.534  11.117  0.0873  0.4977  0.2029
   83SAPS   O11 7763   1.293   5.444  11.005 -0.2156  0.6929 -0.2921
   83SAPS    C1 7764   1.241   5.519  10.890  0.8239  0.2678 -0.4461
   83SAPS    HA 7765   1.131   5.502  10.880  0.5062  0.3123  2.1878
   83SAPS    HB 7766   1.253   5.629  10.906 -1.1195  1.0622 -3.4964
   83SAPS    C2 7767   1.329   5.497  10.757  0.0816 -0.1562  0.1376
   83SAPS    HS 7768   1.342   5.595  10.705 -0.0591 -1.4548 -2.5107
   83SAPS   O21 7769   1.267   5.400  10.669  0.1566 -0.1725  0.0015
   83SAPS   C21 7770   1.176   5.459  10.591 -0.1859  0.8777 -1.3102
   83SAPS   O22 7771   1.137   5.576  10.611  0.4173 -0.3893 -0.1100
   83SAPS   C22 7772   1.129   5.356  10.489 -0.2404 -0.5063  0.2677
   83SAPS   H2R 7773   1.220   5.301  10.457 -0.7805 -0.0283 -2.3585
   83SAPS   H2S 7774   1.071   5.282  10.548  0.9694 -1.5230  0.2322
   83SAPS    C3 7775   1.477   5.456  10.796  0.0658  0.3400 -0.4585
   83SAPS    HX 7776   1.490   5.350  10.826  0.3609  0.3981 -0.3804
   83SAPS    HY 7777   1.514   5.525  10.874  2.1054  0.0878 -1.1491
   83SAPS   O31 7778   1.556   5.479  10.678 -0.7366  0.3089 -0.3085
   83SAPS   C31 7779   1.690   5.457  10.690 -0.2846 -0.9744 -0.5844
   83SAPS   O32 7780   1.744   5.425  10.796  0.2924  0.2096 -0.0122
   83SAPS   C32 7781   1.752   5.484  10.551 -0.1538 -0.2386  0.5814
   83SAPS   H2X 7782   1.797   5.586  10.560 -0.4558 -0.1369  0.9775
   83SAPS   H2Y 7783   1.674   5.478  10.472  0.6363  0.7267 -0.3073
   83SAPS   C23 7784   1.048   5.424  10.376 -0.6806  0.7642  0.5997
   83SAPS   H3R 7785   0.981   5.503  10.417 -1.0053  1.1062 -0.5517
   83SAPS   H3S 7786   0.983   5.341  10.340 -0.4214  1.4367 -1.5200
   83SAPS   C24 7787   1.143   5.476  10.265  0.5046 -0.2998  0.1879
   83SAPS   H4R 7788   1.201   5.390  10.227  1.6064  0.3690  0.3145
   83SAPS   H4S 7789   1.221   5.542  10.309 -0.1097  2.7296 -2.8642
   83SAPS   C25 7790   1.068   5.554  10.169 -0.5561 -0.3913  0.3821
   83SAPS   H5R 7791   0.988   5.617  10.211  0.8500  0.7246  1.4947
   83SAPS   C26 7792   1.074   5.540  10.033  0.0875  0.2027  0.2490
   83SAPS   H6R 7793   1.018   5.618   9.980  0.4693  1.3587  1.4936
   83SAPS   C27 7794   1.158   5.447   9.950 -0.0668  0.7469  0.2307
   83SAPS   H7R 7795   1.225   5.386  10.014  0.9872  2.7045  1.0606
   83SAPS   H7S 7796   1.215   5.512   9.880 -1.3626  0.1165 -1.4940
   83SAPS   C28 7797   1.068   5.361   9.863 -0.9040 -0.2234  0.0037
   83SAPS   H8R 7798   0.998   5.297   9.919 -0.0563 -0.0093  1.3737
   83SAPS   C29 7799   1.068   5.348   9.728  0.4257 -0.2153 -0.1988
   83SAPS   H9R 7800   1.004   5.275   9.676 -0.5154  0.0326  0.5784
   83SAPS  C210 7801   1.155   5.436   9.627  0.2796  0.8152 -0.1014
   83SAPS  H10R 7802   1.176   5.368   9.541  1.7119 -0.8558  1.4882
   83SAPS  H10S 7803   1.252   5.464   9.672 -0.7323  0.9059  2.1658
   83SAPS  C211 7804   1.083   5.556   9.591  0.6939 -0.3488  0.1604
   83SAPS  H11R 7805   1.033   5.614   9.669 -0.7104 -2.5216  0.9617
   83SAPS  C212 7806   1.068   5.605   9.464 -0.2447  0.0572  0.0740
   83SAPS  H12R 7807   1.020   5.703   9.453  0.9684  0.4117 -3.4009
   83SAPS  C213 7808   1.113   5.544   9.333 -0.7344  0.3858 -0.4471
   83SAPS  H13R 7809   1.112   5.433   9.336 -0.4982  0.3876 -0.3276
   83SAPS  H13S 7810   1.217   5.576   9.314 -0.0111 -1.6624 -0.1552
   83SAPS  C214 7811   1.015   5.582   9.221  0.0948 -0.7005  0.5493
   83SAPS  H14R 7812   0.913   5.609   9.254  0.4332  3.8043 -1.3484
   83SAPS  C215 7813   1.023   5.607   9.083  0.2037  0.0130 -0.5995
   83SAPS  H15R 7814   0.942   5.642   9.017 -0.5585 -2.4173 -1.0836
   83SAPS  C216 7815   1.154   5.606   9.006  0.3521  0.2395 -0.0467
   83SAPS  H16R 7816   1.238   5.562   9.065  0.6723 -0.1139 -0.7564
   83SAPS  H16S 7817   1.176   5.711   8.979  1.3008 -0.3025 -1.4596
   83SAPS  C217 7818   1.142   5.527   8.878  0.1027  0.7170 -0.3573
   83SAPS  H17R 7819   1.238   5.551   8.828  0.5911  0.7829  0.5904
   83SAPS  H17S 7820   1.055   5.563   8.819 -0.7098  0.5391  0.6976
   83SAPS  C218 7821   1.123   5.382   8.896 -0.3936 -0.3130  0.5335
   83SAPS  H18R 7822   1.022   5.370   8.941 -0.0089  0.9846  1.8170
   83SAPS  H18S 7823   1.205   5.344   8.961  0.4338 -0.1450 -0.3884
   83SAPS  C219 7824   1.134   5.316   8.760  0.6199 -0.0873  0.1575
   83SAPS  H19R 7825   1.232   5.341   8.715 -0.8650  0.7058 -2.9316
   83SAPS  H19S 7826   1.052   5.350   8.693 -3.2871 -2.2520  3.4071
   83SAPS  C220 7827   1.143   5.168   8.758 -0.5118  0.1756 -0.5167
   83SAPS  H20R 7828   1.235   5.132   8.808 -1.6385 -0.9740  0.8567
   83SAPS  H20S 7829   1.144   5.137   8.651  2.9967 -1.1359 -0.2349
   83SAPS  H20T 7830   1.061   5.112   8.808 -0.1798 -0.8316 -1.0651
   83SAPS   C33 7831   1.867   5.381  10.517 -0.9200  0.3973 -0.1130
   83SAPS   H3X 7832   1.832   5.277  10.500  0.4395  0.0085 -0.7068
   83SAPS   H3Y 7833   1.934   5.392  10.606 -1.4896  1.4540  0.1976
   83SAPS   C34 7834   1.961   5.401  10.400 -0.0915 -0.3297 -0.1301
   83SAPS   H4X 7835   2.051   5.335  10.393  0.9530  0.8430  1.6567
   83SAPS   H4Y 7836   2.002   5.503  10.417  0.2527 -0.0027 -2.4654
   83SAPS   C35 7837   1.886   5.401  10.267  0.2540  0.6125  1.1758
   83SAPS   H5X 7838   1.806   5.478  10.272  0.3248  1.0635 -2.1751
   83SAPS   H5Y 7839   1.851   5.298  10.243  1.8053  0.3195 -0.0068
   83SAPS   C36 7840   1.991   5.435  10.151 -0.8429 -0.2921  0.1973
   83SAPS   H6X 7841   2.059   5.347  10.154 -1.5230 -0.8988 -1.1660
   83SAPS   H6Y 7842   2.056   5.523  10.171 -0.2456 -0.5800 -0.4273
   83SAPS   C37 7843   1.931   5.444  10.011  0.6056  0.4887  0.2904
   83SAPS   H7X 7844   2.012   5.473   9.941  1.8192 -0.5930  1.2080
   83SAPS   H7Y 7845   1.857   5.528  10.010  2.6325  2.4519  2.3890
   83SAPS   C38 7846   1.871   5.316   9.959  0.1718 -0.7334 -0.2665
   83SAPS   H8X 7847   1.810   5.262  10.035  0.3779 -1.5463 -0.6663
   83SAPS   H8Y 7848   1.951   5.240   9.947  0.1563 -1.2334  2.2053
   83SAPS   C39 7849   1.802   5.341   9.822 -0.3004  0.2413  0.1739
   83SAPS   H9X 7850   1.724   5.420   9.832  1.5306  2.1271  0.1866
   83SAPS   H9Y 7851   1.753   5.243   9.804 -0.2613  0.7227 -3.2822
   83SAPS  C310 7852   1.881   5.402   9.705 -0.3068  0.1303  0.5333
   83SAPS  H10X 7853   1.973   5.342   9.712 -1.0019 -1.0700 -0.2818
   83SAPS  H10Y 7854   1.925   5.502   9.726  3.3530 -1.4707  1.1510
   83SAPS  C311 7855   1.831   5.375   9.562  0.0196  0.1459  0.4348
   83SAPS  H11X 7856   1.747   5.444   9.539 -1.1197 -0.4455  2.5587
   83SAPS  H11Y 7857   1.779   5.277   9.567  2.1397 -1.2704 -2.3454
   83SAPS  C312 7858   1.929   5.384   9.454 -1.2666  0.2044  0.7428
   83SAPS  H12X 7859   2.018   5.320   9.475  0.1364  1.6119 -0.6293
   83SAPS  H12Y 7860   1.960   5.488   9.431 -3.9231  0.6979 -1.0122
   83SAPS  C313 7861   1.873   5.337   9.318  0.4528  0.5196  0.0780
   83SAPS  H13X 7862   1.810   5.419   9.278  1.5836 -0.0336 -3.1540
   83SAPS  H13Y 7863   1.829   5.236   9.328 -0.6632  0.5840 -3.1105
   83SAPS  C314 7864   1.973   5.323   9.206 -0.4320  0.3789  0.0124
   83SAPS  H14X 7865   2.050   5.249   9.233  1.6772  1.8720 -1.5358
   83SAPS  H14Y 7866   2.036   5.414   9.209 -0.7981  0.6666 -0.6720
   83SAPS  C315 7867   1.905   5.322   9.072  0.4320  0.2015 -0.1215
   83SAPS  H15X 7868   1.860   5.421   9.049 -0.5863 -0.2434 -0.1100
   83SAPS  H15Y 7869   1.816   5.255   9.066 -0.3690  1.3154 -1.7240
   83SAPS  C316 7870   1.997   5.293   8.954 -0.6910  0.1631 -0.1912
   83SAPS  H16X 7871   2.025   5.186   8.959 -0.6531  0.1359 -0.8853
   83SAPS  H16Y 7872   2.083   5.363   8.962  0.6401 -1.3162 -0.9799
   83SAPS  C317 7873   1.926   5.308   8.815  0.3444  0.2815 -0.4093
   83SAPS  H17X 7874   1.904   5.415   8.798  2.5692  0.7368 -0.7531
   83SAPS  H17Y 7875   1.833   5.247   8.819 -0.5398  1.4978 -1.6409
   83SAPS  C318 7876   2.013   5.286   8.687 -0.5066  0.2778  0.6304
   83SAPS  H18X 7877   1.954   5.267   8.595  2.5737 -0.5351 -1.3328
   83SAPS  H18Y 7878   2.083   5.200   8.698  1.8566  2.0446  0.2016
   83SAPS  H18Z 7879   2.084   5.368   8.664 -0.1552 -0.1883  0.0388
   84SAPS     N 7880   4.905   5.008  10.761 -0.5188 -0.0503  0.1150
   84SAPS   HN1 7881   4.873   4.991  10.664  0.0340  1.4626 -0.3679
   84SAPS   HN2 7882   4.829   4.995  10.831 -1.0223  2.2760  0.1018
   84SAPS   HN3 7883   4.943   5.105  10.766 -0.2253 -0.1773  0.3779
   84SAPS   C12 7884   5.008   4.903  10.796  0.2408  0.2596 -0.0037
   84SAPS  H12A 7885   5.094   4.939  10.742  1.8402  3.0751  3.9182
   84SAPS   C13 7886   5.051   4.899  10.949  0.7903 -1.0495  0.3695
   84SAPS  O13A 7887   5.008   4.993  11.026 -0.0849 -0.1666  0.0096
   84SAPS  O13B 7888   5.157   4.850  10.977  0.3557 -0.3316  0.5090
   84SAPS   C11 7889   4.947   4.759  10.765  0.4385  0.5007 -0.1603
   84SAPS  H11A 7890   5.031   4.693  10.795  0.6527  1.7317  2.2640
   84SAPS  H11B 7891   4.933   4.748  10.656  1.5713 -0.8375 -0.1901
   84SAPS     P 7892   4.758   4.582  10.811  0.1921 -0.1418  0.4447
   84SAPS   O13 7893   4.863   4.501  10.743 -0.0473 -0.6307  0.0877
   84SAPS   O14 7894   4.704   4.522  10.931 -0.3521  0.4428 -0.1792
   84SAPS   O12 7895   4.827   4.726  10.842  0.8673  0.0900 -0.4240
   84SAPS   O11 7896   4.642   4.607  10.708  1.0059  0.0025  0.0939
   84SAPS    C1 7897   4.584   4.720  10.657 -0.0885  0.6756 -0.4178
   84SAPS    HA 7898   4.511   4.765  10.727 -1.0415 -0.0529 -0.9002
   84SAPS    HB 7899   4.656   4.802  10.640  1.8244 -0.2188  2.6664
   84SAPS    C2 7900   4.513   4.705  10.521 -0.5358  0.0420  0.8943
   84SAPS    HS 7901   4.496   4.813  10.502 -2.6555 -0.4600 -0.4241
   84SAPS   O21 7902   4.391   4.632  10.527 -0.1768  0.2877 -0.3598
   84SAPS   C21 7903   4.294   4.668  10.447  0.3067 -0.2015  0.4677
   84SAPS   O22 7904   4.291   4.767  10.375 -0.1301  0.0511 -0.7704
   84SAPS   C22 7905   4.181   4.565  10.472 -0.0812  0.2479  0.2835
   84SAPS   H2R 7906   4.221   4.462  10.469 -2.2695 -0.6420 -0.4579
   84SAPS   H2S 7907   4.155   4.584  10.579  0.0451  0.8877  0.2021
   84SAPS    C3 7908   4.612   4.652  10.411  0.9656 -0.5138 -0.8450
   84SAPS    HX 7909   4.630   4.545  10.435 -0.1774 -0.0489  2.6862
   84SAPS    HY 7910   4.708   4.706  10.430 -0.1941  0.9681  1.2174
   84SAPS   O31 7911   4.556   4.675  10.286  0.7597 -0.5351  0.3688
   84SAPS   C31 7912   4.586   4.804  10.231  0.0278 -0.2754 -0.0295
   84SAPS   O32 7913   4.660   4.885  10.284  0.0070  0.3499  0.3853
   84SAPS   C32 7914   4.501   4.818  10.108 -0.2945 -0.0495 -0.1220
   84SAPS   H2X 7915   4.400   4.803  10.153 -0.5243  0.9805 -0.2706
   84SAPS   H2Y 7916   4.522   4.738  10.034 -0.5603 -0.3308  0.1045
   84SAPS   C23 7917   4.067   4.582  10.378  0.3056 -0.4435 -0.3717
   84SAPS   H3R 7918   4.035   4.686  10.358  0.2274 -0.1695  1.0974
   84SAPS   H3S 7919   3.977   4.537  10.425  0.1529 -2.0118 -2.0422
   84SAPS   C24 7920   4.092   4.521  10.234 -0.4427 -0.1100  0.0434
   84SAPS   H4R 7921   3.992   4.529  10.186 -0.1212  0.0727 -0.6058
   84SAPS   H4S 7922   4.111   4.412  10.246  0.1847 -0.1481 -1.1792
   84SAPS   C25 7923   4.205   4.585  10.156  0.2807  0.3105  0.4469
   84SAPS   H5R 7924   4.304   4.564  10.201 -0.6958 -1.6373  1.8426
   84SAPS   C26 7925   4.192   4.660  10.045 -0.1772  0.1760 -0.0923
   84SAPS   H6R 7926   4.280   4.697   9.991  0.4465  0.4549  1.0826
   84SAPS   C27 7927   4.061   4.695   9.981 -0.3453 -0.3964 -0.0170
   84SAPS   H7R 7928   3.996   4.745  10.056 -0.8769 -2.0891  0.7032
   84SAPS   H7S 7929   3.996   4.606   9.970 -1.4675  0.4801 -0.7947
   84SAPS   C28 7930   4.064   4.794   9.868 -0.4770 -0.4262 -0.7408
   84SAPS   H8R 7931   4.105   4.892   9.898  0.0337 -1.4461  2.2599
   84SAPS   C29 7932   4.032   4.765   9.741  0.1072 -0.1085  0.3912
   84SAPS   H9R 7933   4.027   4.847   9.669 -0.0269  0.2280  0.7795
   84SAPS  C210 7934   3.985   4.629   9.687  0.8151 -0.8167  0.2552
   84SAPS  H10R 7935   3.996   4.550   9.764  0.6727 -1.5047 -0.4245
   84SAPS  H10S 7936   4.060   4.608   9.608  1.0258  0.6604  0.0181
   84SAPS  C211 7937   3.850   4.615   9.629  0.5264 -0.7585 -0.2899
   84SAPS  H11R 7938   3.769   4.679   9.667  0.1367 -1.0938 -0.5482
   84SAPS  C212 7939   3.820   4.519   9.541 -0.2209  0.0178 -0.1396
   84SAPS  H12R 7940   3.716   4.536   9.506 -0.1285 -3.0608 -2.3242
   84SAPS  C213 7941   3.921   4.416   9.476 -0.5708  0.3615  0.3129
   84SAPS  H13R 7942   4.011   4.399   9.539 -1.3728 -1.5461  1.0370
   84SAPS  H13S 7943   3.954   4.455   9.378  0.5606 -0.8843  0.1726
   84SAPS  C214 7944   3.851   4.284   9.453 -0.0521 -0.4645 -0.7272
   84SAPS  H14R 7945   3.870   4.211   9.533  0.4045  0.3506 -0.0664
   84SAPS  C215 7946   3.769   4.270   9.349 -0.5604  0.6324  0.1249
   84SAPS  H15R 7947   3.731   4.168   9.338  0.0627  0.1334  2.3183
   84SAPS  C216 7948   3.731   4.371   9.235 -0.8256 -0.4541 -0.3613
   84SAPS  H16R 7949   3.776   4.472   9.247 -0.0562 -0.8509  0.1262
   84SAPS  H16S 7950   3.622   4.380   9.217 -1.3969 -1.3210  2.2227
   84SAPS  C217 7951   3.794   4.314   9.104  1.0885  0.0196 -0.1822
   84SAPS  H17R 7952   3.766   4.382   9.020  2.4334  0.4825 -0.2700
   84SAPS  H17S 7953   3.746   4.219   9.073 -0.2557  0.6303 -0.0702
   84SAPS  C218 7954   3.948   4.312   9.096  0.4323  0.2807  0.6242
   84SAPS  H18R 7955   3.972   4.222   9.158 -1.4352 -0.4427  0.3692
   84SAPS  H18S 7956   3.984   4.406   9.142 -0.1916  0.5010  0.6695
   84SAPS  C219 7957   4.006   4.299   8.955  0.5372  0.5889 -0.4744
   84SAPS  H19R 7958   4.115   4.317   8.945  0.4923  0.1603 -2.0868
   84SAPS  H19S 7959   3.958   4.378   8.894  0.2902  0.6680 -0.1805
   84SAPS  C220 7960   3.996   4.157   8.895  0.6587  0.1342  0.0728
   84SAPS  H20R 7961   4.030   4.157   8.789 -0.2893  0.2046 -0.2360
   84SAPS  H20S 7962   3.889   4.129   8.892  0.4274  0.7206  1.8674
   84SAPS  H20T 7963   4.055   4.081   8.951  0.9366 -0.9397 -1.6274
   84SAPS   C33 7964   4.510   4.965  10.050 -0.5409  0.4464  0.6075
   84SAPS   H3X 7965   4.619   4.973  10.030 -0.7440 -0.1297 -0.8506
   84SAPS   H3Y 7966   4.467   5.037  10.123 -0.9331  0.5875  0.2468
   84SAPS   C34 7967   4.437   4.967   9.918 -0.3647  0.6858  0.4239
   84SAPS   H4X 7968   4.462   5.064   9.868  0.2727 -0.6514 -2.0590
   84SAPS   H4Y 7969   4.327   4.960   9.928 -0.2773 -1.2272  0.3974
   84SAPS   C35 7970   4.486   4.859   9.810 -0.2040  0.4268 -0.4529
   84SAPS   H5X 7971   4.415   4.775   9.830 -0.7524  1.3328  1.7856
   84SAPS   H5Y 7972   4.588   4.823   9.836 -1.0064 -1.5205  0.2089
   84SAPS   C36 7973   4.493   4.907   9.668  0.6827  0.1588  0.2089
   84SAPS   H6X 7974   4.544   4.825   9.614 -2.4661 -1.0918 -1.1535
   84SAPS   H6Y 7975   4.567   4.988   9.653 -0.3333  1.2322  0.8611
   84SAPS   C37 7976   4.351   4.934   9.604 -0.2437 -0.0167 -0.0699
   84SAPS   H7X 7977   4.308   5.012   9.670  2.9364  2.2095 -0.3916
   84SAPS   H7Y 7978   4.281   4.848   9.605  0.7062 -0.8083  0.8060
   84SAPS   C38 7979   4.358   5.000   9.471 -0.5600 -0.0564  0.4172
   84SAPS   H8X 7980   4.378   4.920   9.396  0.5647  0.4667  0.1315
   84SAPS   H8Y 7981   4.450   5.059   9.455 -1.4242  1.0672 -0.5944
   84SAPS   C39 7982   4.230   5.072   9.437 -0.4839 -0.3614  0.3252
   84SAPS   H9X 7983   4.241   5.166   9.495 -0.0304  0.2725 -0.7630
   84SAPS   H9Y 7984   4.139   5.019   9.474 -0.4850 -0.0236  0.8169
   84SAPS  C310 7985   4.234   5.093   9.285  0.2672 -0.0622 -0.2599
   84SAPS  H10X 7986   4.192   5.006   9.230 -0.3405  0.6745 -1.0011
   84SAPS  H10Y 7987   4.338   5.105   9.246 -0.4823  1.9993 -1.8097
   84SAPS  C311 7988   4.147   5.220   9.244  0.0533  0.0380 -0.1532
   84SAPS  H11X 7989   4.185   5.322   9.269 -1.4883  0.2320  1.6163
   84SAPS  H11Y 7990   4.044   5.205   9.282 -0.7010 -0.1672 -2.1324
   84SAPS  C312 7991   4.111   5.216   9.095 -0.6170  0.3732 -0.2699
   84SAPS  H12X 7992   4.042   5.303   9.084  1.0282  1.7832  0.0993
   84SAPS  H12Y 7993   4.042   5.129   9.086  0.3248 -0.3563 -0.5378
   84SAPS  C313 7994   4.226   5.209   8.989 -0.1424 -0.1865 -0.2433
   84SAPS  H13X 7995   4.268   5.107   9.007  1.2649  0.7465  2.2260
   84SAPS  H13Y 7996   4.296   5.289   9.019 -1.2517  1.1169 -1.0155
   84SAPS  C314 7997   4.187   5.220   8.842  0.5848 -0.6330 -0.0254
   84SAPS  H14X 7998   4.275   5.207   8.776  0.2912  2.5070 -1.2095
   84SAPS  H14Y 7999   4.144   5.321   8.830  2.7605  0.3802  0.3099
   84SAPS  C315 8000   4.070   5.128   8.801  0.0362 -0.4781  0.9060
   84SAPS  H15X 8001   3.979   5.176   8.843  0.1727  2.4668 -1.8403
   84SAPS  H15Y 8002   4.088   5.028   8.845 -1.2967 -0.7217  0.9644
   84SAPS  C316 8003   4.058   5.124   8.653  0.3282 -0.4775 -0.9933
   84SAPS  H16X 8004   4.153   5.098   8.602  0.1227  0.8785 -2.1266
   84SAPS  H16Y 8005   4.034   5.229   8.623  0.5723 -0.0000  0.4019
   84SAPS  C317 8006   3.952   5.030   8.594 -0.7345  0.2625 -0.6619
   84SAPS  H17X 8007   3.979   4.925   8.617  2.2210  1.4517  2.0778
   84SAPS  H17Y 8008   3.974   5.034   8.485  1.2196  0.1821 -0.3155
   84SAPS  C318 8009   3.809   5.076   8.620 -0.0937 -0.5305  0.1790
   84SAPS  H18X 8010   3.790   5.170   8.563 -1.0492 -0.9250 -0.1711
   84SAPS  H18Y 8011   3.792   5.090   8.729  0.4916  1.7910  0.0215
   84SAPS  H18Z 8012   3.737   5.001   8.582 -0.0868 -1.5940  2.1607
   85SAPS     N 8013   6.729   0.390  11.045 -0.1421  0.3322 -0.2679
   85SAPS   HN1 8014   6.666   0.389  10.962  0.6359 -1.4198 -0.8781
   85SAPS   HN2 8015   6.776   0.479  11.070  0.2658  0.0228  0.0941
   85SAPS   HN3 8016   6.798   0.315  11.023 -1.3691 -0.9490  0.0821
   85SAPS   C12 8017   6.655   0.347  11.170  0.2330  0.8547 -0.4848
   85SAPS  H12A 8018   6.733   0.343  11.244  0.6722 -0.8289 -0.9979
   85SAPS   C13 8019   6.561   0.455  11.223 -0.3845  1.0151 -0.2971
   85SAPS  O13A 8020   6.553   0.554  11.150  0.1218 -0.3354 -0.0667
   85SAPS  O13B 8021   6.476   0.423  11.311 -0.1527  0.3604  0.1578
   85SAPS   C11 8022   6.574   0.217  11.141  0.8621  0.1056  0.2999
   85SAPS  H11A 8023   6.492   0.257  11.078  0.9343 -0.1343  0.0491
   85SAPS  H11B 8024   6.536   0.186  11.240  2.8230 -2.8129  0.2736
   85SAPS     P 8025   6.593  -0.032  11.047 -0.4470  0.1678  0.2297
   85SAPS   O13 8026   6.670  -0.134  11.127 -0.2185  0.4711 -0.7820
   85SAPS   O14 8027   6.442  -0.024  11.058 -0.1540  0.1070  0.8017
   85SAPS   O12 8028   6.645   0.115  11.078 -0.5931  0.2811  0.2173
   85SAPS   O11 8029   6.640  -0.064  10.900  0.2032 -1.0818  0.1468
   85SAPS    C1 8030   6.646   0.049  10.806 -0.0676 -0.0570 -0.0843
   85SAPS    HA 8031   6.545   0.082  10.773 -0.7377 -2.7524 -1.0015
   85SAPS    HB 8032   6.700   0.138  10.844  1.7560 -0.2723 -1.9920
   85SAPS    C2 8033   6.718   0.008  10.671 -0.2808  0.0531  0.5003
   85SAPS    HS 8034   6.735   0.107  10.624 -1.1559 -0.1099 -0.2004
   85SAPS   O21 8035   6.646  -0.079  10.591  0.3660  0.2437  0.0291
   85SAPS   C21 8036   6.568  -0.025  10.495 -0.2044  0.1218 -0.6677
   85SAPS   O22 8037   6.520   0.087  10.501  0.4302 -0.1190 -0.1021
   85SAPS   C22 8038   6.568  -0.124  10.377 -0.1167 -0.3099 -0.6253
   85SAPS   H2R 8039   6.520  -0.072  10.291  0.0759 -0.1723 -0.6513
   85SAPS   H2S 8040   6.675  -0.135  10.349  0.1955 -1.4044  0.9089
   85SAPS    C3 8041   6.858  -0.049  10.695 -0.1038 -0.3122  0.6609
   85SAPS    HX 8042   6.843  -0.107  10.789 -1.1818 -2.5244 -0.8078
   85SAPS    HY 8043   6.935   0.030  10.712  0.5074 -0.9964  1.1301
   85SAPS   O31 8044   6.899  -0.135  10.591 -0.5746  0.2046  0.0085
   85SAPS   C31 8045   6.940  -0.084  10.477  0.4839 -0.5145  0.7655
   85SAPS   O32 8046   6.926   0.031  10.443 -0.4893  0.3880 -0.6687
   85SAPS   C32 8047   7.006  -0.185  10.388 -0.3820  0.3215  0.5891
   85SAPS   H2X 8048   6.998  -0.283  10.442  2.1720 -0.2868 -0.0281
   85SAPS   H2Y 8049   7.114  -0.164  10.378 -0.5917  0.1752 -3.0845
   85SAPS   C23 8050   6.512  -0.266  10.392 -1.5644 -0.7349  0.0910
   85SAPS   H3R 8051   6.420  -0.256  10.455 -3.2046 -2.2806 -1.9162
   85SAPS   H3S 8052   6.591  -0.325  10.443 -1.2503  0.0422  0.5222
   85SAPS   C24 8053   6.472  -0.326  10.255  0.7051 -0.1804  0.2378
   85SAPS   H4R 8054   6.399  -0.253  10.215 -1.5122 -1.1396  2.2760
   85SAPS   H4S 8055   6.411  -0.416  10.278  0.3862 -0.1322 -0.4169
   85SAPS   C25 8056   6.581  -0.359  10.158 -0.5517  0.0268 -0.1414
   85SAPS   H5R 8057   6.630  -0.457  10.173  2.2244  1.5366  1.4762
   85SAPS   C26 8058   6.629  -0.289  10.055  0.2897  0.2132  0.7674
   85SAPS   H6R 8059   6.704  -0.343   9.996 -0.2126 -1.3233  1.4640
   85SAPS   C27 8060   6.580  -0.154  10.008 -0.8270 -0.2426  0.4542
   85SAPS   H7R 8061   6.508  -0.100  10.074 -0.8836  1.7546 -1.1538
   85SAPS   H7S 8062   6.530  -0.168   9.910 -0.3877  3.6197 -0.5017
   85SAPS   C28 8063   6.708  -0.070   9.994 -0.6249 -0.2307  0.9071
   85SAPS   H8R 8064   6.754  -0.033  10.087  1.5554  0.4917 -0.3967
   85SAPS   C29 8065   6.766  -0.022   9.877 -0.0943  0.1235  0.1103
   85SAPS   H9R 8066   6.857   0.039   9.889  0.7826 -1.4606  2.2011
   85SAPS  C210 8067   6.730  -0.048   9.734  0.4794  0.4320 -0.0734
   85SAPS  H10R 8068   6.653  -0.128   9.732  0.0293  0.8838 -1.0139
   85SAPS  H10S 8069   6.821  -0.090   9.685  1.2948  2.5867 -0.4977
   85SAPS  C211 8070   6.693   0.081   9.667  0.0520  0.4125  0.8588
   85SAPS  H11R 8071   6.651   0.162   9.728 -1.2698  0.8133 -0.5260
   85SAPS  C212 8072   6.676   0.097   9.531 -0.0140  0.3450  0.0798
   85SAPS  H12R 8073   6.633   0.193   9.498  1.5699  0.5540 -1.5501
   85SAPS  C213 8074   6.695  -0.004   9.419 -0.4477  0.0608  0.0770
   85SAPS  H13R 8075   6.740  -0.099   9.455  0.6580  0.5534  0.0152
   85SAPS  H13S 8076   6.758   0.033   9.336  0.2595 -0.7076  0.2550
   85SAPS  C214 8077   6.561  -0.036   9.356 -0.5831  0.2590  0.4554
   85SAPS  H14R 8078   6.500  -0.119   9.396 -0.5962 -0.6452 -1.3128
   85SAPS  C215 8079   6.512   0.006   9.232 -0.7114 -0.3976 -0.6438
   85SAPS  H15R 8080   6.418  -0.035   9.193 -0.3078 -0.6315 -1.3873
   85SAPS  C216 8081   6.572   0.105   9.142  0.4046 -1.0817  0.7717
   85SAPS  H16R 8082   6.674   0.133   9.177  1.2186 -1.4580 -1.1415
   85SAPS  H16S 8083   6.519   0.202   9.142  2.4250  0.0803  1.8068
   85SAPS  C217 8084   6.568   0.065   8.994  0.0039 -0.1257 -0.3285
   85SAPS  H17R 8085   6.609   0.147   8.931 -3.8839  1.2983 -1.2541
   85SAPS  H17S 8086   6.463   0.054   8.960 -0.1992 -0.0239  0.2478
   85SAPS  C218 8087   6.649  -0.065   8.957  0.2598 -0.0528 -0.3919
   85SAPS  H18R 8088   6.706  -0.108   9.042 -0.0309 -1.5404 -0.9232
   85SAPS  H18S 8089   6.729  -0.051   8.881  0.7474  1.0370  0.3089
   85SAPS  C219 8090   6.564  -0.179   8.913  0.3990  0.0526  0.0846
   85SAPS  H19R 8091   6.500  -0.156   8.825  0.3727  0.8549  0.3014
   85SAPS  H19S 8092   6.487  -0.201   8.990  0.5582 -0.0045  0.2270
   85SAPS  C220 8093   6.638  -0.310   8.882 -0.1500 -1.3942  0.7886
   85SAPS  H20R 8094   6.713  -0.340   8.958  0.8191 -0.4093  0.2503
   85SAPS  H20S 8095   6.687  -0.307   8.782 -3.6420  0.2376 -1.0669
   85SAPS  H20T 8096   6.564  -0.392   8.873 -0.4982 -0.8418 -2.4710
   85SAPS   C33 8097   6.940  -0.197  10.252  0.1430  0.4468  1.1115
   85SAPS   H3X 8098   6.924  -0.094  10.212 -0.4968  0.3628  1.1364
   85SAPS   H3Y 8099   6.841  -0.245  10.264 -0.0745  0.0145 -1.7520
   85SAPS   C34 8100   7.018  -0.283  10.156  0.2128 -0.3303 -0.1216
   85SAPS   H4X 8101   6.952  -0.316  10.073  0.1692  0.6300 -0.4834
   85SAPS   H4Y 8102   7.050  -0.375  10.208  0.4389 -1.4355 -2.1394
   85SAPS   C35 8103   7.135  -0.209  10.088  0.6883  0.1893 -0.2858
   85SAPS   H5X 8104   7.221  -0.217  10.158  1.0133 -1.2871 -0.8089
   85SAPS   H5Y 8105   7.106  -0.102  10.083 -1.0303 -0.1498  1.3350
   85SAPS   C36 8106   7.174  -0.267   9.949 -0.0621 -0.3265 -0.2598
   85SAPS   H6X 8107   7.147  -0.375   9.947 -0.9273 -0.1037 -1.3720
   85SAPS   H6Y 8108   7.283  -0.250   9.935  0.4382 -2.4639  0.6589
   85SAPS   C37 8109   7.099  -0.197   9.829 -0.2732 -0.1509 -0.0441
   85SAPS   H7X 8110   7.119  -0.089   9.840 -0.4721 -0.1555  0.3891
   85SAPS   H7Y 8111   6.991  -0.222   9.832 -0.5859  1.1330 -0.0657
   85SAPS   C38 8112   7.165  -0.249   9.707 -0.0018 -0.3098  0.0304
   85SAPS   H8X 8113   7.154  -0.359   9.705  0.4239 -0.4006  1.5095
   85SAPS   H8Y 8114   7.273  -0.228   9.726 -0.2544  1.6497 -0.4746
   85SAPS   C39 8115   7.117  -0.196   9.573  0.2758 -0.2059 -0.2853
   85SAPS   H9X 8116   7.012  -0.228   9.555 -0.3530  1.7322 -0.3507
   85SAPS   H9Y 8117   7.174  -0.244   9.491 -2.0373 -1.6605 -1.1376
   85SAPS  C310 8118   7.115  -0.042   9.552  0.3605 -0.4893  0.0852
   85SAPS  H10X 8119   7.208   0.003   9.592 -0.3019  1.6166 -0.6521
   85SAPS  H10Y 8120   7.037  -0.004   9.621 -0.1143  1.1697 -1.3247
   85SAPS  C311 8121   7.074   0.000   9.404  0.0867  0.0528 -0.6842
   85SAPS  H11X 8122   6.966  -0.014   9.388  0.4486 -1.1631 -2.2712
   85SAPS  H11Y 8123   7.134  -0.064   9.335  1.3023  0.3936  0.0124
   85SAPS  C312 8124   7.102   0.154   9.375  0.2351 -0.2012 -0.3963
   85SAPS  H12X 8125   7.205   0.188   9.397 -0.2147  0.7178  0.3583
   85SAPS  H12Y 8126   7.047   0.197   9.462  2.5070  0.4631  0.7840
   85SAPS  C313 8127   7.056   0.194   9.232 -0.5325  0.1725  0.0242
   85SAPS  H13X 8128   7.022   0.298   9.218  1.4831  0.6121 -2.2537
   85SAPS  H13Y 8129   6.974   0.120   9.217  0.2197 -0.6892  0.0442
   85SAPS  C314 8130   7.166   0.165   9.136 -0.0041  1.0100 -0.2674
   85SAPS  H14X 8131   7.206   0.065   9.164  0.2200  0.9873 -0.6617
   85SAPS  H14Y 8132   7.254   0.233   9.131 -0.6607  1.8977 -0.0144
   85SAPS  C315 8133   7.115   0.139   8.992 -0.1638 -0.2152  0.3860
   85SAPS  H15X 8134   7.035   0.212   8.966 -0.1547 -0.2752  0.1876
   85SAPS  H15Y 8135   7.063   0.042   8.976  0.9023 -0.4784 -1.9542
   85SAPS  C316 8136   7.224   0.137   8.886  0.2069  0.2221 -0.7531
   85SAPS  H16X 8137   7.318   0.081   8.910 -0.5418 -0.1428  1.6302
   85SAPS  H16Y 8138   7.253   0.244   8.885  2.5794 -0.3332 -3.0324
   85SAPS  C317 8139   7.172   0.092   8.746  0.7494  0.0879  0.0961
   85SAPS  H17X 8140   7.078   0.146   8.721  0.3115 -1.0382 -0.7794
   85SAPS  H17Y 8141   7.144  -0.015   8.756  1.1315 -0.0518 -0.2627
   85SAPS  C318 8142   7.271   0.124   8.639 -0.5480 -0.5404  0.3575
   85SAPS  H18X 8143   7.364   0.063   8.655  0.2436  0.3573 -0.7018
   85SAPS  H18Y 8144   7.309   0.228   8.643 -2.2323  0.2139 -1.5405
   85SAPS  H18Z 8145   7.231   0.102   8.538 -1.3544  0.3754  0.4688
   86SAPS     N 8146   2.665   0.082  11.270  0.3680  0.1991 -0.4647
   86SAPS   HN1 8147   2.699   0.133  11.354  0.2115 -1.8108  0.8877
   86SAPS   HN2 8148   2.710   0.121  11.185  3.1723 -0.9762  0.3618
   86SAPS   HN3 8149   2.565   0.111  11.263  0.5587  1.3371  1.0627
   86SAPS   C12 8150   2.699  -0.058  11.310  0.0815  0.3113 -0.2359
   86SAPS  H12A 8151   2.805  -0.061  11.332  0.2724  0.5793 -1.0923
   86SAPS   C13 8152   2.609  -0.107  11.432 -0.2560 -0.4791  0.2036
   86SAPS  O13A 8153   2.517  -0.030  11.468  0.6737  0.5276 -0.1042
   86SAPS  O13B 8154   2.641  -0.217  11.478 -0.0630  0.5881  0.0789
   86SAPS   C11 8155   2.650  -0.147  11.193 -0.2567  1.0467  0.2371
   86SAPS  H11A 8156   2.541  -0.130  11.176 -1.2314 -1.1697  3.5041
   86SAPS  H11B 8157   2.658  -0.255  11.215  0.2138  0.8784 -0.7043
   86SAPS     P 8158   2.738  -0.213  10.955 -0.3581  0.0020 -0.0560
   86SAPS   O13 8159   2.838  -0.149  10.865  0.4277  0.5296  0.1135
   86SAPS   O14 8160   2.776  -0.337  11.029 -0.1062  0.2011 -0.2147
   86SAPS   O12 8161   2.714  -0.105  11.067 -0.8075  0.2084  0.0882
   86SAPS   O11 8162   2.598  -0.220  10.892  0.1222 -0.0056 -0.8093
   86SAPS    C1 8163   2.519  -0.121  10.834 -0.3463 -0.3859 -0.3095
   86SAPS    HA 8164   2.419  -0.121  10.882 -0.0241  1.7136  0.4817
   86SAPS    HB 8165   2.568  -0.022  10.846  2.0191 -1.6300  1.1187
   86SAPS    C2 8166   2.507  -0.143  10.681  0.7510 -0.6586  0.0785
   86SAPS    HS 8167   2.455  -0.241  10.673 -0.7097  0.1966 -1.2835
   86SAPS   O21 8168   2.637  -0.128  10.616  0.2623  0.0408 -0.1742
   86SAPS   C21 8169   2.686  -0.248  10.586  0.8179 -0.3051 -0.2599
   86SAPS   O22 8170   2.640  -0.350  10.632  0.0583 -0.5170 -0.0474
   86SAPS   C22 8171   2.794  -0.239  10.478  0.3938  1.0099 -0.6491
   86SAPS   H2R 8172   2.803  -0.133  10.447  0.1824  0.7811 -1.5172
   86SAPS   H2S 8173   2.888  -0.277  10.524  0.2477 -0.1263 -1.2486
   86SAPS    C3 8174   2.399  -0.053  10.610  0.0987  0.1598 -0.1666
   86SAPS    HX 8175   2.438   0.051  10.619 -0.4210  0.6200 -2.5588
   86SAPS    HY 8176   2.302  -0.059  10.665  0.8796 -2.2892  1.0815
   86SAPS   O31 8177   2.380  -0.087  10.470  0.6398 -1.0310 -0.2481
   86SAPS   C31 8178   2.323   0.012  10.401  0.4253  0.3632 -1.1200
   86SAPS   O32 8179   2.290   0.122  10.445 -0.8059 -0.0817  0.0254
   86SAPS   C32 8180   2.321  -0.043  10.258 -0.0376 -0.7140 -0.3647
   86SAPS   H2X 8181   2.252  -0.130  10.269  0.7553 -1.4798 -1.3410
   86SAPS   H2Y 8182   2.425  -0.075  10.236  0.0898 -0.0778 -0.6916
   86SAPS   C23 8183   2.753  -0.322  10.356  0.0130 -0.0764  0.6889
   86SAPS   H3R 8184   2.743  -0.431  10.375  0.3434 -0.3140 -0.4044
   86SAPS   H3S 8185   2.829  -0.303  10.277 -0.6596  2.1638  0.5323
   86SAPS   C24 8186   2.625  -0.266  10.293 -0.6141 -0.2593  1.1021
   86SAPS   H4R 8187   2.639  -0.157  10.276  0.9100 -0.3947  1.3252
   86SAPS   H4S 8188   2.545  -0.262  10.370 -2.7389 -0.8119 -0.9745
   86SAPS   C25 8189   2.595  -0.355  10.176 -0.4937  0.4648 -0.3479
   86SAPS   H5R 8190   2.604  -0.461  10.203 -0.6385  0.1493 -1.4853
   86SAPS   C26 8191   2.577  -0.324  10.052 -0.9682 -0.0903  0.5582
   86SAPS   H6R 8192   2.564  -0.405   9.979  3.3458  1.2221 -2.0105
   86SAPS   C27 8193   2.575  -0.187   9.989  0.0811  0.0574 -0.1667
   86SAPS   H7R 8194   2.541  -0.101  10.050 -1.2893 -0.5413 -0.0361
   86SAPS   H7S 8195   2.500  -0.196   9.908  2.4209 -0.4478 -2.3955
   86SAPS   C28 8196   2.714  -0.151   9.942 -0.6477  0.2254  0.0390
   86SAPS   H8R 8197   2.805  -0.193   9.987 -0.1266  0.3522 -0.8630
   86SAPS   C29 8198   2.729  -0.052   9.854 -0.1556 -0.5088  0.1260
   86SAPS   H9R 8199   2.834  -0.028   9.834 -0.9694  1.1384 -2.6772
   86SAPS  C210 8200   2.631   0.034   9.784 -0.1079  0.3553 -0.0437
   86SAPS  H10R 8201   2.524   0.007   9.800 -0.6526  2.0101 -0.6740
   86SAPS  H10S 8202   2.651   0.022   9.676  1.9395 -0.9634  0.4345
   86SAPS  C211 8203   2.658   0.177   9.828 -0.0503  0.4036  0.2997
   86SAPS  H11R 8204   2.680   0.204   9.932  1.3414  2.1504 -0.3803
   86SAPS  C212 8205   2.639   0.285   9.751  0.3281 -0.5237  0.1636
   86SAPS  H12R 8206   2.653   0.383   9.800 -2.8537 -0.4755  1.1486
   86SAPS  C213 8207   2.570   0.296   9.613 -0.1149  0.9904 -0.8036
   86SAPS  H13R 8208   2.505   0.386   9.608 -0.3513  0.7844 -1.5570
   86SAPS  H13S 8209   2.517   0.201   9.593  2.1321 -0.2638 -1.0906
   86SAPS  C214 8210   2.686   0.303   9.517 -0.2659  0.2167 -0.2645
   86SAPS  H14R 8211   2.781   0.351   9.544  1.2971 -1.5935 -2.2171
   86SAPS  C215 8212   2.690   0.248   9.389 -0.1087 -0.3452 -0.1195
   86SAPS  H15R 8213   2.783   0.278   9.337 -0.4199  1.7142  0.4215
   86SAPS  C216 8214   2.598   0.169   9.300  0.4534  0.7982  0.2002
   86SAPS  H16R 8215   2.535   0.245   9.250  2.2451  0.7208 -2.3625
   86SAPS  H16S 8216   2.539   0.094   9.356  1.8805  0.0411  0.7588
   86SAPS  C217 8217   2.683   0.098   9.194 -0.2188  1.0343 -0.0863
   86SAPS  H17R 8218   2.739   0.171   9.132  0.7028  0.9644  0.6473
   86SAPS  H17S 8219   2.610   0.042   9.132 -0.4673  1.5125 -0.2362
   86SAPS  C218 8220   2.794   0.002   9.246  0.2579 -0.1839 -0.7911
   86SAPS  H18R 8221   2.747  -0.072   9.315  1.6798  0.0820  0.5168
   86SAPS  H18S 8222   2.874   0.050   9.307 -0.4650 -2.1084  1.8786
   86SAPS  C219 8223   2.846  -0.085   9.128  0.0052 -0.3318 -0.1938
   86SAPS  H19R 8224   2.880  -0.021   9.044  0.2166  1.6213  1.2903
   86SAPS  H19S 8225   2.773  -0.166   9.107  2.4725 -2.7088 -0.1599
   86SAPS  C220 8226   2.974  -0.161   9.176 -0.6729  0.1769  0.3837
   86SAPS  H20R 8227   3.067  -0.106   9.201 -0.0300 -1.7455  2.6239
   86SAPS  H20S 8228   2.994  -0.239   9.099 -0.4086  0.9974 -0.3914
   86SAPS  H20T 8229   2.949  -0.221   9.266  0.8073 -1.3189 -0.1465
   86SAPS   C33 8230   2.278   0.062  10.153 -0.1873 -0.4089  0.0055
   86SAPS   H3X 8231   2.363   0.133  10.137 -0.8475  0.9524  2.1048
   86SAPS   H3Y 8232   2.191   0.109  10.203 -0.8306 -3.1893  1.6811
   86SAPS   C34 8233   2.235  -0.017  10.032  0.4779 -0.5103  0.3259
   86SAPS   H4X 8234   2.136  -0.068  10.041  0.4483 -0.6260 -0.5289
   86SAPS   H4Y 8235   2.312  -0.091  10.001  0.6631 -0.0580 -0.3070
   86SAPS   C35 8236   2.218   0.068   9.906 -0.5872 -0.1840  0.5022
   86SAPS   H5X 8237   2.298   0.146   9.904 -1.7211  1.0696  1.7716
   86SAPS   H5Y 8238   2.124   0.125   9.917 -0.9844 -1.0993  2.2162
   86SAPS   C36 8239   2.235  -0.015   9.778  0.2998 -0.7409  0.5353
   86SAPS   H6X 8240   2.161  -0.097   9.767  0.5722 -0.9609  0.3483
   86SAPS   H6Y 8241   2.334  -0.065   9.785  2.4150  3.0257  0.2502
   86SAPS   C37 8242   2.234   0.065   9.651 -0.7814  0.1780  0.1098
   86SAPS   H7X 8243   2.311   0.143   9.670  0.2592 -1.4321  3.0935
   86SAPS   H7Y 8244   2.134   0.110   9.636 -1.1253 -0.9511 -1.2109
   86SAPS   C38 8245   2.257  -0.026   9.528 -0.2868 -0.0045  0.2869
   86SAPS   H8X 8246   2.181  -0.108   9.531  0.1325 -0.3809  0.7992
   86SAPS   H8Y 8247   2.361  -0.063   9.522  0.7733  2.7021  0.8510
   86SAPS   C39 8248   2.248   0.062   9.397 -0.0598  0.4068  0.0094
   86SAPS   H9X 8249   2.324   0.142   9.404 -0.9707  1.1671  2.3447
   86SAPS   H9Y 8250   2.142   0.098   9.397  0.1009  1.0251  2.2769
   86SAPS  C310 8251   2.270  -0.020   9.267  0.4827  0.0684  0.4471
   86SAPS  H10X 8252   2.207  -0.111   9.274 -0.2160  0.4742 -0.4275
   86SAPS  H10Y 8253   2.376  -0.049   9.256  1.3823  2.8151  1.1721
   86SAPS  C311 8254   2.222   0.052   9.133 -0.0871 -0.2150  0.6572
   86SAPS  H11X 8255   2.281   0.146   9.137 -0.3365 -0.0987  1.8269
   86SAPS  H11Y 8256   2.111   0.056   9.128 -0.1925 -2.3517  0.3572
   86SAPS  C312 8257   2.269  -0.012   9.007 -0.9778  0.2985  0.4997
   86SAPS  H12X 8258   2.379   0.002   9.014 -1.0415  1.8423 -1.0004
   86SAPS  H12Y 8259   2.240   0.032   8.909  0.7349 -1.2900 -0.7980
   86SAPS  C313 8260   2.248  -0.163   8.991 -0.5455 -0.2244  0.2246
   86SAPS  H13X 8261   2.139  -0.185   9.000 -0.6556  0.4774  0.6861
   86SAPS  H13Y 8262   2.308  -0.221   9.064  2.2033  0.8126 -1.0534
   86SAPS  C314 8263   2.298  -0.198   8.849 -0.5439  0.0191  0.0373
   86SAPS  H14X 8264   2.389  -0.135   8.842 -0.5142 -0.0615 -0.3049
   86SAPS  H14Y 8265   2.222  -0.158   8.779 -1.2368  1.5033  1.5601
   86SAPS  C315 8266   2.331  -0.349   8.839 -0.0984  0.0983  0.2568
   86SAPS  H15X 8267   2.234  -0.404   8.839 -0.8623  1.3786  1.6323
   86SAPS  H15Y 8268   2.388  -0.382   8.928  1.4536  0.7158 -0.4744
   86SAPS  C316 8269   2.423  -0.374   8.719  0.2655 -0.7181  0.2803
   86SAPS  H16X 8270   2.432  -0.479   8.683 -0.8171 -0.0443 -2.1917
   86SAPS  H16Y 8271   2.525  -0.349   8.755  0.2576 -2.1364  1.3910
   86SAPS  C317 8272   2.380  -0.288   8.594  0.0300 -0.1442  0.2897
   86SAPS  H17X 8273   2.399  -0.180   8.609 -1.6919  0.2247  0.0081
   86SAPS  H17Y 8274   2.269  -0.293   8.593  0.0409 -0.5555  0.7880
   86SAPS  C318 8275   2.450  -0.344   8.464  0.0555 -0.3724  0.4896
   86SAPS  H18X 8276   2.408  -0.442   8.434 -3.3414  1.0168  0.2841
   86SAPS  H18Y 8277   2.560  -0.351   8.478  0.1140  0.7704  0.7017
   86SAPS  H18Z 8278   2.438  -0.283   8.372  1.0673  0.7646  1.0793
   87SAPS     N 8279   2.923   0.116  10.937  0.2997  0.2192 -0.3536
   87SAPS   HN1 8280   2.994   0.119  11.012 -0.1899 -1.1398  0.1994
   87SAPS   HN2 8281   2.826   0.145  10.959  1.0629  3.9497 -1.2567
   87SAPS   HN3 8282   2.922   0.014  10.915  1.6036  0.3597 -1.1461
   87SAPS   C12 8283   2.971   0.166  10.811 -0.6817  0.3042  0.4105
   87SAPS  H12A 8284   2.994   0.271  10.805 -2.0375  0.5478 -2.0115
   87SAPS   C13 8285   3.096   0.085  10.753 -0.3982  0.4428  0.0368
   87SAPS  O13A 8286   3.166   0.007  10.827  0.3166 -0.0275  0.3576
   87SAPS  O13B 8287   3.141   0.121  10.643  0.3707 -0.0406 -0.5427
   87SAPS   C11 8288   2.858   0.152  10.702  0.3607 -0.0899  0.1014
   87SAPS  H11A 8289   2.835   0.046  10.679  0.6788  0.6160 -4.2533
   87SAPS  H11B 8290   2.906   0.183  10.607 -0.5684  2.0793  0.2745
   87SAPS     P 8291   2.707   0.365  10.662 -0.1357 -0.1703  0.0699
   87SAPS   O13 8292   2.564   0.381  10.683 -0.0440 -0.1477 -0.7154
   87SAPS   O14 8293   2.798   0.472  10.699 -0.1620  0.0852  0.2991
   87SAPS   O12 8294   2.752   0.238  10.744  0.5831  0.0390  0.7835
   87SAPS   O11 8295   2.728   0.333  10.512 -0.2750 -0.0379 -0.2652
   87SAPS    C1 8296   2.665   0.229  10.441  0.3111  0.3417 -0.5357
   87SAPS    HA 8297   2.712   0.130  10.456 -1.2144 -0.7105 -2.2372
   87SAPS    HB 8298   2.557   0.220  10.466  0.4148  0.5275 -0.0001
   87SAPS    C2 8299   2.680   0.260  10.291  0.0476  0.8965 -0.0374
   87SAPS    HS 8300   2.623   0.180  10.239  0.9557 -1.4089  2.2882
   87SAPS   O21 8301   2.814   0.262  10.242  0.3162  0.5568  0.1713
   87SAPS   C21 8302   2.878   0.143  10.252 -0.1077  0.2817  1.2605
   87SAPS   O22 8303   2.822   0.036  10.258 -0.2836 -1.0054 -0.2208
   87SAPS   C22 8304   3.028   0.175  10.225 -0.4536  0.4233 -0.1375
   87SAPS   H2R 8305   3.066   0.219  10.320 -1.0144  2.2124 -0.6937
   87SAPS   H2S 8306   3.089   0.082  10.224  0.8607  1.2186  1.1919
   87SAPS    C3 8307   2.615   0.396  10.248 -0.9892 -0.3679  0.2914
   87SAPS    HX 8308   2.627   0.413  10.139  1.4792 -1.4054  0.3309
   87SAPS    HY 8309   2.678   0.478  10.289  2.3369 -2.3605 -0.5123
   87SAPS   O31 8310   2.477   0.398  10.285 -0.1011 -0.0848 -1.2973
   87SAPS   C31 8311   2.402   0.502  10.248  0.7091  0.1408 -0.1979
   87SAPS   O32 8312   2.456   0.602  10.199  0.4881  0.3049 -0.1751
   87SAPS   C32 8313   2.258   0.471  10.276  0.0176 -0.2878  0.4936
   87SAPS   H2X 8314   2.258   0.497  10.384  0.0610  0.7576  0.2523
   87SAPS   H2Y 8315   2.234   0.364  10.262 -0.0471 -0.2555  0.3609
   87SAPS   C23 8316   3.060   0.276  10.113 -0.5322  0.1848  0.2828
   87SAPS   H3R 8317   3.154   0.328  10.144 -1.6154  1.3581  1.7738
   87SAPS   H3S 8318   2.984   0.357  10.108 -0.9239 -0.1769  0.2791
   87SAPS   C24 8319   3.073   0.212   9.974  0.1622  0.2180  0.1854
   87SAPS   H4R 8320   3.078   0.290   9.895  0.1966 -1.6737 -1.7836
   87SAPS   H4S 8321   2.979   0.159   9.948  1.0290 -1.9420  1.1253
   87SAPS   C25 8322   3.192   0.123   9.962 -0.4208  0.4720 -0.1712
   87SAPS   H5R 8323   3.207   0.047  10.040  2.0850  3.3028  2.3741
   87SAPS   C26 8324   3.286   0.131   9.868 -0.7217  0.3163  0.6861
   87SAPS   H6R 8325   3.369   0.063   9.890 -1.3829  0.4052  3.9649
   87SAPS   C27 8326   3.306   0.227   9.755 -0.1007 -0.5795  0.3220
   87SAPS   H7R 8327   3.300   0.330   9.798 -0.4328 -0.7906  0.7848
   87SAPS   H7S 8328   3.224   0.207   9.684 -1.7041 -1.9016  2.4285
   87SAPS   C28 8329   3.446   0.231   9.698  0.4123 -0.7544 -0.2521
   87SAPS   H8R 8330   3.529   0.239   9.770  0.3006 -2.3776  0.0997
   87SAPS   C29 8331   3.485   0.216   9.568  0.8602 -0.7098 -0.9341
   87SAPS   H9R 8332   3.592   0.215   9.544  0.9116  2.4033 -1.1265
   87SAPS  C210 8333   3.399   0.185   9.455  0.6409 -0.0035  0.4041
   87SAPS  H10R 8334   3.451   0.223   9.365  0.6819  0.3569  0.5792
   87SAPS  H10S 8335   3.309   0.249   9.461  1.1382  0.6126  1.5998
   87SAPS  C211 8336   3.347   0.044   9.436 -0.4380 -0.6008 -0.3195
   87SAPS  H11R 8337   3.347  -0.021   9.525  1.9096  0.3079  0.4499
   87SAPS  C212 8338   3.308  -0.007   9.319  0.1291 -0.3426  0.5158
   87SAPS  H12R 8339   3.284  -0.113   9.300 -0.6146 -0.2207  0.7713
   87SAPS  C213 8340   3.289   0.071   9.189  0.1264  0.4786 -0.0016
   87SAPS  H13R 8341   3.328   0.174   9.203  1.9975 -0.5452  3.5383
   87SAPS  H13S 8342   3.180   0.074   9.168 -0.0438  0.1108  0.8029
   87SAPS  C214 8343   3.365   0.017   9.075  0.6956 -0.0880 -0.0170
   87SAPS  H14R 8344   3.472  -0.009   9.086 -0.1597 -3.1982  2.1004
   87SAPS  C215 8345   3.308   0.000   8.952 -0.6629  0.3940  0.2214
   87SAPS  H15R 8346   3.369  -0.043   8.871  1.4206 -0.1488  1.9676
   87SAPS  C216 8347   3.167   0.028   8.905  0.0035 -0.6104  0.2315
   87SAPS  H16R 8348   3.152   0.135   8.881  2.3211 -0.4944 -0.9064
   87SAPS  H16S 8349   3.090   0.006   8.982 -2.3872  0.3421 -1.7607
   87SAPS  C217 8350   3.123  -0.046   8.769  0.6125  0.0262 -0.6497
   87SAPS  H17R 8351   3.176  -0.143   8.771  2.5461  1.0364  1.3530
   87SAPS  H17S 8352   3.156   0.009   8.678 -0.3357  1.3390 -0.2361
   87SAPS  C218 8353   2.974  -0.077   8.763 -0.1516  0.5683 -0.1622
   87SAPS  H18R 8354   2.917   0.017   8.781 -1.3213 -0.4389  1.7035
   87SAPS  H18S 8355   2.946  -0.150   8.842 -3.8868  1.5782 -0.3833
   87SAPS  C219 8356   2.912  -0.144   8.632  0.4972 -0.0043  0.2099
   87SAPS  H19R 8357   2.985  -0.208   8.580  1.2118  2.0972 -1.5016
   87SAPS  H19S 8358   2.884  -0.065   8.559 -1.7804 -1.7683 -0.9897
   87SAPS  C220 8359   2.791  -0.224   8.673 -0.2585 -0.4684  0.1728
   87SAPS  H20R 8360   2.766  -0.298   8.594 -1.0905 -0.1517  0.1380
   87SAPS  H20S 8361   2.705  -0.155   8.689  1.1065  1.1171  1.0174
   87SAPS  H20T 8362   2.795  -0.265   8.777 -0.0916 -0.8921  0.0001
   87SAPS   C33 8363   2.164   0.563  10.208 -0.1372  0.9722 -0.4118
   87SAPS   H3X 8364   2.193   0.668  10.228 -0.2903  1.1822 -1.2571
   87SAPS   H3Y 8365   2.059   0.545  10.241 -0.0606 -0.8006 -1.0175
   87SAPS   C34 8366   2.159   0.544  10.055 -0.3963 -0.3937 -0.5036
   87SAPS   H4X 8367   2.263   0.563  10.022  0.4336 -0.1662  2.0286
   87SAPS   H4Y 8368   2.101   0.630  10.014  0.8782  1.3086  1.1067
   87SAPS   C35 8369   2.109   0.410  10.003  0.3239 -0.6328  0.6257
   87SAPS   H5X 8370   2.021   0.379  10.064 -0.6833 -0.7901 -0.8370
   87SAPS   H5Y 8371   2.190   0.334  10.007  2.2603  0.9612 -3.2961
   87SAPS   C36 8372   2.057   0.413   9.853 -0.5217  0.2287 -0.2436
   87SAPS   H6X 8373   1.971   0.483   9.861 -2.4687 -2.2295  2.2685
   87SAPS   H6Y 8374   2.014   0.311   9.846 -0.8264  0.2526  1.1268
   87SAPS   C37 8375   2.168   0.448   9.765  0.1924  0.1029  0.3890
   87SAPS   H7X 8376   2.248   0.373   9.783 -0.5213 -0.7982 -0.1289
   87SAPS   H7Y 8377   2.210   0.548   9.790  1.9863 -0.2026 -1.1859
   87SAPS   C38 8378   2.116   0.434   9.621 -0.1666  0.5245  0.1937
   87SAPS   H8X 8379   2.047   0.521   9.616  0.0309  0.6253 -1.6140
   87SAPS   H8Y 8380   2.066   0.337   9.603  1.3359 -0.3595  0.5998
   87SAPS   C39 8381   2.222   0.453   9.509  0.0672 -0.1522 -0.0826
   87SAPS   H9X 8382   2.296   0.371   9.525  0.4667  0.5546  1.8836
   87SAPS   H9Y 8383   2.269   0.552   9.495  1.7129 -0.9014 -0.0751
   87SAPS  C310 8384   2.158   0.435   9.372 -0.3991  0.0341  0.7591
   87SAPS  H10X 8385   2.077   0.509   9.358 -0.9443 -0.8093 -0.8099
   87SAPS  H10Y 8386   2.108   0.335   9.374  2.6826 -1.6813 -0.7385
   87SAPS  C311 8387   2.260   0.441   9.251  0.2659  0.5804  0.4951
   87SAPS  H11X 8388   2.346   0.375   9.272 -0.4381 -0.3009  0.6853
   87SAPS  H11Y 8389   2.299   0.545   9.254  0.1327  0.6529 -0.1781
   87SAPS  C312 8390   2.199   0.416   9.116  0.0084  0.0325  0.4778
   87SAPS  H12X 8391   2.113   0.484   9.100 -0.1596 -0.3438 -0.2756
   87SAPS  H12Y 8392   2.143   0.320   9.112 -0.8723  0.5627 -0.4954
   87SAPS  C313 8393   2.295   0.440   8.996 -0.1898  0.2103 -0.3471
   87SAPS  H13X 8394   2.376   0.369   9.021  0.6745  1.3164  0.0838
   87SAPS  H13Y 8395   2.331   0.545   9.010  1.2689 -0.2941 -0.1616
   87SAPS  C314 8396   2.222   0.419   8.864 -0.4623 -0.0687 -0.3155
   87SAPS  H14X 8397   2.134   0.484   8.884 -1.7695 -1.0666 -2.5130
   87SAPS  H14Y 8398   2.189   0.315   8.841  0.4732 -0.5616  0.4825
   87SAPS  C315 8399   2.282   0.483   8.741 -0.1476  0.8258 -0.2528
   87SAPS  H15X 8400   2.383   0.449   8.711 -1.7535 -2.0351 -3.0251
   87SAPS  H15Y 8401   2.280   0.588   8.775  2.5025  0.8145  0.1749
   87SAPS  C316 8402   2.192   0.488   8.615 -0.0422 -0.0650  0.0261
   87SAPS  H16X 8403   2.091   0.522   8.645  0.3415  1.3747 -0.2270
   87SAPS  H16Y 8404   2.192   0.379   8.592 -2.7474 -0.3436  0.9974
   87SAPS  C317 8405   2.252   0.571   8.507  0.1644  0.0053  0.3504
   87SAPS  H17X 8406   2.363   0.568   8.522  0.2708  2.2796  0.4617
   87SAPS  H17Y 8407   2.229   0.680   8.513  0.6314  0.1030  0.4926
   87SAPS  C318 8408   2.215   0.514   8.370  0.1183 -0.0646 -0.3498
   87SAPS  H18X 8409   2.232   0.589   8.290  1.6379  0.4543  0.4094
   87SAPS  H18Y 8410   2.106   0.500   8.362  0.3041 -1.0114 -1.4708
   87SAPS  H18Z 8411   2.275   0.426   8.339  0.8405  0.6470 -1.0310
   88SAPS     N 8412   4.729   5.546  10.905  0.6387  0.3003  0.2628
   88SAPS   HN1 8413   4.688   5.577  10.814 -2.0227 -0.0611  1.2565
   88SAPS   HN2 8414   4.666   5.481  10.957  2.0362 -2.2273 -0.9770
   88SAPS   HN3 8415   4.738   5.631  10.963  2.5891  0.7190 -0.5784
   88SAPS   C12 8416   4.860   5.479  10.886  0.2096  0.2114 -0.1220
   88SAPS  H12A 8417   4.913   5.484  10.980 -1.0158 -0.2215  0.6194
   88SAPS   C13 8418   4.845   5.334  10.838 -0.4370 -0.8928  0.7299
   88SAPS  O13A 8419   4.733   5.296  10.802 -0.5239  0.1765 -0.1357
   88SAPS  O13B 8420   4.953   5.274  10.806  0.3974 -0.7549 -0.0122
   88SAPS   C11 8421   4.950   5.563  10.795 -0.1603 -0.0067 -0.1657
   88SAPS  H11A 8422   4.916   5.542  10.691 -1.2876 -1.4274  0.4586
   88SAPS  H11B 8423   5.049   5.512  10.797 -0.9725 -1.6605 -0.3351
   88SAPS     P 8424   5.070   5.777  10.875  0.1090  0.2077 -0.0509
   88SAPS   O13 8425   5.047   5.921  10.860  0.4580 -0.4114 -0.3654
   88SAPS   O14 8426   5.096   5.727  11.010  0.2445  0.3840 -0.3523
   88SAPS   O12 8427   4.946   5.705  10.814  0.6139  0.0775 -0.0858
   88SAPS   O11 8428   5.194   5.738  10.781  0.0829  0.0221 -0.2051
   88SAPS    C1 8429   5.215   5.801  10.649 -0.6483 -0.6645  0.0548
   88SAPS    HA 8430   5.178   5.906  10.648 -2.4500 -1.2180  1.4408
   88SAPS    HB 8431   5.324   5.814  10.630 -0.2385  1.3003  3.0836
   88SAPS    C2 8432   5.140   5.728  10.533 -0.0960 -0.5359 -0.5042
   88SAPS    HS 8433   5.034   5.715  10.564 -0.8864  1.9547 -1.9066
   88SAPS   O21 8434   5.209   5.609  10.494  0.5646  0.5076  0.3883
   88SAPS   C21 8435   5.139   5.515  10.440  0.4570  0.4011  0.7782
   88SAPS   O22 8436   5.017   5.505  10.441  0.2914  0.0370 -1.1694
   88SAPS   C22 8437   5.222   5.395  10.394  0.3042 -0.0123 -0.2350
   88SAPS   H2R 8438   5.311   5.436  10.341  1.5484 -2.2502 -0.0354
   88SAPS   H2S 8439   5.253   5.344  10.488 -1.3960  2.3524  1.7563
   88SAPS    C3 8440   5.129   5.818  10.411 -0.4635 -0.4734  0.2436
   88SAPS    HX 8441   5.071   5.908  10.441 -0.2660 -0.4050  0.4214
   88SAPS    HY 8442   5.076   5.759  10.333 -1.7061 -0.2804  0.9153
   88SAPS   O31 8443   5.262   5.864  10.374  0.2054 -0.1140 -0.0714
   88SAPS   C31 8444   5.301   5.831  10.251  0.3405 -0.0021 -0.1020
   88SAPS   O32 8445   5.238   5.759  10.172 -0.3414 -0.6322 -0.5372
   88SAPS   C32 8446   5.424   5.912  10.219  0.4029 -0.1068  0.1617
   88SAPS   H2X 8447   5.510   5.863  10.269  1.0040  0.0914 -0.6501
   88SAPS   H2Y 8448   5.418   6.011  10.269  0.3469  1.2043 -2.2795
   88SAPS   C23 8449   5.164   5.297  10.287  0.4012 -0.3550 -0.2000
   88SAPS   H3R 8450   5.065   5.333  10.250  2.2023  2.1407 -3.0998
   88SAPS   H3S 8451   5.156   5.194  10.327 -2.2707 -0.5484 -0.9758
   88SAPS   C24 8452   5.254   5.284  10.157 -0.3787 -0.4842 -0.1490
   88SAPS   H4R 8453   5.228   5.186  10.112 -0.0058  0.8206 -3.4873
   88SAPS   H4S 8454   5.362   5.266  10.179 -0.4142 -2.7123 -1.4432
   88SAPS   C25 8455   5.253   5.414  10.075 -0.0586 -0.5278  0.2715
   88SAPS   H5R 8456   5.252   5.508  10.132 -0.9480  0.4814 -1.3584
   88SAPS   C26 8457   5.263   5.428   9.938  0.1448  0.8650  0.1477
   88SAPS   H6R 8458   5.258   5.526   9.889  1.5107  0.4730 -0.8400
   88SAPS   C27 8459   5.277   5.310   9.841 -0.1357  0.1464  0.5044
   88SAPS   H7R 8460   5.174   5.270   9.829  0.4766 -0.8811 -1.7914
   88SAPS   H7S 8461   5.333   5.228   9.892 -1.0775 -1.3796 -0.8020
   88SAPS   C28 8462   5.347   5.349   9.712  0.2285  0.3723  0.0765
   88SAPS   H8R 8463   5.451   5.387   9.717  0.3790 -0.1421  1.0517
   88SAPS   C29 8464   5.300   5.341   9.588  0.5350 -0.0171  0.2726
   88SAPS   H9R 8465   5.363   5.386   9.509  2.1605 -2.8188 -0.1642
   88SAPS  C210 8466   5.165   5.294   9.545 -0.8919 -0.0023  0.4291
   88SAPS  H10R 8467   5.094   5.287   9.630 -0.5867  0.6321  0.7436
   88SAPS  H10S 8468   5.162   5.202   9.483  0.7194  1.6986 -2.4093
   88SAPS  C211 8469   5.122   5.408   9.454  0.9671  0.0509  0.2839
   88SAPS  H11R 8470   5.094   5.497   9.512 -0.5539  0.2337 -0.6717
   88SAPS  C212 8471   5.134   5.434   9.321 -0.3505  0.1067  0.4448
   88SAPS  H12R 8472   5.106   5.535   9.289  2.1404  0.6060 -0.3948
   88SAPS  C213 8473   5.189   5.345   9.214 -0.2728  0.6741  0.4770
   88SAPS  H13R 8474   5.108   5.319   9.142  1.1631 -1.2742 -0.5380
   88SAPS  H13S 8475   5.218   5.245   9.253 -0.1544 -0.2418 -1.7963
   88SAPS  C214 8476   5.309   5.399   9.138  0.1122 -1.0060 -0.0150
   88SAPS  H14R 8477   5.399   5.399   9.202 -0.6480  1.7164  1.1615
   88SAPS  C215 8478   5.311   5.438   9.008 -0.8425  0.7039  0.4123
   88SAPS  H15R 8479   5.406   5.469   8.964 -1.5884  2.4552 -0.0417
   88SAPS  C216 8480   5.202   5.434   8.907 -0.2037  0.2961  0.6256
   88SAPS  H16R 8481   5.108   5.482   8.942 -0.5124  2.2414 -2.4739
   88SAPS  H16S 8482   5.180   5.326   8.888 -1.0456  0.5940 -0.1343
   88SAPS  C217 8483   5.243   5.499   8.770  0.5242  0.1634  0.1593
   88SAPS  H17R 8484   5.318   5.430   8.727  0.1544 -1.2355  1.6610
   88SAPS  H17S 8485   5.282   5.600   8.795  0.5667  0.1477  0.1548
   88SAPS  C218 8486   5.122   5.525   8.676 -0.3687 -0.0575  0.2283
   88SAPS  H18R 8487   5.150   5.584   8.586 -2.2746 -0.3156 -0.5926
   88SAPS  H18S 8488   5.044   5.584   8.729 -1.3297  1.0792 -2.2715
   88SAPS  C219 8489   5.052   5.396   8.623 -0.1638 -0.1439  0.2295
   88SAPS  H19R 8490   4.959   5.422   8.567 -0.3590 -1.4762 -0.1104
   88SAPS  H19S 8491   5.009   5.335   8.705 -2.5579 -0.1504 -0.9390
   88SAPS  C220 8492   5.129   5.291   8.537 -0.5563 -0.6869  0.1837
   88SAPS  H20R 8493   5.209   5.234   8.588 -0.8455  0.0460  1.4938
   88SAPS  H20S 8494   5.188   5.343   8.459  1.7130 -2.7030  0.4405
   88SAPS  H20T 8495   5.061   5.221   8.484  0.1836 -1.1076 -0.2318
   88SAPS   C33 8496   5.451   5.932  10.072  0.5646 -0.5235  0.2422
   88SAPS   H3X 8497   5.530   6.009  10.061 -1.8829  1.8471 -2.3089
   88SAPS   H3Y 8498   5.364   5.979  10.022  0.7537  1.4624  1.6697
   88SAPS   C34 8499   5.484   5.809   9.981  1.0802  0.9463  0.1190
   88SAPS   H4X 8500   5.401   5.735   9.975  1.7467  0.2700 -1.2573
   88SAPS   H4Y 8501   5.571   5.761  10.030  0.1147  2.0057  3.0679
   88SAPS   C35 8502   5.507   5.851   9.832 -0.4397  1.5054 -0.4028
   88SAPS   H5X 8503   5.597   5.915   9.815  0.2409  1.3130  2.1232
   88SAPS   H5Y 8504   5.428   5.927   9.811 -2.1780 -0.5901 -1.9456
   88SAPS   C36 8505   5.503   5.728   9.729 -0.1086  0.2457  0.0455
   88SAPS   H6X 8506   5.417   5.663   9.755  0.5043  0.1853  2.0590
   88SAPS   H6Y 8507   5.593   5.666   9.745 -0.4979 -0.4957 -0.5650
   88SAPS   C37 8508   5.501   5.775   9.578  0.3604  0.5077 -0.0383
   88SAPS   H7X 8509   5.573   5.856   9.556  0.5520 -0.0955 -1.7669
   88SAPS   H7Y 8510   5.401   5.824   9.578 -0.6457 -1.4001 -0.8279
   88SAPS   C38 8511   5.505   5.664   9.465  0.8341 -0.0126 -0.5290
   88SAPS   H8X 8512   5.401   5.625   9.455 -1.2278  3.3443  4.1183
   88SAPS   H8Y 8513   5.568   5.580   9.501 -0.2003 -0.2992  0.7081
   88SAPS   C39 8514   5.541   5.711   9.330 -0.1399  0.7674  0.0663
   88SAPS   H9X 8515   5.544   5.617   9.271 -0.4111 -0.4182  1.8492
   88SAPS   H9Y 8516   5.645   5.748   9.338  1.5943 -3.8501  2.1709
   88SAPS  C310 8517   5.445   5.812   9.268 -0.3683  0.4842 -0.2617
   88SAPS  H10X 8518   5.436   5.896   9.340  1.3189  0.9958 -0.6068
   88SAPS  H10Y 8519   5.347   5.767   9.244 -0.5602  0.9382 -0.3317
   88SAPS  C311 8520   5.497   5.873   9.139  0.9341 -0.4542  0.4854
   88SAPS  H11X 8521   5.599   5.914   9.155  0.9793 -0.1959 -0.4048
   88SAPS  H11Y 8522   5.427   5.952   9.104  0.7451 -0.9641 -0.3135
   88SAPS  C312 8523   5.508   5.771   9.029  0.2227  1.0525  0.6325
   88SAPS  H12X 8524   5.405   5.731   9.018  0.0838  1.4806  0.3744
   88SAPS  H12Y 8525   5.577   5.694   9.070 -0.3305  1.0951  1.6947
   88SAPS  C313 8526   5.566   5.829   8.904 -0.0566  0.3555  0.2456
   88SAPS  H13X 8527   5.667   5.874   8.917 -0.0104  1.5429 -3.1193
   88SAPS  H13Y 8528   5.511   5.916   8.862  0.5068  0.4579 -0.2897
   88SAPS  C314 8529   5.578   5.733   8.790 -0.3936 -0.1397 -0.5842
   88SAPS  H14X 8530   5.490   5.667   8.799  0.6234 -1.5715 -0.7535
   88SAPS  H14Y 8531   5.671   5.679   8.821  0.4046  1.8799  0.8035
   88SAPS  C315 8532   5.583   5.793   8.651  0.1457  0.4943 -0.8330
   88SAPS  H15X 8533   5.672   5.859   8.644  2.0797 -2.0449 -2.1439
   88SAPS  H15Y 8534   5.491   5.853   8.640 -0.5439 -0.0730  1.3709
   88SAPS  C316 8535   5.590   5.686   8.541 -0.0186 -0.2990  0.1340
   88SAPS  H16X 8536   5.505   5.615   8.544 -0.6842  0.3776 -1.5463
   88SAPS  H16Y 8537   5.689   5.635   8.536  0.1480  0.1463 -1.7732
   88SAPS  C317 8538   5.590   5.756   8.406 -0.2861  0.6325  0.3061
   88SAPS  H17X 8539   5.609   5.673   8.334 -0.0392 -0.4549  1.5872
   88SAPS  H17Y 8540   5.673   5.829   8.401 -0.1927  0.7040  2.1150
   88SAPS  C318 8541   5.460   5.822   8.370 -0.1571  0.1273 -0.0234
   88SAPS  H18X 8542   5.448   5.834   8.260 -0.5753 -1.2162 -0.1462
   88SAPS  H18Y 8543   5.439   5.918   8.422 -0.1303 -0.4925  1.1628
   88SAPS  H18Z 8544   5.374   5.758   8.403 -0.5020  2.2709  3.8296
   89SAPS     N 8545   3.886   2.203  10.875 -0.7502  0.3648 -0.2981
   89SAPS   HN1 8546   3.857   2.302  10.894  0.4171  0.5427  0.6176
   89SAPS   HN2 8547   3.989   2.195  10.869 -0.6999  0.8133 -0.0386
   89SAPS   HN3 8548   3.850   2.171  10.782  0.3691  1.2405 -1.0658
   89SAPS   C12 8549   3.835   2.122  10.990  0.1980  0.1349  1.2461
   89SAPS  H12A 8550   3.897   2.136  11.077  2.5326  1.0601 -0.4394
   89SAPS   C13 8551   3.695   2.179  11.042  0.8785 -0.2147 -0.4321
   89SAPS  O13A 8552   3.649   2.289  10.989  0.2982  0.1159 -0.5409
   89SAPS  O13B 8553   3.629   2.105  11.113 -0.5065 -0.7304  0.0141
   89SAPS   C11 8554   3.819   1.976  10.936 -0.1984  0.0355  0.3451
   89SAPS  H11A 8555   3.770   1.909  11.010 -0.7202  1.2562  1.1535
   89SAPS  H11B 8556   3.921   1.932  10.932 -0.6889 -1.1155  0.3118
   89SAPS     P 8557   3.765   1.816  10.746  0.0217 -0.0188  0.1035
   89SAPS   O13 8558   3.735   1.709  10.845  0.0651 -0.2403  0.0464
   89SAPS   O14 8559   3.706   1.799  10.611  0.0795 -0.0347 -0.0699
   89SAPS   O12 8560   3.751   1.964  10.810 -0.1520 -0.4637 -0.1751
   89SAPS   O11 8561   3.919   1.812  10.725 -0.3343 -0.1423 -0.6470
   89SAPS    C1 8562   3.993   1.915  10.660  0.7898  0.0308 -0.2534
   89SAPS    HA 8563   3.923   1.996  10.631 -0.1500 -0.1970  1.2788
   89SAPS    HB 8564   4.065   1.961  10.732 -0.0006 -0.0457  0.6016
   89SAPS    C2 8565   4.078   1.863  10.537 -0.4504  0.0269  0.3679
   89SAPS    HS 8566   4.121   1.955  10.492 -2.5935  1.6567  1.4832
   89SAPS   O21 8567   4.001   1.804  10.424  0.6972  0.2897  0.3150
   89SAPS   C21 8568   3.905   1.885  10.363 -0.1498  0.6540 -0.3278
   89SAPS   O22 8569   3.883   1.997  10.399 -0.0453 -0.2118 -0.4274
   89SAPS   C22 8570   3.863   1.814  10.235  0.3468  0.5896 -0.5862
   89SAPS   H2R 8571   3.836   1.707  10.248  0.1428  0.8376  1.5021
   89SAPS   H2S 8572   3.763   1.856  10.209 -0.3576 -1.0703 -0.6910
   89SAPS    C3 8573   4.193   1.780  10.589 -0.1671 -0.5490  0.3562
   89SAPS    HX 8574   4.157   1.685  10.634  2.0221 -1.8878 -0.5666
   89SAPS    HY 8575   4.260   1.841  10.653 -2.4421  0.4010  1.9566
   89SAPS   O31 8576   4.273   1.736  10.473 -0.6387  0.5077  0.0973
   89SAPS   C31 8577   4.397   1.706  10.506  0.0447  1.1529 -0.1230
   89SAPS   O32 8578   4.450   1.701  10.615  0.3444 -0.1139  0.6430
   89SAPS   C32 8579   4.467   1.667  10.380 -0.7927 -0.2167 -0.3920
   89SAPS   H2X 8580   4.436   1.565  10.347 -0.6086 -0.0521 -1.0940
   89SAPS   H2Y 8581   4.576   1.671  10.403 -0.5782 -0.7599 -1.2470
   89SAPS   C23 8582   3.969   1.836  10.111  0.7238 -0.3518  0.0130
   89SAPS   H3R 8583   4.070   1.797  10.136  0.3563 -0.6232  1.1585
   89SAPS   H3S 8584   3.979   1.946  10.101 -1.5949 -0.0526  0.4536
   89SAPS   C24 8585   3.917   1.765   9.984 -0.0778  0.1757 -0.2889
   89SAPS   H4R 8586   3.895   1.659  10.009 -1.3208  0.7939  1.3970
   89SAPS   H4S 8587   4.001   1.768   9.912  1.5240 -1.0809  1.4347
   89SAPS   C25 8588   3.799   1.819   9.914 -0.0300  0.0599  0.1253
   89SAPS   H5R 8589   3.758   1.908   9.963  0.5107  0.3222  0.1080
   89SAPS   C26 8590   3.747   1.771   9.794 -0.4455 -0.1582  0.6443
   89SAPS   H6R 8591   3.657   1.816   9.749  0.1600  0.7921  0.3468
   89SAPS   C27 8592   3.807   1.657   9.723 -0.0811 -0.1780  0.7159
   89SAPS   H7R 8593   3.725   1.592   9.685 -0.8587  1.1967  0.0075
   89SAPS   H7S 8594   3.862   1.579   9.782  0.8865 -0.1821 -0.1552
   89SAPS   C28 8595   3.897   1.695   9.606  0.1532  0.7073  0.2166
   89SAPS   H8R 8596   3.994   1.738   9.636 -1.1986  2.5265  2.3121
   89SAPS   C29 8597   3.864   1.696   9.477 -0.8601  0.4381 -0.4971
   89SAPS   H9R 8598   3.931   1.736   9.399  0.2362  1.4808  0.9059
   89SAPS  C210 8599   3.731   1.656   9.425  0.3955  0.1201 -0.2981
   89SAPS  H10R 8600   3.678   1.608   9.510 -1.4215  2.1242 -0.2089
   89SAPS  H10S 8601   3.744   1.574   9.352 -0.6739  1.2901 -1.8762
   89SAPS  C211 8602   3.647   1.764   9.380  0.0483 -0.1399  0.2992
   89SAPS  H11R 8603   3.582   1.812   9.455 -1.5312 -1.9220  0.1722
   89SAPS  C212 8604   3.626   1.803   9.254  0.7362  0.2282  0.2727
   89SAPS  H12R 8605   3.569   1.895   9.232  1.4365  0.4828 -0.5461
   89SAPS  C213 8606   3.689   1.751   9.125 -0.1345  0.8242 -0.3093
   89SAPS  H13R 8607   3.613   1.761   9.045 -0.7605  0.0231  0.1644
   89SAPS  H13S 8608   3.716   1.645   9.144  0.4129  1.2306  1.3387
   89SAPS  C214 8609   3.819   1.810   9.086  0.4476 -0.9678  0.4200
   89SAPS  H14R 8610   3.873   1.853   9.171  0.1992 -2.2606  1.2591
   89SAPS  C215 8611   3.869   1.821   8.955 -0.2498 -0.5275 -0.8372
   89SAPS  H15R 8612   3.965   1.872   8.942 -0.8171  0.9207  0.3878
   89SAPS  C216 8613   3.805   1.766   8.832 -0.4639 -0.1153 -0.0575
   89SAPS  H16R 8614   3.697   1.743   8.849 -0.2056  0.0260  2.0548
   89SAPS  H16S 8615   3.855   1.668   8.817  0.6695  0.4993 -0.3911
   89SAPS  C217 8616   3.834   1.856   8.709 -0.0826  0.0193  0.1552
   89SAPS  H17R 8617   3.944   1.856   8.694 -0.1102  1.6441 -0.2650
   89SAPS  H17S 8618   3.809   1.963   8.724  0.2945 -0.0925  1.7595
   89SAPS  C218 8619   3.776   1.801   8.579  0.6657 -0.0959 -0.4301
   89SAPS  H18R 8620   3.826   1.715   8.530 -0.7681 -0.3746 -1.4641
   89SAPS  H18S 8621   3.784   1.881   8.503  2.7429 -2.2589 -2.6448
   89SAPS  C219 8622   3.628   1.766   8.596  0.5438  0.4504  0.3154
   89SAPS  H19R 8623   3.585   1.849   8.655  1.1763 -0.3760  2.0187
   89SAPS  H19S 8624   3.615   1.676   8.660 -1.5774  0.4716 -0.0150
   89SAPS  C220 8625   3.559   1.734   8.462  0.1589 -0.5951 -0.0382
   89SAPS  H20R 8626   3.451   1.710   8.461  0.2349 -1.2021  1.7912
   89SAPS  H20S 8627   3.613   1.646   8.420  1.4028 -0.7974  1.8458
   89SAPS  H20T 8628   3.563   1.820   8.393 -3.0411 -1.0125 -0.8879
   89SAPS   C33 8629   4.434   1.758  10.258  0.4778  0.4225 -0.4438
   89SAPS   H3X 8630   4.455   1.862  10.290 -1.7251  1.0354 -0.8126
   89SAPS   H3Y 8631   4.328   1.747  10.226  0.4318 -0.4220 -0.0468
   89SAPS   C34 8632   4.532   1.747  10.142 -0.4486  0.0231  0.3933
   89SAPS   H4X 8633   4.625   1.709  10.190 -1.2706 -1.2186  1.0789
   89SAPS   H4Y 8634   4.551   1.844  10.092  0.9568 -0.3480  0.1827
   89SAPS   C35 8635   4.484   1.632  10.050  0.2827 -0.6091 -0.4060
   89SAPS   H5X 8636   4.397   1.672   9.994 -0.1438  0.8301  1.1797
   89SAPS   H5Y 8637   4.453   1.540  10.103  2.5387 -0.7315  0.8651
   89SAPS   C36 8638   4.590   1.584   9.949  0.5324 -0.0265  0.5316
   89SAPS   H6X 8639   4.692   1.613   9.984  0.5436  1.1294 -0.3760
   89SAPS   H6Y 8640   4.575   1.646   9.858  0.8325 -0.8522 -0.0876
   89SAPS   C37 8641   4.577   1.432   9.911 -0.4139 -0.2250  0.7521
   89SAPS   H7X 8642   4.468   1.429   9.892 -0.2057  1.4484 -1.0218
   89SAPS   H7Y 8643   4.603   1.375  10.002  1.0363 -2.3925 -0.9292
   89SAPS   C38 8644   4.656   1.370   9.793  1.2529 -0.5958  0.1891
   89SAPS   H8X 8645   4.627   1.263   9.784  0.4864 -0.4202  0.5200
   89SAPS   H8Y 8646   4.763   1.379   9.823  0.4639  0.5543  3.0404
   89SAPS   C39 8647   4.617   1.455   9.665 -0.5774 -0.0876 -0.2069
   89SAPS   H9X 8648   4.520   1.506   9.684  0.9250  2.8074  0.2007
   89SAPS   H9Y 8649   4.621   1.393   9.573  0.0040  2.2886 -1.8767
   89SAPS  C310 8650   4.724   1.560   9.630  0.2251 -0.3220 -0.6355
   89SAPS  H10X 8651   4.805   1.504   9.578  0.9408  0.9903 -0.9745
   89SAPS  H10Y 8652   4.763   1.607   9.723 -0.8471 -0.9347  0.1573
   89SAPS  C311 8653   4.672   1.675   9.545  0.6144  0.2335 -0.1334
   89SAPS  H11X 8654   4.743   1.760   9.531 -0.5896  1.2756 -0.0033
   89SAPS  H11Y 8655   4.583   1.714   9.598 -0.0623 -2.0977  0.5562
   89SAPS  C312 8656   4.621   1.619   9.395  0.4625  0.1014  0.2625
   89SAPS  H12X 8657   4.545   1.692   9.360 -0.5411 -0.5602  0.9847
   89SAPS  H12Y 8658   4.567   1.522   9.407  2.6364 -1.3093 -0.6378
   89SAPS  C313 8659   4.730   1.585   9.293 -0.0820 -0.6738  0.0146
   89SAPS  H13X 8660   4.817   1.532   9.338  1.0105 -0.6008 -1.8966
   89SAPS  H13Y 8661   4.762   1.686   9.259  0.3645  0.1415  2.6428
   89SAPS  C314 8662   4.680   1.500   9.173  0.3623  0.0633 -0.7741
   89SAPS  H14X 8663   4.604   1.545   9.107 -1.0027 -1.4205 -0.2575
   89SAPS  H14Y 8664   4.624   1.411   9.209  0.8197 -0.3739 -1.1337
   89SAPS  C315 8665   4.790   1.459   9.075 -0.6534  1.1243  0.0402
   89SAPS  H15X 8666   4.747   1.385   9.005 -0.6403  1.5636 -0.4352
   89SAPS  H15Y 8667   4.862   1.408   9.142 -0.7696  1.4749  0.4435
   89SAPS  C316 8668   4.858   1.584   9.008  0.3877  0.0711  0.2098
   89SAPS  H16X 8669   4.870   1.668   9.080 -0.3322 -0.5559  1.1000
   89SAPS  H16Y 8670   4.783   1.631   8.941  1.2758  1.2941  0.0475
   89SAPS  C317 8671   4.989   1.550   8.932  0.0767  0.2415 -0.0786
   89SAPS  H17X 8672   4.998   1.611   8.839 -1.0392  1.0095  0.2864
   89SAPS  H17Y 8673   4.971   1.444   8.904  1.3338 -0.2254  0.7889
   89SAPS  C318 8674   5.103   1.570   9.013 -0.8316 -0.3207  0.5235
   89SAPS  H18X 8675   5.102   1.680   9.027  0.0779 -0.2633  0.1892
   89SAPS  H18Y 8676   5.193   1.549   8.951 -0.5312  2.4886 -0.1574
   89SAPS  H18Z 8677   5.103   1.508   9.105  1.0893 -0.7957  0.2275
   90SAPS     N 8678   6.087   5.862  10.874  0.1637  0.0073  0.0566
   90SAPS   HN1 8679   6.171   5.914  10.840 -1.6647  0.4469 -4.3586
   90SAPS   HN2 8680   6.011   5.870  10.804  1.2575 -0.1533 -1.1954
   90SAPS   HN3 8681   6.059   5.899  10.967  0.4771 -1.4525  0.7663
   90SAPS   C12 8682   6.141   5.728  10.896  0.0495  0.0072 -0.2089
   90SAPS  H12A 8683   6.242   5.744  10.930  0.5479  0.2169 -1.6971
   90SAPS   C13 8684   6.063   5.629  10.996  0.0273 -0.7446  0.1650
   90SAPS  O13A 8685   5.994   5.678  11.085 -0.3632 -0.0901 -0.1494
   90SAPS  O13B 8686   6.122   5.525  11.014 -0.1057  0.1387 -0.0765
   90SAPS   C11 8687   6.137   5.665  10.757 -0.1854  0.4286  0.0756
   90SAPS  H11A 8688   6.032   5.675  10.721 -1.2479  0.9415  2.9862
   90SAPS  H11B 8689   6.161   5.558  10.770  1.6442  0.1874 -3.8845
   90SAPS     P 8690   6.377   5.673  10.646  0.3277  0.0678 -0.1201
   90SAPS   O13 8691   6.450   5.688  10.772  0.4399  0.5194  0.0410
   90SAPS   O14 8692   6.366   5.532  10.590 -0.1280 -0.4928  0.1790
   90SAPS   O12 8693   6.226   5.728  10.662 -0.7736  0.1021  0.7326
   90SAPS   O11 8694   6.442   5.770  10.538 -0.0486  0.3544  0.3338
   90SAPS    C1 8695   6.433   5.911  10.549  0.0768 -0.0611 -0.3156
   90SAPS    HA 8696   6.368   5.940  10.634 -0.4716 -1.8235 -0.1022
   90SAPS    HB 8697   6.535   5.953  10.560  0.9410 -2.4882  1.6305
   90SAPS    C2 8698   6.366   5.958  10.422 -0.2917  0.3884  0.2393
   90SAPS    HS 8699   6.267   5.911  10.407  0.0986 -0.9861  1.7198
   90SAPS   O21 8700   6.459   5.930  10.317  0.0239 -0.6653  0.6694
   90SAPS   C21 8701   6.408   5.904  10.197  0.2101 -0.5211 -0.0931
   90SAPS   O22 8702   6.294   5.877  10.168  0.0973 -0.2551  1.2366
   90SAPS   C22 8703   6.524   5.909  10.099  0.2158 -0.9276  1.0431
   90SAPS   H2R 8704   6.589   5.994  10.127 -0.0406  0.4905 -2.2351
   90SAPS   H2S 8705   6.584   5.815  10.100 -2.0956 -2.5044  1.0383
   90SAPS    C3 8706   6.334   6.111  10.424  0.9823 -0.4373 -0.9375
   90SAPS    HX 8707   6.431   6.158  10.447  0.5133 -0.3400  1.0810
   90SAPS    HY 8708   6.264   6.127  10.509 -0.9463 -0.9437 -2.3497
   90SAPS   O31 8709   6.268   6.164  10.306 -0.0441  0.3762 -0.2390
   90SAPS   C31 8710   6.201   6.274  10.314 -0.1574  0.4202 -0.6450
   90SAPS   O32 8711   6.194   6.340  10.417  0.0787 -0.2866 -0.0240
   90SAPS   C32 8712   6.136   6.292  10.175 -0.3851  0.5815 -0.6689
   90SAPS   H2X 8713   6.057   6.370  10.187  0.6008  1.5815 -0.5342
   90SAPS   H2Y 8714   6.100   6.193  10.141 -1.1218  0.4088  0.5451
   90SAPS   C23 8715   6.485   5.964   9.957  0.7377 -0.9109  0.2291
   90SAPS   H3R 8716   6.573   5.994   9.896 -1.0777 -0.1974 -2.1613
   90SAPS   H3S 8717   6.428   6.057   9.977  0.1210 -1.2848  0.2122
   90SAPS   C24 8718   6.402   5.864   9.865 -0.5007 -0.3646 -0.7403
   90SAPS   H4R 8719   6.353   5.922   9.784 -0.4043  3.1016  1.4780
   90SAPS   H4S 8720   6.327   5.811   9.928  1.2934  0.4722  2.3047
   90SAPS   C25 8721   6.490   5.759   9.815 -0.4067  0.3425  0.3518
   90SAPS   H5R 8722   6.560   5.723   9.892  1.1703  0.2315 -1.0828
   90SAPS   C26 8723   6.499   5.715   9.686 -0.4111 -0.3084  0.3218
   90SAPS   H6R 8724   6.572   5.637   9.660  1.4273  1.3084  0.3611
   90SAPS   C27 8725   6.422   5.758   9.567 -0.5727  0.0122  0.1024
   90SAPS   H7R 8726   6.354   5.838   9.604 -0.7784 -1.2571  2.7368
   90SAPS   H7S 8727   6.353   5.676   9.541  1.2160 -1.4537 -0.2053
   90SAPS   C28 8728   6.508   5.807   9.453 -0.2940  0.2530  0.2329
   90SAPS   H8R 8729   6.590   5.873   9.484 -0.2436 -0.9873  3.0960
   90SAPS   C29 8730   6.489   5.762   9.326  0.5554 -0.4026 -0.1982
   90SAPS   H9R 8731   6.556   5.796   9.245  1.5530 -0.4083  0.6109
   90SAPS  C210 8732   6.382   5.665   9.299 -0.0393  0.1716  0.9288
   90SAPS  H10R 8733   6.285   5.686   9.350 -0.3863  1.3642 -0.1611
   90SAPS  H10S 8734   6.425   5.566   9.326  1.2049  0.9033  1.6820
   90SAPS  C211 8735   6.358   5.666   9.149 -0.6565 -0.4596  0.2185
   90SAPS  H11R 8736   6.300   5.750   9.108 -0.1381 -0.1635  0.0797
   90SAPS  C212 8737   6.396   5.577   9.058 -0.2060 -0.5682  0.1043
   90SAPS  H12R 8738   6.371   5.601   8.953  1.1585  0.1000 -0.0777
   90SAPS  C213 8739   6.484   5.453   9.065  1.1053  0.0067  0.4320
   90SAPS  H13R 8740   6.511   5.424   8.961 -1.4786 -0.9515 -0.0285
   90SAPS  H13S 8741   6.415   5.370   9.092 -0.2445  1.1694  0.6434
   90SAPS  C214 8742   6.617   5.453   9.141  0.7126 -0.7675  0.1481
   90SAPS  H14R 8743   6.651   5.555   9.162 -1.4039  0.2658 -1.0556
   90SAPS  C215 8744   6.685   5.343   9.170 -0.2771 -0.2223 -0.4385
   90SAPS  H15R 8745   6.781   5.353   9.222  0.0301 -0.4862 -0.9562
   90SAPS  C216 8746   6.639   5.202   9.134 -0.0715  0.2427 -0.4002
   90SAPS  H16R 8747   6.534   5.193   9.099 -1.0687  0.7998  2.2619
   90SAPS  H16S 8748   6.640   5.137   9.224  0.7691  0.5832 -0.1589
   90SAPS  C217 8749   6.727   5.121   9.043  0.6137  0.4885 -0.0678
   90SAPS  H17R 8750   6.677   5.023   9.028  0.9618  0.3021 -0.0213
   90SAPS  H17S 8751   6.829   5.095   9.079  1.6739 -1.1960 -3.8160
   90SAPS  C218 8752   6.737   5.175   8.897  0.0267  0.2453 -0.4656
   90SAPS  H18R 8753   6.780   5.278   8.898  0.1679  0.1834 -0.0562
   90SAPS  H18S 8754   6.640   5.202   8.849  0.0927 -1.8742 -1.9518
   90SAPS  C219 8755   6.819   5.097   8.795  0.2499  1.3546  0.0538
   90SAPS  H19R 8756   6.770   4.997   8.784  2.2422  0.2564  0.6097
   90SAPS  H19S 8757   6.927   5.088   8.821  0.5618 -0.2570 -1.5418
   90SAPS  C220 8758   6.827   5.151   8.652  0.2206  0.6128 -0.0369
   90SAPS  H20R 8759   6.914   5.113   8.595 -0.8359  1.1488 -2.1021
   90SAPS  H20S 8760   6.845   5.261   8.656  1.2472  0.4239  2.1241
   90SAPS  H20T 8761   6.734   5.123   8.599  0.9034  0.3805 -1.1563
   90SAPS   C33 8762   6.246   6.330  10.071  0.4467  0.0174  0.9195
   90SAPS   H3X 8763   6.340   6.271  10.069  0.1228 -0.4958 -0.0714
   90SAPS   H3Y 8764   6.267   6.435  10.101  2.2958  0.2870 -1.0974
   90SAPS   C34 8765   6.194   6.351   9.926 -0.3785  0.1318  0.3890
   90SAPS   H4X 8766   6.275   6.404   9.873 -1.0683 -1.0971 -2.0690
   90SAPS   H4Y 8767   6.099   6.407   9.916 -0.0569  1.2162  2.8649
   90SAPS   C35 8768   6.188   6.228   9.831 -0.1888  0.0290  0.4114
   90SAPS   H5X 8769   6.103   6.162   9.858 -1.2037  1.1333 -0.0105
   90SAPS   H5Y 8770   6.283   6.171   9.821 -0.2275  0.2166 -1.2870
   90SAPS   C36 8771   6.173   6.269   9.690 -0.1204  0.1823  0.3262
   90SAPS   H6X 8772   6.257   6.341   9.683 -0.9142  1.2349  1.3572
   90SAPS   H6Y 8773   6.075   6.319   9.678  0.3618  1.1253  0.2485
   90SAPS   C37 8774   6.178   6.150   9.597 -0.5544  0.2878  0.2139
   90SAPS   H7X 8775   6.088   6.089   9.619 -0.1836  0.0967  1.2312
   90SAPS   H7Y 8776   6.268   6.086   9.607 -1.2535 -1.3691 -2.7680
   90SAPS   C38 8777   6.151   6.198   9.454 -0.0954 -0.3294  0.2692
   90SAPS   H8X 8778   6.222   6.272   9.413 -0.9002 -0.5348 -1.5882
   90SAPS   H8Y 8779   6.049   6.241   9.447  0.8276  1.7204 -1.5784
   90SAPS   C39 8780   6.147   6.083   9.351 -0.2648  0.1957 -0.1175
   90SAPS   H9X 8781   6.065   6.013   9.378  0.4706  0.1428  2.2925
   90SAPS   H9Y 8782   6.240   6.024   9.365  0.5329  1.3108 -0.6176
   90SAPS  C310 8783   6.137   6.139   9.203 -0.2182  0.1390 -0.1852
   90SAPS  H10X 8784   6.228   6.200   9.186 -1.0338  2.2844  2.3518
   90SAPS  H10Y 8785   6.055   6.214   9.194  0.2773  0.4970 -2.2797
   90SAPS  C311 8786   6.114   6.030   9.088 -0.1309 -0.8364 -0.3300
   90SAPS  H11X 8787   6.185   5.946   9.102 -2.0537 -2.2796  1.2777
   90SAPS  H11Y 8788   6.115   6.076   8.986 -4.2477 -0.3682 -0.3157
   90SAPS  C312 8789   5.979   5.955   9.100 -0.4256  0.3113 -0.0340
   90SAPS  H12X 8790   5.905   6.037   9.095 -1.7420 -0.8063  0.5669
   90SAPS  H12Y 8791   5.982   5.904   9.199  0.2669  1.8877  0.7960
   90SAPS  C313 8792   5.955   5.869   8.969  0.1191 -0.4911 -0.2119
   90SAPS  H13X 8793   5.927   5.943   8.891 -1.9361 -0.9404  0.0266
   90SAPS  H13Y 8794   5.864   5.808   8.986 -0.1836  0.3261  1.3156
   90SAPS  C314 8795   6.060   5.770   8.915  0.2265  0.0969  0.1743
   90SAPS  H14X 8796   6.083   5.685   8.983  1.3427 -0.4767 -0.8816
   90SAPS  H14Y 8797   6.154   5.831   8.914 -1.1019  2.2413  0.0680
   90SAPS  C315 8798   6.022   5.724   8.770  0.0894 -0.3212 -0.0793
   90SAPS  H15X 8799   6.030   5.806   8.695 -1.4845  0.5530  0.6681
   90SAPS  H15Y 8800   5.915   5.697   8.777 -1.1223  3.9830  1.0770
   90SAPS  C316 8801   6.122   5.624   8.719 -0.0486  0.2056  0.8365
   90SAPS  H16X 8802   6.117   5.531   8.780  0.9203  1.3241  2.7258
   90SAPS  H16Y 8803   6.223   5.670   8.721 -0.9536  2.4257 -0.6849
   90SAPS  C317 8804   6.095   5.577   8.579  0.1325  0.5075 -0.1898
   90SAPS  H17X 8805   6.185   5.532   8.530 -0.0053  2.1660 -2.0964
   90SAPS  H17Y 8806   6.086   5.673   8.523  1.5984  1.3504  0.9545
   90SAPS  C318 8807   5.974   5.481   8.567 -0.4305  0.0633 -0.3189
   90SAPS  H18X 8808   5.991   5.378   8.603  0.2676 -0.2498 -1.4863
   90SAPS  H18Y 8809   5.949   5.461   8.460  1.5707  0.3145 -0.8817
   90SAPS  H18Z 8810   5.887   5.525   8.620  1.0382  2.2103  0.4210
   91SAPS     N 8811   3.989   5.095   6.065 -0.0506  0.1082 -0.2401
   91SAPS   HN1 8812   3.961   4.996   6.053 -2.9305  1.0460 -2.3584
   91SAPS   HN2 8813   4.071   5.090   6.129 -1.6189 -1.3109  1.8214
   91SAPS   HN3 8814   3.915   5.142   6.121  0.2034 -0.9148  1.0087
   91SAPS   C12 8815   4.028   5.147   5.936  0.6263  0.2953  0.0691
   91SAPS  H12A 8816   4.118   5.093   5.913 -0.1392 -1.0887  0.1996
   91SAPS   C13 8817   3.940   5.137   5.812 -0.5460  0.2794 -0.7763
   91SAPS  O13A 8818   3.823   5.097   5.824  0.2597  0.0688  0.2110
   91SAPS  O13B 8819   4.002   5.169   5.703  0.3415  0.4774  0.8429
   91SAPS   C11 8820   4.063   5.294   5.950 -0.1062 -0.3972  0.4914
   91SAPS  H11A 8821   4.093   5.333   5.851 -1.1803  2.0366  1.0671
   91SAPS  H11B 8822   4.149   5.309   6.018 -1.5304 -1.3351  2.6287
   91SAPS     P 8823   3.950   5.529   6.022 -0.3635  0.2521 -0.3238
   91SAPS   O13 8824   3.938   5.596   5.893 -0.0078  0.8899  0.2901
   91SAPS   O14 8825   3.845   5.548   6.119 -0.1956  0.2426  0.2314
   91SAPS   O12 8826   3.950   5.374   5.998  0.5147  0.1784  0.5270
   91SAPS   O11 8827   4.101   5.550   6.079  0.4726 -0.3122 -0.0112
   91SAPS    C1 8828   4.159   5.509   6.203  0.3159  0.5201 -0.2587
   91SAPS    HA 8829   4.097   5.433   6.257  1.6406 -0.9230 -0.6852
   91SAPS    HB 8830   4.257   5.460   6.186 -0.1694 -0.0519 -1.6236
   91SAPS    C2 8831   4.174   5.623   6.307  0.9081  0.1065  0.8847
   91SAPS    HS 8832   4.234   5.700   6.253 -0.1405  1.3020  1.3737
   91SAPS   O21 8833   4.253   5.568   6.416 -0.3879  0.0465  0.2865
   91SAPS   C21 8834   4.356   5.641   6.446  0.5099 -0.0134  0.0329
   91SAPS   O22 8835   4.383   5.754   6.406  0.2025 -0.1800 -0.6942
   91SAPS   C22 8836   4.459   5.554   6.522 -0.0347 -0.4361  0.4462
   91SAPS   H2R 8837   4.487   5.482   6.443 -1.6517  1.4911 -2.0262
   91SAPS   H2S 8838   4.549   5.615   6.548 -0.2166 -0.6261  1.6067
   91SAPS    C3 8839   4.039   5.689   6.358 -0.5631  0.2055 -0.5890
   91SAPS    HX 8840   3.984   5.607   6.408 -1.0147 -0.4034 -2.0390
   91SAPS    HY 8841   3.984   5.731   6.271  0.5420  3.9865  0.3031
   91SAPS   O31 8842   4.067   5.793   6.448 -0.7026 -0.3956 -0.2261
   91SAPS   C31 8843   4.014   5.910   6.436 -0.9334  0.3946 -0.4470
   91SAPS   O32 8844   3.938   5.948   6.351 -0.1763  0.5189  0.8650
   91SAPS   C32 8845   4.069   6.006   6.549  0.5581  0.0075  0.5123
   91SAPS   H2X 8846   4.170   6.035   6.513  0.4253  1.2616  1.0676
   91SAPS   H2Y 8847   4.074   5.942   6.640 -1.2826 -2.1338 -0.7836
   91SAPS   C23 8848   4.397   5.475   6.643 -0.1181  0.3242  0.4372
   91SAPS   H3R 8849   4.477   5.400   6.662  1.7557  1.7010 -1.4726
   91SAPS   H3S 8850   4.306   5.425   6.606 -1.6192  1.6582  2.1426
   91SAPS   C24 8851   4.400   5.555   6.775  0.2135 -0.6366 -0.4262
   91SAPS   H4R 8852   4.484   5.625   6.760  0.3936 -1.2973 -3.2071
   91SAPS   H4S 8853   4.438   5.494   6.860 -1.8241 -1.3092  0.0564
   91SAPS   C25 8854   4.269   5.615   6.827  0.2188 -0.3690 -0.1995
   91SAPS   H5R 8855   4.184   5.546   6.836 -0.8463  1.0512  1.3746
   91SAPS   C26 8856   4.245   5.750   6.850 -0.0064  0.8430 -0.2031
   91SAPS   H6R 8857   4.141   5.767   6.881  0.3414  0.1482  1.3954
   91SAPS   C27 8858   4.348   5.865   6.837 -0.8175 -0.2457  0.0125
   91SAPS   H7R 8859   4.315   5.938   6.760  0.4979 -0.2985 -0.6226
   91SAPS   H7S 8860   4.444   5.825   6.800 -0.7246 -0.6577  0.6791
   91SAPS   C28 8861   4.375   5.939   6.968  0.1878  0.7397 -0.0871
   91SAPS   H8R 8862   4.328   6.038   6.978  1.2051  0.9930  3.0788
   91SAPS   C29 8863   4.455   5.907   7.075 -0.3909  0.4494  0.7012
   91SAPS   H9R 8864   4.459   5.972   7.163  1.8062 -1.7293  2.3415
   91SAPS  C210 8865   4.541   5.781   7.087 -0.0390  0.0440  0.0028
   91SAPS  H10R 8866   4.627   5.814   7.150 -0.3233  0.2772  0.2697
   91SAPS  H10S 8867   4.584   5.757   6.987 -1.3839  0.0241 -0.5842
   91SAPS  C211 8868   4.469   5.666   7.153 -0.4103  0.3321 -0.3767
   91SAPS  H11R 8869   4.449   5.585   7.082  1.8069 -0.9484  0.3469
   91SAPS  C212 8870   4.419   5.648   7.279 -0.6295  0.1526  0.0460
   91SAPS  H12R 8871   4.376   5.550   7.304 -0.1227 -0.1796 -0.3650
   91SAPS  C213 8872   4.421   5.752   7.385  0.9427 -0.0149 -0.2698
   91SAPS  H13R 8873   4.333   5.721   7.445  1.0961 -0.2081 -0.1397
   91SAPS  H13S 8874   4.399   5.854   7.348 -1.0315 -0.1524  0.4064
   91SAPS  C214 8875   4.547   5.742   7.466  0.4794 -0.1087 -1.1712
   91SAPS  H14R 8876   4.633   5.698   7.413  2.5625  1.0109  1.0594
   91SAPS  C215 8877   4.575   5.817   7.579  0.1262  0.2443 -0.0075
   91SAPS  H15R 8878   4.671   5.814   7.633 -0.2952 -1.2457  0.7040
   91SAPS  C216 8879   4.475   5.914   7.640 -0.1166 -0.0200 -0.2994
   91SAPS  H16R 8880   4.431   5.867   7.730  1.1629  0.6042  0.6751
   91SAPS  H16S 8881   4.392   5.927   7.567  1.2292  2.3369 -1.5540
   91SAPS  C217 8882   4.538   6.049   7.680  0.1271 -0.8696 -0.6255
   91SAPS  H17R 8883   4.602   6.029   7.769 -0.5283  0.1468  0.0946
   91SAPS  H17S 8884   4.453   6.108   7.721  0.1002 -0.8606 -0.6949
   91SAPS  C218 8885   4.606   6.123   7.560  0.1233 -1.1429 -0.5367
   91SAPS  H18R 8886   4.701   6.068   7.543  0.0309 -0.5000 -3.5994
   91SAPS  H18S 8887   4.621   6.225   7.603 -2.0859 -1.6355  1.6380
   91SAPS  C219 8888   4.533   6.144   7.431  0.3515  0.0771  0.0948
   91SAPS  H19R 8889   4.498   6.047   7.389  0.6953  0.2841 -0.6685
   91SAPS  H19S 8890   4.605   6.185   7.358 -1.7064  0.6439 -1.7030
   91SAPS  C220 8891   4.422   6.250   7.430 -0.7135 -0.3305  0.5414
   91SAPS  H20R 8892   4.379   6.271   7.329 -0.6711 -1.5308  0.2637
   91SAPS  H20S 8893   4.466   6.345   7.469 -0.7729 -0.3037  0.5423
   91SAPS  H20T 8894   4.328   6.220   7.480 -1.5115 -1.3307 -1.4575
   91SAPS   C33 8895   3.986   6.131   6.575  0.5196  0.1845 -0.0897
   91SAPS   H3X 8896   3.881   6.100   6.595  0.2370  1.5573  0.7289
   91SAPS   H3Y 8897   3.977   6.179   6.475 -2.5650  0.0119 -0.0070
   91SAPS   C34 8898   4.040   6.216   6.684 -0.0179  0.6678 -0.6948
   91SAPS   H4X 8899   4.136   6.266   6.661  0.3792 -1.1189 -3.2963
   91SAPS   H4Y 8900   4.049   6.149   6.772 -0.8032 -0.0880 -1.1719
   91SAPS   C35 8901   3.936   6.319   6.731 -0.3640  0.7448  0.0630
   91SAPS   H5X 8902   3.835   6.274   6.744  0.3902 -0.9882  0.1053
   91SAPS   H5Y 8903   3.932   6.391   6.646  0.2391  1.8251  0.9241
   91SAPS   C36 8904   3.984   6.390   6.862  1.1420  0.4857  0.4338
   91SAPS   H6X 8905   4.081   6.439   6.838  0.2254  2.1586  0.0027
   91SAPS   H6Y 8906   3.978   6.305   6.934  2.2512 -0.1873 -0.2445
   91SAPS   C37 8907   3.885   6.495   6.915  0.7255 -0.1939  0.0085
   91SAPS   H7X 8908   3.783   6.453   6.902  1.1286 -1.4537  0.7060
   91SAPS   H7Y 8909   3.901   6.593   6.866  0.8570 -0.0285  0.3809
   91SAPS   C38 8910   3.879   6.521   7.070  0.8688 -0.6052 -0.1665
   91SAPS   H8X 8911   3.849   6.424   7.116 -2.1260  1.0168  1.6070
   91SAPS   H8Y 8912   3.798   6.595   7.089  0.4213 -1.5093  1.7902
   91SAPS   C39 8913   4.017   6.556   7.121  0.0001 -0.3926 -0.4299
   91SAPS   H9X 8914   4.038   6.648   7.063 -1.0998  0.0650 -0.1318
   91SAPS   H9Y 8915   4.090   6.475   7.100 -0.0476 -0.6343  0.3200
   91SAPS  C310 8916   4.017   6.608   7.265 -0.5165  0.2459 -0.7010
   91SAPS  H10X 8917   3.957   6.699   7.286  1.5790  2.0111 -1.9443
   91SAPS  H10Y 8918   4.124   6.636   7.277 -0.6804  0.8541 -0.6056
   91SAPS  C311 8919   3.983   6.508   7.386  0.6159 -0.5813  0.0710
   91SAPS  H11X 8920   4.036   6.414   7.362  0.3755 -0.1437 -2.5440
   91SAPS  H11Y 8921   3.875   6.489   7.402  0.4660  0.2518  0.0859
   91SAPS  C312 8922   4.040   6.552   7.523 -0.5382  0.5048  0.1336
   91SAPS  H12X 8923   3.982   6.640   7.558 -0.3517  1.3586 -1.6171
   91SAPS  H12Y 8924   4.145   6.584   7.504 -1.1341  1.1992 -2.3838
   91SAPS  C313 8925   4.030   6.445   7.630  0.0495 -0.5186 -0.2926
   91SAPS  H13X 8926   4.099   6.361   7.607 -0.2054 -0.5867 -0.8173
   91SAPS  H13Y 8927   3.924   6.412   7.629  0.4407 -1.8362 -0.1283
   91SAPS  C314 8928   4.059   6.498   7.770 -0.7052 -0.1886  0.5362
   91SAPS  H14X 8929   4.007   6.595   7.785 -1.1342 -0.4100  0.4983
   91SAPS  H14Y 8930   4.166   6.528   7.765 -1.1129  1.4773  1.0946
   91SAPS  C315 8931   4.019   6.395   7.882 -0.3729 -0.5323 -0.4782
   91SAPS  H15X 8932   3.914   6.363   7.867 -0.5018  0.3974 -1.7315
   91SAPS  H15Y 8933   4.020   6.449   7.979 -0.5316 -0.1793 -0.6692
   91SAPS  C316 8934   4.112   6.278   7.900 -0.7117  0.9105  1.1264
   91SAPS  H16X 8935   4.208   6.327   7.928 -0.4434  0.6284  0.7143
   91SAPS  H16Y 8936   4.121   6.220   7.806  2.4368  0.3416  1.6799
   91SAPS  C317 8937   4.077   6.200   8.024 -0.3723 -0.3309 -0.0102
   91SAPS  H17X 8938   3.984   6.141   8.012 -0.2273 -0.6195  0.2592
   91SAPS  H17Y 8939   4.080   6.265   8.114  1.1283 -0.0829 -0.2019
   91SAPS  C318 8940   4.192   6.103   8.061 -0.5535  0.3243 -0.4707
   91SAPS  H18X 8941   4.288   6.155   8.079 -1.8485  2.1148  1.7785
   91SAPS  H18Y 8942   4.201   6.036   7.973 -0.5143  0.7535 -0.7921
   91SAPS  H18Z 8943   4.165   6.047   8.153 -0.5546 -1.1129 -1.3142
   92SAPS     N 8944   3.496   2.999   6.102  0.1154  0.3499  0.3997
   92SAPS   HN1 8945   3.507   2.898   6.079  2.0773  0.7704 -0.7149
   92SAPS   HN2 8946   3.393   3.010   6.109 -0.3110 -1.6889 -1.4773
   92SAPS   HN3 8947   3.531   3.055   6.021 -0.3022 -0.3719 -0.2922
   92SAPS   C12 8948   3.565   3.031   6.228 -0.0728 -0.6679 -0.1866
   92SAPS  H12A 8949   3.669   3.041   6.200 -0.8441  2.5465 -2.6341
   92SAPS   C13 8950   3.526   3.172   6.304 -0.0648  0.0853 -0.2155
   92SAPS  O13A 8951   3.441   3.255   6.258  0.2808  0.2961 -0.1647
   92SAPS  O13B 8952   3.561   3.175   6.425  0.4388  0.4153  0.1157
   92SAPS   C11 8953   3.545   2.908   6.323 -0.1978 -0.2023  0.3726
   92SAPS  H11A 8954   3.441   2.879   6.348  0.2158 -0.3100  2.0556
   92SAPS  H11B 8955   3.594   2.930   6.420  0.0749 -1.1255  0.4478
   92SAPS     P 8956   3.753   2.747   6.241  0.0680 -0.4663  0.3883
   92SAPS   O13 8957   3.740   2.617   6.180 -0.2286 -0.0028 -0.3974
   92SAPS   O14 8958   3.821   2.858   6.164 -0.0101  0.1077 -0.3918
   92SAPS   O12 8959   3.610   2.799   6.264  0.1526  0.3850  0.3774
   92SAPS   O11 8960   3.826   2.735   6.384  0.4774 -0.4708  0.5649
   92SAPS    C1 8961   3.872   2.839   6.463  0.0200 -0.3148 -0.3661
   92SAPS    HA 8962   3.973   2.875   6.433  0.7508  0.2190  2.4281
   92SAPS    HB 8963   3.814   2.931   6.442 -0.5030  0.4205  3.4963
   92SAPS    C2 8964   3.860   2.810   6.611  0.7899 -0.5562 -0.5972
   92SAPS    HS 8965   3.921   2.719   6.629  2.4550  0.8045  1.0305
   92SAPS   O21 8966   3.718   2.807   6.647 -0.9030  0.3349  0.0478
   92SAPS   C21 8967   3.697   2.711   6.738 -0.0746 -0.5368 -0.1405
   92SAPS   O22 8968   3.782   2.644   6.788 -0.6523  0.6353  0.1220
   92SAPS   C22 8969   3.553   2.709   6.772  0.3252  0.2265 -0.1452
   92SAPS   H2R 8970   3.525   2.796   6.836 -0.6660 -0.3370  0.1952
   92SAPS   H2S 8971   3.499   2.707   6.675  1.5450 -2.3860 -0.8572
   92SAPS    C3 8972   3.934   2.926   6.688  0.8500  0.3878 -0.3642
   92SAPS    HX 8973   3.888   3.024   6.666 -0.0432  0.1344  0.2782
   92SAPS    HY 8974   4.034   2.945   6.646  1.0983  2.9454  1.1649
   92SAPS   O31 8975   3.951   2.902   6.831  0.3588 -0.2271  0.1483
   92SAPS   C31 8976   3.864   2.950   6.915  1.3948  0.1615 -0.3147
   92SAPS   O32 8977   3.787   3.042   6.882 -0.3523  0.1374 -0.0629
   92SAPS   C32 8978   3.869   2.881   7.050  0.3115 -0.1978  0.1527
   92SAPS   H2X 8979   3.908   2.949   7.129  1.3680 -1.6672  0.9377
   92SAPS   H2Y 8980   3.950   2.805   7.041  1.7236  1.1527  0.8783
   92SAPS   C23 8981   3.522   2.580   6.847  0.3264  0.6754  0.1565
   92SAPS   H3R 8982   3.587   2.577   6.937  0.0479  1.1892  0.3777
   92SAPS   H3S 8983   3.551   2.496   6.780  0.3309 -0.5564  1.6492
   92SAPS   C24 8984   3.377   2.575   6.876 -0.0768  0.8091 -0.7293
   92SAPS   H4R 8985   3.347   2.471   6.905  1.1877  0.7767  0.5918
   92SAPS   H4S 8986   3.326   2.603   6.782 -1.6075  0.6131  0.0016
   92SAPS   C25 8987   3.337   2.664   6.988  0.4902  0.0495 -0.0763
   92SAPS   H5R 8988   3.311   2.769   6.967  0.6843  0.7748  2.9076
   92SAPS   C26 8989   3.332   2.620   7.117 -0.1436  0.1839 -0.3045
   92SAPS   H6R 8990   3.307   2.692   7.196 -0.1064  1.7699 -1.6641
   92SAPS   C27 8991   3.361   2.480   7.165 -0.7588 -0.4402  0.0578
   92SAPS   H7R 8992   3.397   2.412   7.085 -1.7664  1.2214 -1.8892
   92SAPS   H7S 8993   3.262   2.438   7.193  0.0498 -1.4353  1.5498
   92SAPS   C28 8994   3.452   2.473   7.285  0.4700 -0.7917  0.1278
   92SAPS   H8R 8995   3.530   2.550   7.282 -2.0225  1.9352  0.6335
   92SAPS   C29 8996   3.447   2.385   7.390  0.4807  0.3797  0.3903
   92SAPS   H9R 8997   3.526   2.385   7.466  0.7347  2.3911  0.1875
   92SAPS  C210 8998   3.357   2.272   7.413 -0.0617  0.1618  0.0257
   92SAPS  H10R 8999   3.411   2.204   7.482  0.6449  2.2672  1.6457
   92SAPS  H10S 9000   3.348   2.212   7.320 -3.0244 -1.2208  1.0941
   92SAPS  C211 9001   3.222   2.314   7.482  0.5361  0.7942 -0.4058
   92SAPS  H11R 9002   3.134   2.301   7.417  0.1541  2.3540 -0.2240
   92SAPS  C212 9003   3.204   2.351   7.610 -0.1930  0.0556  0.4139
   92SAPS  H12R 9004   3.102   2.366   7.646 -0.7634 -0.5717 -0.8646
   92SAPS  C213 9005   3.313   2.371   7.720 -0.0040  0.0376 -0.4857
   92SAPS  H13R 9006   3.278   2.453   7.787  1.6404 -0.2054  0.7550
   92SAPS  H13S 9007   3.409   2.401   7.674  0.3925 -0.5244 -0.0429
   92SAPS  C214 9008   3.329   2.246   7.797  0.1870 -0.1807  0.0075
   92SAPS  H14R 9009   3.262   2.164   7.767 -0.8818  0.8710 -0.5790
   92SAPS  C215 9010   3.421   2.221   7.895  0.7899 -0.2247 -0.1155
   92SAPS  H15R 9011   3.434   2.121   7.939  2.4407 -0.2078 -0.4998
   92SAPS  C216 9012   3.524   2.324   7.945  0.0384  0.1596 -0.0857
   92SAPS  H16R 9013   3.536   2.404   7.869  1.8589 -0.9092 -0.9697
   92SAPS  H16S 9014   3.618   2.266   7.945 -1.7640 -3.0217 -1.3587
   92SAPS  C217 9015   3.482   2.393   8.073  0.5284 -0.0063  0.5305
   92SAPS  H17R 9016   3.496   2.314   8.149  1.6097 -1.2483 -0.9033
   92SAPS  H17S 9017   3.378   2.432   8.063  0.6032  0.3251  1.0195
   92SAPS  C218 9018   3.568   2.510   8.110 -0.5146 -0.4801  0.2831
   92SAPS  H18R 9019   3.574   2.574   8.020  1.5234  0.6478  1.1459
   92SAPS  H18S 9020   3.673   2.475   8.124 -0.8006 -1.5084 -0.0680
   92SAPS  C219 9021   3.520   2.569   8.240  0.4212 -0.2230  0.6414
   92SAPS  H19R 9022   3.541   2.492   8.318  0.0526 -1.0314 -0.0429
   92SAPS  H19S 9023   3.411   2.591   8.229  0.1100 -1.4950  1.0224
   92SAPS  C220 9024   3.595   2.698   8.281  0.8148 -0.0877  0.4309
   92SAPS  H20R 9025   3.544   2.746   8.367 -2.4283  0.0132 -1.3383
   92SAPS  H20S 9026   3.594   2.769   8.195 -0.7460 -0.2805  0.2498
   92SAPS  H20T 9027   3.702   2.678   8.302  1.2312 -0.4125 -1.7684
   92SAPS   C33 9028   3.739   2.797   7.079  0.1432 -0.3994  0.2209
   92SAPS   H3X 9029   3.738   2.698   7.029  0.9853 -1.1938  1.6909
   92SAPS   H3Y 9030   3.642   2.844   7.052  0.0413 -1.5890 -1.6604
   92SAPS   C34 9031   3.724   2.762   7.229  0.3104 -0.0681  0.6002
   92SAPS   H4X 9032   3.616   2.741   7.246  0.0424  0.1849 -0.6691
   92SAPS   H4Y 9033   3.754   2.846   7.296  0.0358  0.3506  0.2059
   92SAPS   C35 9034   3.816   2.641   7.256  0.1136 -0.1291 -0.2821
   92SAPS   H5X 9035   3.920   2.670   7.229 -0.3666  3.1678  0.9860
   92SAPS   H5Y 9036   3.783   2.559   7.188 -0.5816  0.5462 -0.7732
   92SAPS   C36 9037   3.819   2.584   7.400  0.2575  0.0525 -0.1966
   92SAPS   H6X 9038   3.724   2.534   7.428  1.8418 -2.0718  1.6512
   92SAPS   H6Y 9039   3.833   2.663   7.477 -2.5026  0.1963  0.2871
   92SAPS   C37 9040   3.928   2.475   7.416  0.1102 -0.0168 -0.4464
   92SAPS   H7X 9041   4.024   2.532   7.415 -0.9310  1.8571  0.6142
   92SAPS   H7Y 9042   3.929   2.400   7.334  1.0030 -0.3652 -0.1241
   92SAPS   C38 9043   3.905   2.402   7.557 -0.2136  0.5107 -0.9427
   92SAPS   H8X 9044   3.803   2.361   7.571 -0.1198  0.8153  0.9138
   92SAPS   H8Y 9045   3.923   2.472   7.642  0.1482  0.5637 -1.0611
   92SAPS   C39 9046   4.003   2.284   7.576  0.3537 -0.2881  0.6139
   92SAPS   H9X 9047   4.105   2.305   7.537 -0.3097 -1.8294 -2.2927
   92SAPS   H9Y 9048   3.965   2.209   7.503  1.9348  0.2708 -0.8582
   92SAPS  C310 9049   4.014   2.225   7.715 -0.1029  0.3181 -0.1549
   92SAPS  H10X 9050   3.913   2.194   7.749  0.2736  0.5061  1.2105
   92SAPS  H10Y 9051   4.050   2.302   7.786 -2.5481  0.6320  0.8333
   92SAPS  C311 9052   4.094   2.091   7.716  0.6520 -0.7445 -0.2671
   92SAPS  H11X 9053   4.194   2.120   7.678  1.1436 -3.6129 -1.4718
   92SAPS  H11Y 9054   4.048   2.008   7.658 -2.4248  0.3814  0.3714
   92SAPS  C312 9055   4.131   2.044   7.861  0.3200 -0.0487 -0.3666
   92SAPS  H12X 9056   4.184   1.947   7.854  3.6879  1.3972  2.4094
   92SAPS  H12Y 9057   4.042   2.030   7.925 -0.4623 -0.5748 -1.5298
   92SAPS  C313 9058   4.235   2.130   7.931  0.5147  0.0549  0.1896
   92SAPS  H13X 9059   4.214   2.238   7.918 -0.4762 -0.1734 -0.2242
   92SAPS  H13Y 9060   4.328   2.110   7.875  0.9477  0.8630  0.6062
   92SAPS  C314 9061   4.250   2.086   8.079  0.5950 -0.5174  0.3538
   92SAPS  H14X 9062   4.232   1.977   8.078 -1.1323 -0.2589 -0.1007
   92SAPS  H14Y 9063   4.170   2.118   8.149  1.6198 -0.2495  1.4433
   92SAPS  C315 9064   4.394   2.094   8.145 -0.3333 -0.1268  0.9605
   92SAPS  H15X 9065   4.409   2.203   8.163 -2.0037  0.6398 -1.6400
   92SAPS  H15Y 9066   4.464   2.051   8.069 -1.0431 -1.4511  1.0364
   92SAPS  C316 9067   4.410   2.019   8.271  0.5793 -0.3300 -0.0232
   92SAPS  H16X 9068   4.382   1.913   8.255 -1.7267  0.3747 -1.0735
   92SAPS  H16Y 9069   4.334   2.058   8.342  0.1961 -1.0806 -0.0142
   92SAPS  C317 9070   4.548   2.030   8.335 -0.2445  0.0058 -0.5446
   92SAPS  H17X 9071   4.579   2.136   8.346  1.5796 -0.7493  2.8932
   92SAPS  H17Y 9072   4.618   1.981   8.264 -0.5934 -1.5350  0.1179
   92SAPS  C318 9073   4.546   1.971   8.473 -0.5117  0.1615 -0.5951
   92SAPS  H18X 9074   4.652   1.978   8.507 -0.5041  1.0330 -0.7770
   92SAPS  H18Y 9075   4.504   1.868   8.477 -0.1787  0.0459  0.0319
   92SAPS  H18Z 9076   4.491   2.031   8.549  0.1618 -1.6664  1.4492
   93SAPS     N 9077   3.759   3.909   6.202 -0.0705  0.4091  0.4499
   93SAPS   HN1 9078   3.747   4.008   6.173 -0.3121  0.2460 -0.0107
   93SAPS   HN2 9079   3.862   3.901   6.213  0.1480  2.5744  0.4389
   93SAPS   HN3 9080   3.725   3.851   6.123 -0.2153  0.5580  0.4025
   93SAPS   C12 9081   3.694   3.892   6.331 -0.0105  0.0644  0.6436
   93SAPS  H12A 9082   3.589   3.916   6.327  0.4069  2.3894  1.8898
   93SAPS   C13 9083   3.699   3.742   6.373 -0.0517  0.3729  0.8515
   93SAPS  O13A 9084   3.744   3.657   6.295  0.4352  0.1379 -0.3013
   93SAPS  O13B 9085   3.669   3.712   6.492  0.0963 -0.6109  0.5546
   93SAPS   C11 9086   3.770   3.991   6.430  0.4954  0.1598 -0.2165
   93SAPS  H11A 9087   3.876   3.959   6.424 -0.1575 -1.9976 -0.8187
   93SAPS  H11B 9088   3.741   3.969   6.535 -0.8140  0.7232 -0.4386
   93SAPS     P 9089   3.712   4.234   6.513 -0.0710 -0.3506  0.1386
   93SAPS   O13 9090   3.834   4.295   6.567 -0.6281 -0.0441  0.2250
   93SAPS   O14 9091   3.617   4.330   6.452 -0.0505  0.0429  0.2571
   93SAPS   O12 9092   3.748   4.132   6.403 -0.5619  0.0559  0.1750
   93SAPS   O11 9093   3.636   4.157   6.626 -0.6672 -0.1295 -0.2209
   93SAPS    C1 9094   3.500   4.173   6.666 -0.1956 -0.6995 -0.0294
   93SAPS    HA 9095   3.442   4.204   6.576  0.9291 -1.2204 -0.9769
   93SAPS    HB 9096   3.448   4.080   6.697 -0.4491 -0.8387 -0.8454
   93SAPS    C2 9097   3.498   4.280   6.782  0.9090  0.1162 -0.0424
   93SAPS    HS 9098   3.543   4.373   6.741 -0.0972  0.4572 -0.4047
   93SAPS   O21 9099   3.561   4.224   6.898  0.2936 -0.1690 -0.1701
   93SAPS   C21 9100   3.659   4.297   6.937  0.3567  0.0947 -0.3328
   93SAPS   O22 9101   3.716   4.383   6.872 -0.1777  0.4865 -0.1946
   93SAPS   C22 9102   3.693   4.250   7.083  0.2455 -0.8053  0.7583
   93SAPS   H2R 9103   3.620   4.291   7.156 -0.2256  1.3617 -0.8250
   93SAPS   H2S 9104   3.692   4.139   7.085 -1.1072 -0.8217  0.0048
   93SAPS    C3 9105   3.354   4.312   6.822 -0.1653  0.0416  0.0659
   93SAPS    HX 9106   3.312   4.214   6.853 -1.3802  0.5340  0.0195
   93SAPS    HY 9107   3.288   4.336   6.736 -0.4876  0.0791  0.3184
   93SAPS   O31 9108   3.330   4.405   6.933  0.1931 -0.3149  0.2082
   93SAPS   C31 9109   3.316   4.533   6.904 -0.4281  0.2336 -0.1976
   93SAPS   O32 9110   3.315   4.584   6.793  0.0823 -0.0356 -0.4261
   93SAPS   C32 9111   3.326   4.619   7.030  0.7608  0.3278  0.1539
   93SAPS   H2X 9112   3.242   4.586   7.095  1.0819 -2.6277 -0.7617
   93SAPS   H2Y 9113   3.319   4.718   6.981 -0.1549  0.2045  0.0140
   93SAPS   C23 9114   3.832   4.296   7.120 -0.1863  0.0456 -0.2729
   93SAPS   H3R 9115   3.855   4.404   7.106 -0.4609  0.1614  0.1402
   93SAPS   H3S 9116   3.899   4.243   7.049 -1.5459 -0.1278 -1.4728
   93SAPS   C24 9117   3.868   4.251   7.268  0.4469 -0.6332  0.5344
   93SAPS   H4R 9118   3.979   4.254   7.263  0.3793  0.5866 -1.6413
   93SAPS   H4S 9119   3.840   4.144   7.278 -0.6660 -0.3211  0.9941
   93SAPS   C25 9120   3.803   4.321   7.380 -0.3675 -0.4123  0.3842
   93SAPS   H5R 9121   3.805   4.430   7.371 -0.1170 -0.5277 -1.2165
   93SAPS   C26 9122   3.738   4.266   7.487  0.0053 -0.0388 -0.5280
   93SAPS   H6R 9123   3.707   4.342   7.560 -0.6258  1.6678 -2.4645
   93SAPS   C27 9124   3.716   4.115   7.516  0.2620 -0.6202  0.6151
   93SAPS   H7R 9125   3.757   4.059   7.430  0.8347 -0.8775  1.0441
   93SAPS   H7S 9126   3.607   4.094   7.528 -1.1019  3.1012 -3.1330
   93SAPS   C28 9127   3.800   4.073   7.630 -0.9280  0.7751 -0.6419
   93SAPS   H8R 9128   3.896   4.125   7.643 -0.1038 -0.7509 -0.3929
   93SAPS   C29 9129   3.770   3.967   7.708  0.8351 -0.8099 -0.7898
   93SAPS   H9R 9130   3.833   3.950   7.797  0.3390  0.4846 -0.1606
   93SAPS  C210 9131   3.647   3.880   7.710 -0.4705  0.6686 -0.4639
   93SAPS  H10R 9132   3.586   3.898   7.619 -2.3968 -0.6086  0.5162
   93SAPS  H10S 9133   3.578   3.911   7.792 -0.4745 -2.4268  0.8544
   93SAPS  C211 9134   3.683   3.738   7.737 -0.1482  0.1863  0.0754
   93SAPS  H11R 9135   3.677   3.664   7.656  0.4818 -1.7726  1.7244
   93SAPS  C212 9136   3.717   3.682   7.852 -0.2220  0.0957 -0.0632
   93SAPS  H12R 9137   3.726   3.572   7.862  1.4602  0.0996 -1.1554
   93SAPS  C213 9138   3.740   3.759   7.985  0.4973  0.0664  0.1497
   93SAPS  H13R 9139   3.752   3.867   7.962  3.8548 -0.0297  0.9007
   93SAPS  H13S 9140   3.835   3.728   8.034  0.8388 -0.5543 -0.8602
   93SAPS  C214 9141   3.619   3.749   8.079 -0.3939  0.7405 -0.6960
   93SAPS  H14R 9142   3.528   3.788   8.031 -0.9458  0.1238 -0.1575
   93SAPS  C215 9143   3.609   3.699   8.211 -0.4990 -0.3825 -0.3147
   93SAPS  H15R 9144   3.516   3.699   8.269 -0.6339  0.5439 -0.5116
   93SAPS  C216 9145   3.731   3.645   8.284 -0.8863  0.2305 -0.6602
   93SAPS  H16R 9146   3.824   3.646   8.224  0.1515 -2.7020  0.6920
   93SAPS  H16S 9147   3.710   3.538   8.307  0.5554  0.1822  0.5722
   93SAPS  C217 9148   3.746   3.728   8.413  0.5118  0.3173  0.2771
   93SAPS  H17R 9149   3.650   3.741   8.468 -0.1621  0.8303 -0.9679
   93SAPS  H17S 9150   3.772   3.833   8.387 -0.3672  0.9562  1.8549
   93SAPS  C218 9151   3.847   3.670   8.519  0.1026 -0.4189 -0.1818
   93SAPS  H18R 9152   3.945   3.649   8.470  0.1828  0.1504 -0.2730
   93SAPS  H18S 9153   3.812   3.575   8.564  2.1498 -0.9125  0.5123
   93SAPS  C219 9154   3.861   3.764   8.634  0.4189 -0.2808 -0.2957
   93SAPS  H19R 9155   3.760   3.762   8.679 -0.3667 -1.8245 -1.9563
   93SAPS  H19S 9156   3.883   3.864   8.592  0.2991  0.0626  0.4513
   93SAPS  C220 9157   3.953   3.731   8.752 -0.5236  0.0662 -0.7502
   93SAPS  H20R 9158   3.933   3.629   8.791  0.7724  0.3649  0.8278
   93SAPS  H20S 9159   3.937   3.806   8.832 -2.1350  0.6794 -1.6058
   93SAPS  H20T 9160   4.060   3.738   8.723 -0.2409  1.3087  0.4782
   93SAPS   C33 9161   3.454   4.601   7.111  0.1406  0.2824 -0.0396
   93SAPS   H3X 9162   3.537   4.637   7.048 -0.0168 -0.7626 -0.8709
   93SAPS   H3Y 9163   3.474   4.493   7.130  0.0233  0.1689 -0.5533
   93SAPS   C34 9164   3.466   4.680   7.238 -0.6321 -0.0576 -0.2359
   93SAPS   H4X 9165   3.378   4.658   7.302 -0.5928  0.9271  0.1625
   93SAPS   H4Y 9166   3.474   4.787   7.210 -2.0625 -0.1429 -1.1180
   93SAPS   C35 9167   3.582   4.639   7.322 -0.1955  0.5566 -0.2138
   93SAPS   H5X 9168   3.676   4.670   7.271 -0.1764  0.0058 -0.5276
   93SAPS   H5Y 9169   3.585   4.528   7.336 -0.4151  0.5257 -0.4076
   93SAPS   C36 9170   3.579   4.703   7.465  0.0793 -0.0826  0.3391
   93SAPS   H6X 9171   3.492   4.658   7.518  0.3105  0.6748  1.3920
   93SAPS   H6Y 9172   3.576   4.814   7.453  1.3792 -0.2667 -2.4477
   93SAPS   C37 9173   3.702   4.676   7.552  0.2438  0.8877  0.5460
   93SAPS   H7X 9174   3.787   4.730   7.506 -0.6677  2.5627  0.7323
   93SAPS   H7Y 9175   3.716   4.566   7.554 -3.2027  0.3245 -0.4522
   93SAPS   C38 9176   3.700   4.730   7.698 -0.2394 -0.6481  0.1946
   93SAPS   H8X 9177   3.603   4.703   7.745 -0.2812  0.5392  0.8365
   93SAPS   H8Y 9178   3.688   4.840   7.695 -3.1157 -0.9037 -0.0894
   93SAPS   C39 9179   3.821   4.685   7.782 -0.8142 -0.0785  0.3094
   93SAPS   H9X 9180   3.913   4.727   7.736 -1.9318  2.4738  0.2701
   93SAPS   H9Y 9181   3.816   4.574   7.776 -0.9775  0.0017 -2.4591
   93SAPS  C310 9182   3.826   4.731   7.925  0.6699  0.3659  0.0165
   93SAPS  H10X 9183   3.739   4.687   7.977  0.1766  0.0695 -1.0259
   93SAPS  H10Y 9184   3.819   4.841   7.922 -2.5229  0.2986  1.0422
   93SAPS  C311 9185   3.953   4.672   8.002 -0.5821 -0.7487 -0.4617
   93SAPS  H11X 9186   4.047   4.722   7.971 -1.0930  0.5556 -0.0007
   93SAPS  H11Y 9187   3.957   4.561   8.007 -0.9849 -0.7321  0.5435
   93SAPS  C312 9188   3.939   4.706   8.148  0.8671 -0.6005  0.4404
   93SAPS  H12X 9189   3.845   4.679   8.200  0.8895 -1.0613  0.2435
   93SAPS  H12Y 9190   3.941   4.817   8.158 -0.8187 -0.3536 -1.4722
   93SAPS  C313 9191   4.055   4.664   8.232 -0.4028  0.4202 -0.8264
   93SAPS  H13X 9192   4.140   4.656   8.160  0.8638 -0.6736  0.7142
   93SAPS  H13Y 9193   4.030   4.571   8.288  1.5115  1.0746  1.2454
   93SAPS  C314 9194   4.099   4.776   8.333 -0.4674  0.4982  0.3771
   93SAPS  H14X 9195   4.016   4.804   8.402 -0.4131  2.0192 -0.1498
   93SAPS  H14Y 9196   4.117   4.869   8.276 -0.2552  1.3591  1.8064
   93SAPS  C315 9197   4.222   4.744   8.417  0.1696 -0.4079  0.3584
   93SAPS  H15X 9198   4.224   4.818   8.500 -0.8346 -0.1923  0.2077
   93SAPS  H15Y 9199   4.316   4.747   8.358  0.4226 -0.3434  0.7572
   93SAPS  C316 9200   4.214   4.604   8.487 -0.3210  0.5908 -0.2921
   93SAPS  H16X 9201   4.296   4.599   8.561 -2.0588 -2.8084  1.6600
   93SAPS  H16Y 9202   4.223   4.516   8.419  0.7045 -0.3529  1.0219
   93SAPS  C317 9203   4.083   4.581   8.568 -0.0173  0.5606 -0.2857
   93SAPS  H17X 9204   3.995   4.607   8.504  1.1372 -1.4957 -2.9102
   93SAPS  H17Y 9205   4.090   4.636   8.664  0.8697 -0.5184  0.2907
   93SAPS  C318 9206   4.059   4.432   8.603  0.4480  0.0085 -0.2479
   93SAPS  H18X 9207   4.132   4.396   8.678 -1.3667 -2.8271  0.3405
   93SAPS  H18Y 9208   4.059   4.367   8.512 -1.1354 -1.3182  0.6356
   93SAPS  H18Z 9209   3.966   4.416   8.662  0.8328 -1.2581  0.0404
   94SAPS     N 9210   4.898   6.415   5.855  0.2326  0.4630 -0.2986
   94SAPS   HN1 9211   4.796   6.432   5.862  0.4153  1.3462  0.4503
   94SAPS   HN2 9212   4.945   6.466   5.777 -1.7524 -0.2833 -2.1076
   94SAPS   HN3 9213   4.926   6.316   5.840  0.9130  0.2997  1.7555
   94SAPS   C12 9214   4.954   6.474   5.989  0.2672  0.0302 -0.3467
   94SAPS  H12A 9215   4.904   6.409   6.059 -0.5682 -1.1795 -2.0110
   94SAPS   C13 9216   5.108   6.450   6.011 -0.3228 -0.5932  1.0576
   94SAPS  O13A 9217   5.168   6.362   5.951  0.0914  0.3764 -0.2665
   94SAPS  O13B 9218   5.158   6.523   6.098 -0.5503  0.2783  0.3518
   94SAPS   C11 9219   4.906   6.623   5.998  0.0175 -0.5736 -0.5373
   94SAPS  H11A 9220   4.966   6.697   5.941  4.5358 -1.2797  2.7826
   94SAPS  H11B 9221   4.940   6.648   6.100 -1.1774  2.2762 -0.7388
   94SAPS     P 9222   4.681   6.757   5.956 -0.1226  0.1206  0.5564
   94SAPS   O13 9223   4.742   6.816   5.840 -0.6757  0.4192  0.0269
   94SAPS   O14 9224   4.536   6.742   5.942  0.4184  0.3088 -1.0481
   94SAPS   O12 9225   4.762   6.631   5.993  0.3402  0.8234 -0.5232
   94SAPS   O11 9226   4.718   6.860   6.072 -0.1337  0.3865 -0.4054
   94SAPS    C1 9227   4.722   6.808   6.207 -0.8211 -0.2599  0.6164
   94SAPS    HA 9228   4.727   6.699   6.225 -2.0090 -0.0157  2.7266
   94SAPS    HB 9229   4.807   6.852   6.265 -1.7874  1.8678  0.5145
   94SAPS    C2 9230   4.597   6.849   6.286 -0.1369 -0.3080  0.1997
   94SAPS    HS 9231   4.515   6.796   6.233  1.2955 -2.1265 -0.2614
   94SAPS   O21 9232   4.585   6.997   6.279 -0.1805  0.3873  0.5718
   94SAPS   C21 9233   4.484   7.049   6.344 -0.0330  0.1468  0.5282
   94SAPS   O22 9234   4.392   6.982   6.386 -0.2624 -0.2123  0.3748
   94SAPS   C22 9235   4.482   7.200   6.341 -0.0149 -0.3758 -0.5949
   94SAPS   H2R 9236   4.572   7.243   6.390  0.8806 -0.8653 -1.7601
   94SAPS   H2S 9237   4.485   7.224   6.232 -1.6062  1.2146 -0.3488
   94SAPS    C3 9238   4.602   6.787   6.426 -0.8355 -0.2530 -0.2844
   94SAPS    HX 9239   4.621   6.679   6.409 -1.5736 -0.2825 -0.9491
   94SAPS    HY 9240   4.503   6.791   6.477 -2.0878  0.7776 -2.6673
   94SAPS   O31 9241   4.702   6.849   6.500  0.1720  0.4871  0.0446
   94SAPS   C31 9242   4.787   6.772   6.569  0.5799  0.3134  0.5268
   94SAPS   O32 9243   4.793   6.650   6.569 -0.2963 -0.2976 -0.0052
   94SAPS   C32 9244   4.861   6.861   6.671  0.7737  0.8693 -0.2332
   94SAPS   H2X 9245   4.841   6.810   6.768  2.5357 -0.1448 -0.3607
   94SAPS   H2Y 9246   4.814   6.962   6.669  0.4904  0.7354 -1.3313
   94SAPS   C23 9247   4.349   7.264   6.389 -0.3972 -0.2624 -0.0436
   94SAPS   H3R 9248   4.350   7.277   6.499 -1.0926  1.8072 -0.2413
   94SAPS   H3S 9249   4.262   7.199   6.361  1.0837 -1.1508 -2.9757
   94SAPS   C24 9250   4.325   7.404   6.332  0.2375 -0.8921  0.5241
   94SAPS   H4R 9251   4.225   7.439   6.366 -0.1037  0.8498 -1.9989
   94SAPS   H4S 9252   4.304   7.395   6.223 -1.8626 -2.9861  1.0152
   94SAPS   C25 9253   4.427   7.513   6.365 -0.3430 -0.0620 -0.1807
   94SAPS   H5R 9254   4.505   7.532   6.290  0.0416 -2.3416 -0.4350
   94SAPS   C26 9255   4.421   7.602   6.464 -0.1240 -0.2818 -0.4223
   94SAPS   H6R 9256   4.509   7.667   6.473  0.7461 -1.4139 -0.5377
   94SAPS   C27 9257   4.324   7.607   6.575  0.4925 -0.3021 -0.2282
   94SAPS   H7R 9258   4.384   7.593   6.667  1.5248  5.2445  0.2590
   94SAPS   H7S 9259   4.253   7.522   6.564  1.5762 -1.5925  2.0827
   94SAPS   C28 9260   4.250   7.742   6.579 -0.3189 -0.3854 -0.2241
   94SAPS   H8R 9261   4.225   7.791   6.483 -0.7522 -3.0000 -1.5305
   94SAPS   C29 9262   4.211   7.807   6.692  0.7140 -0.3679  0.2951
   94SAPS   H9R 9263   4.149   7.897   6.682 -0.2084 -0.9558  0.6041
   94SAPS  C210 9264   4.232   7.761   6.834  0.5854 -0.0331  0.4652
   94SAPS  H10R 9265   4.312   7.684   6.838  0.2151 -0.4855 -0.4785
   94SAPS  H10S 9266   4.143   7.702   6.864 -0.0678  0.0771 -1.1419
   94SAPS  C211 9267   4.241   7.872   6.929 -0.0745 -0.2056  0.2676
   94SAPS  H11R 9268   4.250   7.970   6.879  1.8075 -1.3328 -1.7711
   94SAPS  C212 9269   4.247   7.865   7.068  0.6506 -0.0900  0.6256
   94SAPS  H12R 9270   4.256   7.958   7.125  0.2700  1.0714 -1.1323
   94SAPS  C213 9271   4.244   7.734   7.143  0.0060  0.0794 -0.4549
   94SAPS  H13R 9272   4.153   7.673   7.123  0.4223 -1.2164  1.3343
   94SAPS  H13S 9273   4.236   7.752   7.252  0.1582 -0.8154 -0.2868
   94SAPS  C214 9274   4.365   7.653   7.121  0.3587 -0.0904 -0.0520
   94SAPS  H14R 9275   4.459   7.701   7.087 -0.2441  1.7099  0.7230
   94SAPS  C215 9276   4.386   7.523   7.150  0.1615  0.2278  0.2663
   94SAPS  H15R 9277   4.483   7.471   7.145  0.1741  0.4090 -2.0360
   94SAPS  C216 9278   4.275   7.436   7.205  0.6248  0.3265 -0.1273
   94SAPS  H16R 9279   4.267   7.343   7.145  1.0369  0.9204 -1.1349
   94SAPS  H16S 9280   4.171   7.475   7.210 -0.2796 -1.9028 -0.3630
   94SAPS  C217 9281   4.305   7.396   7.351  0.1236 -0.2034 -0.0259
   94SAPS  H17R 9282   4.400   7.339   7.352  0.7727  0.8359 -0.5258
   94SAPS  H17S 9283   4.226   7.325   7.383 -0.4146  0.8174  1.0098
   94SAPS  C218 9284   4.304   7.512   7.452  0.0726 -0.7775 -0.1905
   94SAPS  H18R 9285   4.212   7.574   7.446  0.3701 -0.1118  1.6014
   94SAPS  H18S 9286   4.391   7.577   7.431  0.9205 -2.6558 -2.9625
   94SAPS  C219 9287   4.303   7.471   7.602 -0.0870 -0.8352  0.4315
   94SAPS  H19R 9288   4.389   7.402   7.615 -0.8487 -2.1267 -1.0948
   94SAPS  H19S 9289   4.207   7.420   7.626 -0.6724  0.8505  1.9033
   94SAPS  C220 9290   4.321   7.591   7.697  0.6426  0.2973 -0.2072
   94SAPS  H20R 9291   4.231   7.655   7.690  0.0035 -0.7333 -1.9562
   94SAPS  H20S 9292   4.408   7.647   7.657  0.6039  0.1812 -0.4549
   94SAPS  H20T 9293   4.329   7.544   7.798 -1.6150 -2.6179 -1.2539
   94SAPS   C33 9294   5.004   6.880   6.646 -0.2800  0.4538 -0.1246
   94SAPS   H3X 9295   5.030   6.933   6.552 -0.8963  0.6466 -0.1869
   94SAPS   H3Y 9296   5.067   6.788   6.647 -0.3318  0.4064  1.3827
   94SAPS   C34 9297   5.058   6.970   6.757  0.0610 -0.1621 -0.1628
   94SAPS   H4X 9298   5.168   6.954   6.750 -0.0463 -0.3144 -2.5577
   94SAPS   H4Y 9299   5.020   6.926   6.852  1.6644  2.0160  1.5719
   94SAPS   C35 9300   5.028   7.117   6.744 -0.1888  0.3434  0.2152
   94SAPS   H5X 9301   4.925   7.138   6.779  0.2860  1.6022  0.9083
   94SAPS   H5Y 9302   5.047   7.145   6.638 -0.4183 -1.4860 -0.3448
   94SAPS   C36 9303   5.126   7.206   6.830 -0.1524  0.5631  0.0410
   94SAPS   H6X 9304   5.104   7.314   6.821 -0.3165  0.6030  0.9105
   94SAPS   H6Y 9305   5.228   7.191   6.787  0.3671  1.9829  0.7401
   94SAPS   C37 9306   5.136   7.170   6.985  0.3674  0.0665  0.1475
   94SAPS   H7X 9307   5.239   7.157   7.024  0.2063 -1.1241  0.2183
   94SAPS   H7Y 9308   5.091   7.069   7.001  0.4919 -0.1864 -0.9770
   94SAPS   C38 9309   5.064   7.276   7.062 -0.2404  0.4942  0.3298
   94SAPS   H8X 9310   4.964   7.295   7.017 -0.1946 -0.2885 -0.1127
   94SAPS   H8Y 9311   5.119   7.371   7.047  1.3797 -0.1006  2.1631
   94SAPS   C39 9312   5.045   7.242   7.210 -0.3345 -0.1123 -0.6900
   94SAPS   H9X 9313   5.149   7.256   7.246 -0.0453  1.5296 -2.0310
   94SAPS   H9Y 9314   5.020   7.133   7.213 -0.8164 -0.0747 -2.4614
   94SAPS  C310 9315   4.956   7.324   7.308  0.2033 -0.9196  0.3669
   94SAPS  H10X 9316   4.853   7.301   7.275 -0.3249  1.7392 -0.0891
   94SAPS  H10Y 9317   4.969   7.434   7.303 -2.9691 -0.5104 -3.5148
   94SAPS  C311 9318   4.977   7.297   7.452 -0.4524  0.3538 -0.4546
   94SAPS  H11X 9319   4.973   7.186   7.460  0.2937  0.2204 -1.6723
   94SAPS  H11Y 9320   4.889   7.344   7.501 -1.0679 -0.3712 -0.8200
   94SAPS  C312 9321   5.110   7.352   7.514  0.5864  0.3538 -0.0127
   94SAPS  H12X 9322   5.077   7.373   7.618  1.4155  0.0306  0.3305
   94SAPS  H12Y 9323   5.134   7.452   7.471  0.8339  0.1928 -0.2546
   94SAPS  C313 9324   5.231   7.254   7.525  0.1688 -0.2973  0.5193
   94SAPS  H13X 9325   5.313   7.324   7.552  1.0848 -0.9223 -0.6105
   94SAPS  H13Y 9326   5.254   7.196   7.433  3.1548  0.6845  0.5390
   94SAPS  C314 9327   5.221   7.154   7.636  0.1774 -0.1364  0.9197
   94SAPS  H14X 9328   5.265   7.056   7.606 -0.1259 -0.1422  0.4826
   94SAPS  H14Y 9329   5.114   7.133   7.660  0.7210 -2.5389  1.4827
   94SAPS  C315 9330   5.304   7.193   7.755 -0.8332  0.1017 -0.0898
   94SAPS  H15X 9331   5.299   7.302   7.776  1.6175  0.1031  0.7618
   94SAPS  H15Y 9332   5.412   7.179   7.732 -0.9072  1.7092 -1.6685
   94SAPS  C316 9333   5.270   7.113   7.882 -1.1185  0.1146  0.2467
   94SAPS  H16X 9334   5.298   7.006   7.870  0.5061  0.4556  0.7112
   94SAPS  H16Y 9335   5.163   7.115   7.910 -1.8085  1.0012 -2.2166
   94SAPS  C317 9336   5.361   7.148   8.003  0.5686  0.1988  0.0103
   94SAPS  H17X 9337   5.352   7.258   8.022 -0.2009  0.1458 -0.0162
   94SAPS  H17Y 9338   5.467   7.117   7.993  0.4100 -0.5959  0.6792
   94SAPS  C318 9339   5.313   7.066   8.127 -0.6642  0.5357  0.0246
   94SAPS  H18X 9340   5.382   7.070   8.213  3.0547  4.1168 -2.7237
   94SAPS  H18Y 9341   5.308   6.963   8.088  0.9450  1.2226 -2.1940
   94SAPS  H18Z 9342   5.215   7.108   8.159  0.2300  0.3432  3.2798
   95SAPS     N 9343   0.874   2.532   5.984 -0.3675 -0.0537  0.2389
   95SAPS   HN1 9344   0.837   2.520   6.080 -2.8732 -2.8171 -0.9096
   95SAPS   HN2 9345   0.887   2.630   5.952  1.5068 -0.1219  0.6445
   95SAPS   HN3 9346   0.806   2.503   5.912 -0.6659  0.3709  0.3467
   95SAPS   C12 9347   1.011   2.472   5.954 -0.0464  0.9280  0.0735
   95SAPS  H12A 9348   1.021   2.400   6.033 -1.1781 -1.1276 -1.5422
   95SAPS   C13 9349   1.012   2.390   5.820 -0.7267 -0.0607 -0.0120
   95SAPS  O13A 9350   0.909   2.352   5.759 -0.3383  0.3410  0.0220
   95SAPS  O13B 9351   1.128   2.350   5.785 -0.3899 -0.0576  0.0231
   95SAPS   C11 9352   1.111   2.591   5.944  0.4280 -0.2003 -0.0209
   95SAPS  H11A 9353   1.128   2.633   5.843 -1.5854  1.1433  0.1585
   95SAPS  H11B 9354   1.207   2.542   5.970 -0.3928 -1.7317  0.2390
   95SAPS     P 9355   1.165   2.756   6.142 -0.1155 -0.1863  0.6795
   95SAPS   O13 9356   1.307   2.759   6.104 -0.1744  0.1451 -0.1246
   95SAPS   O14 9357   1.114   2.893   6.190  0.0274 -0.1776 -0.0808
   95SAPS   O12 9358   1.080   2.705   6.024 -0.2325  0.0778  0.3962
   95SAPS   O11 9359   1.152   2.645   6.257 -0.6202  0.3032  0.6701
   95SAPS    C1 9360   1.030   2.633   6.334 -0.5137  0.0629 -0.7028
   95SAPS    HA 9361   0.962   2.719   6.318  1.2754  1.3680 -1.6548
   95SAPS    HB 9362   0.979   2.544   6.290  1.8236 -1.5101 -0.4071
   95SAPS    C2 9363   1.049   2.609   6.480 -0.0735 -0.6643 -0.4496
   95SAPS    HS 9364   0.949   2.589   6.523  0.0915  1.0845  0.8896
   95SAPS   O21 9365   1.105   2.734   6.531 -0.1942  0.7642 -0.1249
   95SAPS   C21 9366   1.018   2.833   6.544  0.1616 -0.4991  0.2898
   95SAPS   O22 9367   0.896   2.832   6.527  0.4355  0.2100  0.3543
   95SAPS   C22 9368   1.087   2.962   6.596 -0.0309 -0.1288 -0.6967
   95SAPS   H2R 9369   1.155   2.939   6.681 -0.8773  1.0462  0.3371
   95SAPS   H2S 9370   1.141   3.009   6.511  0.5869  0.8628  0.2161
   95SAPS    C3 9371   1.149   2.498   6.504 -0.5751  0.0198 -0.2503
   95SAPS    HX 9372   1.249   2.536   6.471 -0.8791  0.3250 -0.8331
   95SAPS    HY 9373   1.118   2.418   6.435  0.2854  0.7037 -1.4766
   95SAPS   O31 9374   1.158   2.450   6.640  0.4123  0.5802  0.1100
   95SAPS   C31 9375   1.249   2.353   6.650 -0.1301  0.1391 -0.2621
   95SAPS   O32 9376   1.334   2.326   6.567 -0.0048  0.2002  0.1639
   95SAPS   C32 9377   1.209   2.283   6.781  0.0198  0.0193 -0.1006
   95SAPS   H2X 9378   1.116   2.225   6.763  0.3988 -0.6409  0.0334
   95SAPS   H2Y 9379   1.187   2.360   6.858  0.6577  1.4933 -1.3239
   95SAPS   C23 9380   0.991   3.067   6.660 -0.3718  0.5737 -0.1723
   95SAPS   H3R 9381   0.934   3.005   6.733  0.0481 -2.1463 -1.9801
   95SAPS   H3S 9382   0.914   3.101   6.587 -2.0480 -0.1876  1.1764
   95SAPS   C24 9383   1.060   3.192   6.726 -0.5266  0.0266 -0.1097
   95SAPS   H4R 9384   1.112   3.147   6.813  0.0222  0.7423 -0.0562
   95SAPS   H4S 9385   0.983   3.263   6.765  0.3886  2.1293 -1.8894
   95SAPS   C25 9386   1.152   3.266   6.630 -0.5294  0.4262 -0.2074
   95SAPS   H5R 9387   1.108   3.305   6.537 -1.3312  1.6226  0.6486
   95SAPS   C26 9388   1.288   3.295   6.657  0.4559  0.0413  0.5153
   95SAPS   H6R 9389   1.345   3.347   6.579 -0.9540  0.3617 -0.3485
   95SAPS   C27 9390   1.363   3.253   6.786 -0.0801 -0.0900  0.2695
   95SAPS   H7R 9391   1.299   3.240   6.875 -1.0547 -0.8074 -0.5164
   95SAPS   H7S 9392   1.429   3.337   6.817 -3.5884  2.7747  0.6480
   95SAPS   C28 9393   1.437   3.119   6.757 -0.0966 -0.4644 -0.3640
   95SAPS   H8R 9394   1.484   3.094   6.661  0.3382 -1.4099  0.0847
   95SAPS   C29 9395   1.469   3.025   6.853  0.9828 -0.1198  0.1718
   95SAPS   H9R 9396   1.494   2.927   6.811  0.6169 -0.2461  0.2470
   95SAPS  C210 9397   1.436   3.026   6.998 -0.0471 -0.1941 -0.2298
   95SAPS  H10R 9398   1.458   2.923   7.035 -1.6417 -0.3697  0.2915
   95SAPS  H10S 9399   1.331   3.053   7.020  0.1152  0.7421 -0.5456
   95SAPS  C211 9400   1.522   3.111   7.096 -0.9389 -0.0557  0.1337
   95SAPS  H11R 9401   1.574   3.199   7.055 -1.1795  0.2088  0.3960
   95SAPS  C212 9402   1.545   3.082   7.226  0.3937  0.5438 -0.4408
   95SAPS  H12R 9403   1.598   3.158   7.284 -0.7846 -0.0247  1.4544
   95SAPS  C213 9404   1.502   2.959   7.299 -0.3171 -0.0630  0.3487
   95SAPS  H13R 9405   1.596   2.924   7.346 -0.8742 -1.4346  0.4868
   95SAPS  H13S 9406   1.472   2.876   7.232 -1.0750 -0.1515  0.7854
   95SAPS  C214 9407   1.398   2.979   7.401  0.4621 -0.6504 -0.5382
   95SAPS  H14R 9408   1.301   3.009   7.358  0.0795 -0.6663  0.2975
   95SAPS  C215 9409   1.407   2.966   7.534 -0.0838 -0.3472 -0.4419
   95SAPS  H15R 9410   1.320   2.997   7.594 -0.7281  1.7423 -2.3077
   95SAPS  C216 9411   1.525   2.929   7.624 -0.1308 -0.0426 -0.1490
   95SAPS  H16R 9412   1.577   3.018   7.666  1.0024  1.0482 -3.5247
   95SAPS  H16S 9413   1.610   2.876   7.575  0.1744 -0.3299  0.6787
   95SAPS  C217 9414   1.483   2.841   7.747 -0.3872  0.6934  0.0854
   95SAPS  H17R 9415   1.571   2.784   7.781 -0.2449  1.1089  0.4192
   95SAPS  H17S 9416   1.415   2.758   7.718  1.1376 -1.5968  2.6110
   95SAPS  C218 9417   1.419   2.932   7.858 -0.1571 -0.0985 -0.8041
   95SAPS  H18R 9418   1.323   2.982   7.834  0.3735  1.6601  0.5050
   95SAPS  H18S 9419   1.487   3.016   7.883  1.1609 -0.9170 -1.5347
   95SAPS  C219 9420   1.407   2.853   7.987 -0.3000 -0.0081 -0.2103
   95SAPS  H19R 9421   1.476   2.767   7.979  0.0865 -0.1130  2.9248
   95SAPS  H19S 9422   1.299   2.826   7.978 -0.5282  1.0012 -0.6715
   95SAPS  C220 9423   1.420   2.940   8.112  0.0032  0.3644  0.3743
   95SAPS  H20R 9424   1.369   3.038   8.111 -0.5826  0.0614 -0.1143
   95SAPS  H20S 9425   1.527   2.958   8.138  0.3077 -2.8238  1.8844
   95SAPS  H20T 9426   1.382   2.888   8.203 -0.7021  0.5921  0.2139
   95SAPS   C33 9427   1.310   2.190   6.852  0.6272  0.0343 -0.3465
   95SAPS   H3X 9428   1.408   2.240   6.867  0.3211  0.3216  0.8560
   95SAPS   H3Y 9429   1.309   2.111   6.774 -1.0231 -0.0262 -0.2882
   95SAPS   C34 9430   1.256   2.132   6.983  0.4606 -0.2012 -0.5628
   95SAPS   H4X 9431   1.145   2.126   6.978  0.4037 -1.2887  1.1925
   95SAPS   H4Y 9432   1.280   2.201   7.067  1.4978  0.2718 -1.2299
   95SAPS   C35 9433   1.311   1.992   7.018  0.1672 -0.0218 -0.1770
   95SAPS   H5X 9434   1.422   1.992   7.012  0.2875  1.3056  1.2818
   95SAPS   H5Y 9435   1.275   1.922   6.940  1.1270  1.5292 -2.1113
   95SAPS   C36 9436   1.285   1.930   7.154 -0.2833 -0.4346  0.5542
   95SAPS   H6X 9437   1.347   1.838   7.152  0.0670 -0.1821 -0.4736
   95SAPS   H6Y 9438   1.179   1.902   7.168 -0.3011 -0.1781  0.9766
   95SAPS   C37 9439   1.311   2.013   7.281 -0.8556  0.0032 -0.2501
   95SAPS   H7X 9440   1.236   2.092   7.303 -0.8014  0.0654 -0.2905
   95SAPS   H7Y 9441   1.403   2.074   7.277 -0.0962 -1.1557 -1.4908
   95SAPS   C38 9442   1.288   1.925   7.405  0.2186 -0.5710  0.4979
   95SAPS   H8X 9443   1.370   1.851   7.406  0.8830  0.1411 -0.2130
   95SAPS   H8Y 9444   1.194   1.865   7.411  0.0674 -0.3138  0.8272
   95SAPS   C39 9445   1.300   2.001   7.541  0.2672 -0.1230  0.8851
   95SAPS   H9X 9446   1.269   2.105   7.520  0.1209  0.1950  2.5186
   95SAPS   H9Y 9447   1.405   1.992   7.576  0.8731 -1.3051 -1.0551
   95SAPS  C310 9448   1.202   1.932   7.643  0.1251  0.0511  0.5776
   95SAPS  H10X 9449   1.214   1.822   7.655 -0.3078  0.0582  1.1170
   95SAPS  H10Y 9450   1.096   1.959   7.623 -0.6453 -2.9978  0.0459
   95SAPS  C311 9451   1.231   1.979   7.788 -0.4826  0.0705  1.0138
   95SAPS  H11X 9452   1.230   2.090   7.797  0.5720  0.3808 -1.8308
   95SAPS  H11Y 9453   1.336   1.958   7.818 -0.4039 -0.8249  0.1666
   95SAPS  C312 9454   1.132   1.927   7.893 -0.3452  0.0197  0.8468
   95SAPS  H12X 9455   1.095   1.827   7.861 -0.2185  0.2567 -0.0609
   95SAPS  H12Y 9456   1.045   1.995   7.908  0.8319  2.0943 -1.2091
   95SAPS  C313 9457   1.203   1.906   8.026  0.4980  0.2370 -0.1653
   95SAPS  H13X 9458   1.211   2.004   8.079 -0.0056  0.9375 -1.3392
   95SAPS  H13Y 9459   1.304   1.863   8.012  0.2506 -0.4393  0.1113
   95SAPS  C314 9460   1.129   1.825   8.135  0.3895  0.4761  0.1322
   95SAPS  H14X 9461   1.075   1.735   8.098  0.7346  0.4723 -0.3735
   95SAPS  H14Y 9462   1.045   1.886   8.173  1.2442 -0.8697  4.9962
   95SAPS  C315 9463   1.212   1.804   8.264  0.4146 -0.0767  0.0675
   95SAPS  H15X 9464   1.288   1.736   8.220 -0.7421 -0.2414 -1.7869
   95SAPS  H15Y 9465   1.154   1.746   8.338 -1.0697 -3.1155 -3.1468
   95SAPS  C316 9466   1.272   1.922   8.331 -0.6134  0.3119 -0.2074
   95SAPS  H16X 9467   1.211   2.016   8.332  0.6021  1.1120  0.9427
   95SAPS  H16Y 9468   1.364   1.947   8.274  0.5206 -1.8676  0.5847
   95SAPS  C317 9469   1.314   1.890   8.476 -0.1339  0.0844  0.4380
   95SAPS  H17X 9470   1.382   1.804   8.460  1.1265  1.1259  0.0660
   95SAPS  H17Y 9471   1.232   1.857   8.543  0.1957 -1.9737 -0.1130
   95SAPS  C318 9472   1.387   2.011   8.542 -0.3199  0.1957  0.5054
   95SAPS  H18X 9473   1.460   2.050   8.468 -2.6846  0.8048 -1.6868
   95SAPS  H18Y 9474   1.439   1.969   8.631 -1.0238 -0.7593  0.4849
   95SAPS  H18Z 9475   1.321   2.095   8.572 -0.3537  0.0029  0.9772
   96SAPS     N 9476   2.088   5.714   5.978  0.3195  0.0942  0.3801
   96SAPS   HN1 9477   2.176   5.764   5.958  2.1038 -2.0570  2.2183
   96SAPS   HN2 9478   2.073   5.731   6.079 -0.4931  0.0130  0.2782
   96SAPS   HN3 9479   2.086   5.613   5.953 -0.9243  0.0908  0.4273
   96SAPS   C12 9480   1.978   5.782   5.905 -0.2079 -0.2722 -0.5226
   96SAPS  H12A 9481   1.969   5.870   5.968  0.9969 -1.0347  0.7782
   96SAPS   C13 9482   2.018   5.828   5.767 -0.2406  0.6179 -0.4660
   96SAPS  O13A 9483   2.132   5.801   5.719  0.1858  0.3890  0.1279
   96SAPS  O13B 9484   1.944   5.905   5.701  0.2452  0.3470  0.5519
   96SAPS   C11 9485   1.844   5.700   5.900 -0.0637  0.1643 -0.6902
   96SAPS  H11A 9486   1.872   5.601   5.860  0.0114  0.3943 -1.2091
   96SAPS  H11B 9487   1.771   5.742   5.828 -0.5294  0.7510  0.1017
   96SAPS     P 9488   1.694   5.560   6.080  0.1645  0.1466 -0.0321
   96SAPS   O13 9489   1.569   5.545   6.005 -0.7764 -0.1947  0.4020
   96SAPS   O14 9490   1.783   5.439   6.078  0.4305  0.1874 -0.0192
   96SAPS   O12 9491   1.780   5.689   6.027  0.4777  0.4257 -0.3714
   96SAPS   O11 9492   1.639   5.581   6.226 -0.2656  0.1243 -0.2127
   96SAPS    C1 9493   1.693   5.673   6.319 -0.1526  0.0445 -0.1003
   96SAPS    HA 9494   1.755   5.755   6.276 -0.3894 -0.8720 -2.2711
   96SAPS    HB 9495   1.611   5.709   6.385 -0.1034 -0.4009  0.2090
   96SAPS    C2 9496   1.778   5.611   6.440  0.6604 -0.4910  0.4677
   96SAPS    HS 9497   1.871   5.571   6.395  2.8965  1.4374  3.0748
   96SAPS   O21 9498   1.684   5.515   6.500 -0.7676  0.0753  0.5953
   96SAPS   C21 9499   1.733   5.394   6.508 -0.4381  0.1314 -0.9478
   96SAPS   O22 9500   1.837   5.357   6.453  0.1304 -0.1290  0.4170
   96SAPS   C22 9501   1.640   5.307   6.584  0.1040 -0.1237  0.0427
   96SAPS   H2R 9502   1.596   5.361   6.670 -2.1874 -0.6776 -0.7070
   96SAPS   H2S 9503   1.549   5.274   6.529 -2.0568  3.7874  0.8652
   96SAPS    C3 9504   1.829   5.708   6.540 -0.4132  0.5417 -0.0781
   96SAPS    HX 9505   1.746   5.781   6.552 -0.5599  0.4544 -0.5295
   96SAPS    HY 9506   1.915   5.768   6.503 -0.5151  0.2421 -0.8137
   96SAPS   O31 9507   1.859   5.651   6.669 -0.0112 -0.0842 -0.2010
   96SAPS   C31 9508   1.981   5.586   6.664 -0.1678 -0.5125  0.0976
   96SAPS   O32 9509   2.063   5.595   6.576 -0.4821 -0.3007 -0.7906
   96SAPS   C32 9510   2.003   5.521   6.795  0.0103  0.0094  0.2627
   96SAPS   H2X 9511   1.998   5.412   6.774  1.4419  0.2363 -1.4635
   96SAPS   H2Y 9512   1.921   5.553   6.863 -0.9619  1.4703 -1.5386
   96SAPS   C23 9513   1.715   5.193   6.657 -0.2110  0.3300  0.0036
   96SAPS   H3R 9514   1.798   5.232   6.720  0.1514  1.3258 -1.0479
   96SAPS   H3S 9515   1.764   5.127   6.582  2.3098 -0.1837  1.9728
   96SAPS   C24 9516   1.636   5.116   6.758  0.3418  0.5269 -0.4046
   96SAPS   H4R 9517   1.583   5.185   6.827  1.3968  1.6165 -0.6579
   96SAPS   H4S 9518   1.715   5.078   6.827  0.1822  0.0971 -0.4545
   96SAPS   C25 9519   1.541   5.010   6.700  0.3202  0.3206  0.0568
   96SAPS   H5R 9520   1.461   5.057   6.640 -0.7424  0.8238  1.8122
   96SAPS   C26 9521   1.551   4.877   6.714  0.9085 -0.9940 -0.5310
   96SAPS   H6R 9522   1.474   4.820   6.659  0.1069  0.1331 -0.6207
   96SAPS   C27 9523   1.654   4.801   6.798  0.2369  0.4508  0.1853
   96SAPS   H7R 9524   1.727   4.877   6.833 -0.4256  0.5417  1.4381
   96SAPS   H7S 9525   1.715   4.720   6.754  0.4695 -0.0389  1.3630
   96SAPS   C28 9526   1.591   4.739   6.923  0.1948 -0.6626  0.1322
   96SAPS   H8R 9527   1.529   4.649   6.919 -0.2310 -0.5347  2.4792
   96SAPS   C29 9528   1.607   4.774   7.053  0.4177 -0.6119 -0.3369
   96SAPS   H9R 9529   1.551   4.722   7.132  0.0162  0.2177 -0.0700
   96SAPS  C210 9530   1.702   4.883   7.103 -0.2582 -0.6485 -0.4076
   96SAPS  H10R 9531   1.798   4.879   7.047  0.5316  0.6335  0.7794
   96SAPS  H10S 9532   1.724   4.857   7.208  0.8044  0.3618 -0.3646
   96SAPS  C211 9533   1.629   5.013   7.098 -0.1846 -0.7754  0.6572
   96SAPS  H11R 9534   1.596   5.052   7.001 -0.1519 -0.4554  0.7753
   96SAPS  C212 9535   1.612   5.101   7.193  0.1742 -0.0341  0.0532
   96SAPS  H12R 9536   1.548   5.188   7.173 -0.7706 -0.5411  0.7817
   96SAPS  C213 9537   1.664   5.090   7.337 -0.1807 -0.1787 -0.2629
   96SAPS  H13R 9538   1.701   5.192   7.359  0.3458 -0.2056 -0.9669
   96SAPS  H13S 9539   1.763   5.039   7.341  0.3232  0.8239  0.7968
   96SAPS  C214 9540   1.563   5.031   7.436 -0.2243 -0.2276  0.2376
   96SAPS  H14R 9541   1.475   4.991   7.384  1.4045  0.1405 -3.0402
   96SAPS  C215 9542   1.576   5.038   7.567  0.4956 -0.3122  0.6312
   96SAPS  H15R 9543   1.492   5.007   7.631 -2.2660  0.6788 -2.2242
   96SAPS  C216 9544   1.695   5.091   7.649 -0.0484  0.5044  0.9797
   96SAPS  H16R 9545   1.772   5.130   7.578 -1.5633 -0.6642 -1.4549
   96SAPS  H16S 9546   1.742   5.004   7.698 -0.3055 -0.5763 -0.6106
   96SAPS  C217 9547   1.643   5.193   7.756 -0.2311 -0.0729  0.3302
   96SAPS  H17R 9548   1.572   5.143   7.826 -0.4450 -0.6515 -0.2895
   96SAPS  H17S 9549   1.595   5.280   7.705  0.2624 -0.7600 -1.3643
   96SAPS  C218 9550   1.756   5.249   7.847 -0.0856  0.0343  0.4949
   96SAPS  H18R 9551   1.720   5.316   7.929 -0.4693  1.2148 -0.6058
   96SAPS  H18S 9552   1.832   5.301   7.785  0.1928 -1.3243 -0.3393
   96SAPS  C219 9553   1.831   5.132   7.916 -0.2436  0.1296  0.6692
   96SAPS  H19R 9554   1.920   5.183   7.959  0.2854 -0.0345 -0.2191
   96SAPS  H19S 9555   1.885   5.058   7.854  1.5782  2.1069 -0.2594
   96SAPS  C220 9556   1.756   5.062   8.026  0.4792 -0.6321 -0.6126
   96SAPS  H20R 9557   1.811   4.983   8.082  2.5227 -0.0612 -1.7026
   96SAPS  H20S 9558   1.662   5.018   7.988  0.4610 -1.3976  0.2889
   96SAPS  H20T 9559   1.733   5.139   8.102  0.5816 -1.0628 -0.1410
   96SAPS   C33 9560   2.133   5.574   6.868 -0.0868  0.3694 -0.2885
   96SAPS   H3X 9561   2.141   5.684   6.879 -1.2556  0.4167  0.3049
   96SAPS   H3Y 9562   2.220   5.536   6.810  0.1023 -0.5243  0.5532
   96SAPS   C34 9563   2.138   5.528   7.015  0.1353  0.1201  0.4689
   96SAPS   H4X 9564   2.109   5.420   7.017 -2.1069  0.6854  1.1966
   96SAPS   H4Y 9565   2.066   5.597   7.064  1.3292  2.8400 -1.4140
   96SAPS   C35 9566   2.277   5.545   7.082  0.3806 -0.4402  0.0485
   96SAPS   H5X 9567   2.352   5.509   7.009  0.8422 -1.6249  1.0602
   96SAPS   H5Y 9568   2.284   5.485   7.176 -2.7175  0.1074  0.7461
   96SAPS   C36 9569   2.302   5.698   7.118  0.6988 -0.1624  0.5572
   96SAPS   H6X 9570   2.286   5.752   7.022  1.4206 -1.5409 -0.3797
   96SAPS   H6Y 9571   2.408   5.717   7.146  0.1787 -0.3839  2.8431
   96SAPS   C37 9572   2.218   5.741   7.248  0.3615 -0.3854 -0.1705
   96SAPS   H7X 9573   2.112   5.726   7.220 -0.1635  0.4018  1.2981
   96SAPS   H7Y 9574   2.236   5.851   7.253  1.9018 -0.4773 -2.2024
   96SAPS   C38 9575   2.261   5.689   7.389  0.0271  0.4297 -0.3261
   96SAPS   H8X 9576   2.243   5.581   7.366 -0.0340  0.5834 -1.0301
   96SAPS   H8Y 9577   2.183   5.725   7.460 -1.9209  1.5338 -2.8491
   96SAPS   C39 9578   2.403   5.737   7.428  0.0509  0.6600 -0.3025
   96SAPS   H9X 9579   2.410   5.847   7.441  0.7190  0.5041  0.7443
   96SAPS   H9Y 9580   2.468   5.731   7.337 -1.3068 -1.9220 -1.2321
   96SAPS  C310 9581   2.465   5.659   7.545 -0.5209 -0.4425 -0.1320
   96SAPS  H10X 9582   2.574   5.679   7.553 -0.3595 -0.2997 -2.1519
   96SAPS  H10Y 9583   2.454   5.552   7.516  3.7644 -1.0253 -0.1694
   96SAPS  C311 9584   2.386   5.670   7.677 -0.5266 -0.2516  0.2247
   96SAPS  H11X 9585   2.394   5.574   7.732  2.9169 -1.0962 -1.4433
   96SAPS  H11Y 9586   2.278   5.689   7.662 -1.1365 -3.2316  0.3410
   96SAPS  C312 9587   2.440   5.784   7.771  0.3030  0.3152 -0.2620
   96SAPS  H12X 9588   2.435   5.883   7.720  1.0833 -0.0029 -0.9606
   96SAPS  H12Y 9589   2.544   5.765   7.802  0.5524  0.0203 -1.2369
   96SAPS  C313 9590   2.352   5.784   7.905  0.1495  0.4225  0.3889
   96SAPS  H13X 9591   2.370   5.684   7.950 -0.8989  1.1393  2.5363
   96SAPS  H13Y 9592   2.249   5.787   7.866  0.3594 -0.8789 -0.3043
   96SAPS  C314 9593   2.360   5.910   7.994  0.7640 -0.1998  1.0123
   96SAPS  H14X 9594   2.316   5.991   7.931  0.8527 -1.0864 -0.2404
   96SAPS  H14Y 9595   2.470   5.925   7.996  0.7496  1.3361 -2.0367
   96SAPS  C315 9596   2.286   5.901   8.128 -0.1501  0.4442 -0.0383
   96SAPS  H15X 9597   2.319   5.814   8.189  2.7305  2.0238  0.8272
   96SAPS  H15Y 9598   2.178   5.886   8.104 -0.6099  3.1517  0.0075
   96SAPS  C316 9599   2.303   6.018   8.218  0.5651  0.0102 -0.4164
   96SAPS  H16X 9600   2.265   6.101   8.155  0.8036 -0.7535 -1.5918
   96SAPS  H16Y 9601   2.413   6.029   8.223  0.7301  0.1597 -3.0487
   96SAPS  C317 9602   2.243   6.000   8.364 -0.0925  0.6215 -0.3552
   96SAPS  H17X 9603   2.300   5.914   8.405 -1.0015 -0.0527 -0.4811
   96SAPS  H17Y 9604   2.135   5.975   8.359  0.1589 -0.6214  0.1835
   96SAPS  C318 9605   2.266   6.116   8.461  0.1876 -0.0482  0.0866
   96SAPS  H18X 9606   2.247   6.092   8.567  0.1298 -1.5849 -0.2482
   96SAPS  H18Y 9607   2.206   6.208   8.444  1.2485  0.8481  1.0890
   96SAPS  H18Z 9608   2.375   6.136   8.460  0.1973  0.1443  2.2912
   97SAPS     N 9609   3.187   3.013   6.477  0.0244 -0.2207 -0.1632
   97SAPS   HN1 9610   3.172   2.910   6.473 -0.7426 -0.1400  0.2742
   97SAPS   HN2 9611   3.279   3.028   6.521  0.2239 -0.1428 -0.5981
   97SAPS   HN3 9612   3.112   3.044   6.542 -1.4546 -1.1966 -1.3230
   97SAPS   C12 9613   3.170   3.069   6.340 -0.4472  0.3190 -0.6614
   97SAPS  H12A 9614   3.236   3.154   6.332 -0.4713  0.4873  0.6811
   97SAPS   C13 9615   3.198   2.969   6.222  0.1906  0.0371  0.3810
   97SAPS  O13A 9616   3.196   2.841   6.247 -0.1710 -0.5832  0.3979
   97SAPS  O13B 9617   3.230   3.026   6.114  0.2458  0.2704  0.0648
   97SAPS   C11 9618   3.028   3.126   6.328  0.4686 -0.0358  0.6974
   97SAPS  H11A 9619   2.965   3.035   6.319 -0.0406  0.3675  0.0741
   97SAPS  H11B 9620   3.029   3.178   6.230 -0.6909 -0.6296  0.3588
   97SAPS     P 9621   2.845   3.279   6.435  0.6252 -0.1434  0.5008
   97SAPS   O13 9622   2.843   3.383   6.328 -0.3466  0.0599 -0.7995
   97SAPS   O14 9623   2.745   3.174   6.434  0.2151 -0.3154 -0.2453
   97SAPS   O12 9624   2.996   3.220   6.433  0.3222 -0.3976 -0.3091
   97SAPS   O11 9625   2.832   3.341   6.574 -0.2524  0.2628  0.1780
   97SAPS    C1 9626   2.924   3.307   6.681  0.2600  0.7990  0.4139
   97SAPS    HA 9627   2.990   3.221   6.657  1.9769  0.8373  4.3499
   97SAPS    HB 9628   2.985   3.398   6.699 -1.6314  1.9894  1.2359
   97SAPS    C2 9629   2.845   3.250   6.802 -0.0342  0.3984 -0.0369
   97SAPS    HS 9630   2.743   3.225   6.764  0.0735 -1.0048  0.5345
   97SAPS   O21 9631   2.844   3.350   6.908  0.0747  0.2212 -0.0790
   97SAPS   C21 9632   2.768   3.324   7.002 -0.1575  0.3539 -0.1092
   97SAPS   O22 9633   2.686   3.234   7.017  0.0339  0.2503  0.4773
   97SAPS   C22 9634   2.781   3.443   7.094  0.6032 -0.1402  0.1093
   97SAPS   H2R 9635   2.879   3.450   7.146  0.4088  2.1409  0.2636
   97SAPS   H2S 9636   2.754   3.535   7.038  0.6913 -0.0749  0.1729
   97SAPS    C3 9637   2.897   3.113   6.855  0.1852 -0.2122 -0.1662
   97SAPS    HX 9638   2.897   3.040   6.771  1.8350 -1.9383  1.2562
   97SAPS    HY 9639   2.832   3.076   6.937  0.0188  3.0508  1.3219
   97SAPS   O31 9640   3.025   3.141   6.917 -0.4601  0.7922  0.3210
   97SAPS   C31 9641   3.134   3.104   6.840 -0.3122 -0.7807 -0.6349
   97SAPS   O32 9642   3.132   3.047   6.735 -0.4021  0.4850  0.3401
   97SAPS   C32 9643   3.264   3.149   6.912  0.2867  0.0993 -0.5101
   97SAPS   H2X 9644   3.246   3.258   6.910 -0.5494  0.0267  1.2364
   97SAPS   H2Y 9645   3.355   3.126   6.852  0.1783 -1.6747 -0.0761
   97SAPS   C23 9646   2.687   3.428   7.213  0.1787 -0.0431 -0.9353
   97SAPS   H3R 9647   2.707   3.326   7.253  1.1199 -0.7140 -2.9715
   97SAPS   H3S 9648   2.586   3.452   7.176 -0.5878  0.0320  1.0936
   97SAPS   C24 9649   2.710   3.532   7.330 -0.2580 -0.0706 -0.5699
   97SAPS   H4R 9650   2.624   3.519   7.399 -1.0569 -1.0828 -1.7077
   97SAPS   H4S 9651   2.717   3.628   7.276 -0.2064 -0.7367 -1.7891
   97SAPS   C25 9652   2.835   3.512   7.416  0.3168 -0.1955  0.1680
   97SAPS   H5R 9653   2.928   3.505   7.357  0.8516 -2.1237  1.1515
   97SAPS   C26 9654   2.843   3.497   7.544  0.0323 -0.4761 -0.0416
   97SAPS   H6R 9655   2.935   3.476   7.600  0.2293  0.6077  0.0583
   97SAPS   C27 9656   2.726   3.495   7.642  0.0555 -0.2538 -0.2419
   97SAPS   H7R 9657   2.632   3.474   7.587 -1.5000  4.7813  0.0169
   97SAPS   H7S 9658   2.715   3.597   7.684  2.2281  0.0600 -0.2970
   97SAPS   C28 9659   2.742   3.380   7.742  0.0472  0.0634 -0.1140
   97SAPS   H8R 9660   2.722   3.279   7.702  1.9227 -1.6934  3.0606
   97SAPS   C29 9661   2.758   3.378   7.875  0.7758  0.2911  0.4506
   97SAPS   H9R 9662   2.777   3.279   7.920  0.3959 -0.1810 -0.3968
   97SAPS  C210 9663   2.770   3.498   7.965 -0.1597 -0.2736 -0.6355
   97SAPS  H10R 9664   2.685   3.499   8.037  0.1505 -0.7416 -0.2553
   97SAPS  H10S 9665   2.792   3.595   7.914  1.3770 -0.7376 -0.9130
   97SAPS  C211 9666   2.902   3.478   8.044 -0.1518 -0.6087  0.3623
   97SAPS  H11R 9667   2.995   3.477   7.985 -1.2463  0.7165 -1.4938
   97SAPS  C212 9668   2.903   3.471   8.180  0.2226 -0.0005  0.6272
   97SAPS  H12R 9669   2.998   3.458   8.235  1.2720 -2.6542 -1.5433
   97SAPS  C213 9670   2.781   3.492   8.264 -0.7949  0.6522 -0.0793
   97SAPS  H13R 9671   2.716   3.401   8.261  0.2791 -0.1053 -0.9740
   97SAPS  H13S 9672   2.724   3.572   8.212  0.4159  1.9149  0.4885
   97SAPS  C214 9673   2.802   3.529   8.409 -0.7082 -1.2090 -0.6044
   97SAPS  H14R 9674   2.767   3.631   8.429 -0.7440 -0.9254 -1.9913
   97SAPS  C215 9675   2.855   3.450   8.507  0.5744 -0.3689  0.1356
   97SAPS  H15R 9676   2.876   3.489   8.608  0.5248  0.8807 -0.3105
   97SAPS  C216 9677   2.903   3.315   8.485 -0.6218  0.5079  0.0081
   97SAPS  H16R 9678   3.006   3.322   8.527 -0.5423  0.8003 -0.2251
   97SAPS  H16S 9679   2.917   3.286   8.378 -1.1293 -2.6082  0.6954
   97SAPS  C217 9680   2.810   3.212   8.545  0.3159 -0.7687 -0.3856
   97SAPS  H17R 9681   2.794   3.232   8.653 -2.6361  0.2823 -0.9209
   97SAPS  H17S 9682   2.864   3.115   8.553  1.2446 -0.4951 -2.7599
   97SAPS  C218 9683   2.673   3.211   8.475  0.2921 -0.3957 -0.2865
   97SAPS  H18R 9684   2.687   3.202   8.365 -1.7957 -1.3262 -0.5286
   97SAPS  H18S 9685   2.608   3.301   8.486  0.3239  0.1907 -3.6934
   97SAPS  C219 9686   2.582   3.106   8.524  0.7115  0.7488  0.4029
   97SAPS  H19R 9687   2.527   3.127   8.618 -0.5345  0.5328 -0.2604
   97SAPS  H19S 9688   2.641   3.012   8.537  0.6139  0.4931 -0.8646
   97SAPS  C220 9689   2.470   3.065   8.427 -0.8987  0.0018  0.4013
   97SAPS  H20R 9690   2.407   2.988   8.476  0.6603 -1.8013 -0.2777
   97SAPS  H20S 9691   2.500   3.023   8.329 -1.0716  1.4246 -0.2917
   97SAPS  H20T 9692   2.406   3.154   8.407 -0.6357  0.1854  0.3686
   97SAPS   C33 9693   3.273   3.089   7.055 -0.7003 -0.4353  0.1456
   97SAPS   H3X 9694   3.274   2.978   7.052 -0.5080 -0.4132 -2.6121
   97SAPS   H3Y 9695   3.180   3.117   7.109  0.0062  2.7117 -0.0627
   97SAPS   C34 9696   3.395   3.140   7.138  0.2845  0.1568 -0.5302
   97SAPS   H4X 9697   3.409   3.249   7.118  2.8727 -0.0297 -0.0700
   97SAPS   H4Y 9698   3.494   3.102   7.105  0.8509  0.4616  0.7432
   97SAPS   C35 9699   3.377   3.112   7.286  0.2498 -0.6238  0.3269
   97SAPS   H5X 9700   3.276   3.142   7.321 -1.0172 -1.5991 -2.2120
   97SAPS   H5Y 9701   3.456   3.178   7.325 -1.1024  1.0522  0.3408
   97SAPS   C36 9702   3.411   2.971   7.325  0.1175  0.3152  0.1657
   97SAPS   H6X 9703   3.516   2.964   7.290  0.3720  1.9838  0.5096
   97SAPS   H6Y 9704   3.365   2.883   7.275 -0.9228 -0.6786  2.7164
   97SAPS   C37 9705   3.411   2.957   7.478 -0.0652 -0.3075  0.3380
   97SAPS   H7X 9706   3.309   2.979   7.517 -0.5505 -0.6931 -0.6996
   97SAPS   H7Y 9707   3.498   3.017   7.511  1.7927 -1.9581 -1.2984
   97SAPS   C38 9708   3.450   2.814   7.526 -0.1942 -0.8601 -0.1087
   97SAPS   H8X 9709   3.557   2.801   7.499 -0.3332 -3.0050  0.2316
   97SAPS   H8Y 9710   3.386   2.747   7.464  0.2997  0.0048 -1.6264
   97SAPS   C39 9711   3.446   2.793   7.676  0.2786  0.1210 -0.1539
   97SAPS   H9X 9712   3.418   2.687   7.692  2.4294 -0.8799 -2.3185
   97SAPS   H9Y 9713   3.355   2.847   7.707  1.2315  1.0459  1.1184
   97SAPS  C310 9714   3.567   2.828   7.756 -0.3038  0.4222  0.6661
   97SAPS  H10X 9715   3.525   2.842   7.858 -0.4094  1.0035  0.5458
   97SAPS  H10Y 9716   3.606   2.930   7.737 -2.4098  0.9932 -1.0632
   97SAPS  C311 9717   3.668   2.711   7.764  0.5119  0.0240  0.0988
   97SAPS  H11X 9718   3.720   2.714   7.666 -0.6605  2.4875 -0.5095
   97SAPS  H11Y 9719   3.609   2.618   7.777  0.8157 -0.1295  0.4036
   97SAPS  C312 9720   3.765   2.730   7.876 -0.1196  0.3700 -0.4466
   97SAPS  H12X 9721   3.713   2.740   7.974 -2.2371  0.0059 -1.4775
   97SAPS  H12Y 9722   3.822   2.821   7.851  0.3776 -0.0654 -0.9119
   97SAPS  C313 9723   3.867   2.612   7.890 -0.2297 -0.6355  0.3282
   97SAPS  H13X 9724   3.942   2.609   7.808  0.4828  0.1478  0.9369
   97SAPS  H13Y 9725   3.815   2.514   7.893  0.4703 -1.0338 -0.1650
   97SAPS  C314 9726   3.944   2.623   8.023  0.2392  0.7286  0.5283
   97SAPS  H14X 9727   3.880   2.664   8.105 -1.6466 -0.8305 -0.0747
   97SAPS  H14Y 9728   4.020   2.700   8.001 -1.1215  1.4013 -2.4583
   97SAPS  C315 9729   4.021   2.501   8.069 -0.3419 -0.0249  0.4240
   97SAPS  H15X 9730   4.069   2.447   7.985 -1.9894 -0.3048 -0.3952
   97SAPS  H15Y 9731   3.951   2.425   8.111 -1.8941  0.2306 -1.5113
   97SAPS  C316 9732   4.127   2.534   8.171 -0.0956 -0.2237 -0.4106
   97SAPS  H16X 9733   4.072   2.572   8.259  1.5392  0.7238  0.2515
   97SAPS  H16Y 9734   4.212   2.603   8.149  1.1380 -1.7716 -0.6870
   97SAPS  C317 9735   4.194   2.410   8.221 -0.6608 -0.3871  0.6023
   97SAPS  H17X 9736   4.258   2.376   8.138 -2.8619 -0.3867 -1.1982
   97SAPS  H17Y 9737   4.120   2.330   8.245 -2.0351  0.7538  0.2769
   97SAPS  C318 9738   4.283   2.421   8.347  0.4646 -0.7537  0.0676
   97SAPS  H18X 9739   4.218   2.472   8.422 -1.9117 -2.3339 -0.8067
   97SAPS  H18Y 9740   4.368   2.489   8.329 -1.7679  1.3558 -3.5973
   97SAPS  H18Z 9741   4.303   2.325   8.400 -0.7753 -2.0485 -1.6790
   98SAPS     N 9742   6.608   2.186   6.367  0.4445 -0.3079  0.2073
   98SAPS   HN1 9743   6.620   2.287   6.348  1.3348 -0.6092 -0.8871
   98SAPS   HN2 9744   6.508   2.171   6.392  0.8891  0.2364  2.5434
   98SAPS   HN3 9745   6.660   2.170   6.456  1.5080 -0.5499 -0.4530
   98SAPS   C12 9746   6.635   2.093   6.257 -0.0825 -0.4267 -0.2837
   98SAPS  H12A 9747   6.624   1.990   6.286 -1.2816 -0.7115 -1.6507
   98SAPS   C13 9748   6.542   2.109   6.130 -0.0291 -0.0540 -0.2960
   98SAPS  O13A 9749   6.443   2.188   6.133  0.2928  0.2864  0.2144
   98SAPS  O13B 9750   6.560   2.029   6.034 -0.2917  0.7111  0.1614
   98SAPS   C11 9751   6.788   2.111   6.214 -0.2099  0.1698 -0.3043
   98SAPS  H11A 9752   6.798   2.052   6.121 -1.9396  0.5458 -0.7488
   98SAPS  H11B 9753   6.849   2.063   6.294  0.6318  1.0879 -0.3607
   98SAPS     P 9754   6.960   2.296   6.139  0.7313  0.0406  0.1988
   98SAPS   O13 9755   6.951   2.273   5.993  0.1793  0.8791 -0.2868
   98SAPS   O14 9756   6.981   2.435   6.188 -1.1607  0.0498  0.7426
   98SAPS   O12 9757   6.833   2.245   6.196  0.3335 -0.5311 -0.0027
   98SAPS   O11 9758   7.062   2.198   6.201 -0.3605 -0.5711  0.0686
   98SAPS    C1 9759   7.097   2.209   6.338 -0.2018 -0.8722  0.2418
   98SAPS    HA 9760   7.098   2.313   6.378  0.6924  0.0344 -1.9726
   98SAPS    HB 9761   7.018   2.161   6.400 -1.4856 -1.2259 -1.6017
   98SAPS    C2 9762   7.237   2.156   6.376 -0.7589  0.2248  0.6163
   98SAPS    HS 9763   7.311   2.189   6.300  0.6651 -2.4573  0.7139
   98SAPS   O21 9764   7.234   2.008   6.369  0.3127 -0.0858  0.0312
   98SAPS   C21 9765   7.350   1.944   6.375 -0.8955 -0.1821 -0.2424
   98SAPS   O22 9766   7.459   1.994   6.390  0.5800 -0.2274 -0.2149
   98SAPS   C22 9767   7.321   1.792   6.390 -0.2752 -0.4809  0.1791
   98SAPS   H2R 9768   7.239   1.763   6.320 -0.6396 -2.5390  1.3897
   98SAPS   H2S 9769   7.420   1.753   6.361 -0.0009  0.1952  0.1833
   98SAPS    C3 9770   7.277   2.196   6.519  0.6997  0.2334 -0.1633
   98SAPS    HX 9771   7.246   2.300   6.544  1.7239  0.3556  0.7128
   98SAPS    HY 9772   7.388   2.208   6.518  0.7523 -0.2453 -0.3248
   98SAPS   O31 9773   7.239   2.104   6.628  0.4376 -0.0837 -0.2751
   98SAPS   C31 9774   7.118   2.123   6.679  0.4177 -0.0247 -0.2046
   98SAPS   O32 9775   7.034   2.209   6.647  0.7065 -0.5276 -0.5259
   98SAPS   C32 9776   7.089   2.028   6.791  0.0973  0.2272  0.1462
   98SAPS   H2X 9777   7.182   1.968   6.793 -0.7577 -1.1350  0.5768
   98SAPS   H2Y 9778   7.004   1.961   6.768  0.2662  0.5580 -1.6392
   98SAPS   C23 9779   7.283   1.746   6.533 -0.5724  0.4435 -0.3178
   98SAPS   H3R 9780   7.212   1.662   6.521  0.5524 -0.4798 -0.6330
   98SAPS   H3S 9781   7.230   1.817   6.600 -0.9453 -1.2095  1.2334
   98SAPS   C24 9782   7.403   1.689   6.620 -0.6253  0.4567  0.1124
   98SAPS   H4R 9783   7.423   1.585   6.585 -0.5976  0.4805  0.0589
   98SAPS   H4S 9784   7.371   1.697   6.726  1.7863  2.9301  0.7646
   98SAPS   C25 9785   7.531   1.767   6.602 -0.0600 -0.1384 -0.2841
   98SAPS   H5R 9786   7.579   1.761   6.503  0.4817 -0.2641 -0.0204
   98SAPS   C26 9787   7.605   1.836   6.696  0.1409  0.5457 -0.1374
   98SAPS   H6R 9788   7.701   1.874   6.659 -0.3646  2.7149  0.6474
   98SAPS   C27 9789   7.569   1.847   6.839  0.3501  0.3256  0.2691
   98SAPS   H7R 9790   7.489   1.776   6.869  1.0242  0.5882  2.8989
   98SAPS   H7S 9791   7.528   1.950   6.840 -1.3001 -0.2704 -1.2150
   98SAPS   C28 9792   7.700   1.829   6.923  0.3814  0.3272  0.2108
   98SAPS   H8R 9793   7.794   1.802   6.873  1.6967  0.9965  2.2108
   98SAPS   C29 9794   7.710   1.849   7.054 -0.0858 -0.0546  0.3247
   98SAPS   H9R 9795   7.810   1.848   7.100 -1.3210  0.7176  3.2115
   98SAPS  C210 9796   7.601   1.900   7.143  0.2972 -0.1272  0.3525
   98SAPS  H10R 9797   7.540   1.981   7.098  0.5015 -1.0054 -1.5941
   98SAPS  H10S 9798   7.647   1.953   7.229  1.9243  1.1220 -1.2025
   98SAPS  C211 9799   7.522   1.784   7.193 -0.2599  1.0648 -0.6641
   98SAPS  H11R 9800   7.466   1.724   7.119  0.5895 -0.8327  0.1691
   98SAPS  C212 9801   7.526   1.743   7.327 -0.1577  0.4843  0.2588
   98SAPS  H12R 9802   7.461   1.659   7.355 -0.3051 -0.4250 -2.4645
   98SAPS  C213 9803   7.606   1.801   7.445  0.6348  0.2283  0.9156
   98SAPS  H13R 9804   7.710   1.820   7.412  0.6572 -0.3271  0.6485
   98SAPS  H13S 9805   7.615   1.720   7.520 -1.8945 -0.4612  0.5683
   98SAPS  C214 9806   7.561   1.930   7.499  0.6088  0.6182 -0.4010
   98SAPS  H14R 9807   7.513   1.997   7.427 -0.1615 -0.1797 -0.6471
   98SAPS  C215 9808   7.573   1.974   7.626 -0.0428  0.0998 -0.3445
   98SAPS  H15R 9809   7.522   2.067   7.656  1.2021 -0.0116  2.3955
   98SAPS  C216 9810   7.636   1.901   7.739 -0.8229  0.2317  0.4553
   98SAPS  H16R 9811   7.686   1.979   7.801  1.9975 -0.2634 -1.0432
   98SAPS  H16S 9812   7.719   1.837   7.702 -0.3167  0.3458  1.3342
   98SAPS  C217 9813   7.552   1.818   7.834  0.4041 -0.3410  0.8300
   98SAPS  H17R 9814   7.511   1.725   7.787  0.1841  0.2006 -0.0706
   98SAPS  H17S 9815   7.468   1.886   7.859  1.2842  1.5581 -1.0932
   98SAPS  C218 9816   7.634   1.761   7.951 -0.8977  0.5498 -0.0492
   98SAPS  H18R 9817   7.685   1.853   7.987  1.9336 -0.9186 -0.0607
   98SAPS  H18S 9818   7.708   1.690   7.909 -0.5698  1.5424 -1.2325
   98SAPS  C219 9819   7.561   1.705   8.072 -0.1433 -0.6088 -0.3766
   98SAPS  H19R 9820   7.496   1.777   8.125 -0.9914  0.2508 -2.4541
   98SAPS  H19S 9821   7.632   1.686   8.155 -1.8788  0.2342  1.3571
   98SAPS  C220 9822   7.478   1.584   8.040 -0.3194 -0.3735 -0.3304
   98SAPS  H20R 9823   7.406   1.609   7.959  1.2857  2.2704 -1.0405
   98SAPS  H20S 9824   7.435   1.531   8.129  0.4815 -0.5749 -0.0551
   98SAPS  H20T 9825   7.552   1.511   8.000  1.5896 -0.0451  2.2997
   98SAPS   C33 9826   7.079   2.106   6.925  0.0799 -0.0738  0.3542
   98SAPS   H3X 9827   6.971   2.103   6.950  0.0382 -2.1228  0.0274
   98SAPS   H3Y 9828   7.097   2.216   6.923  1.3235 -0.2702  0.2300
   98SAPS   C34 9829   7.175   2.052   7.035  0.1887 -0.3119  0.4193
   98SAPS   H4X 9830   7.284   2.064   7.018  0.7480 -1.1521  2.9521
   98SAPS   H4Y 9831   7.168   1.941   7.033  2.4281 -0.5582 -3.1917
   98SAPS   C35 9832   7.146   2.120   7.166  0.8995 -0.4245 -0.5503
   98SAPS   H5X 9833   7.050   2.109   7.221  0.7172  2.9041  0.0031
   98SAPS   H5Y 9834   7.145   2.227   7.139 -0.9051 -0.5341 -1.0275
   98SAPS   C36 9835   7.247   2.097   7.277 -0.2688  0.1827  0.0140
   98SAPS   H6X 9836   7.346   2.135   7.244 -0.5185 -0.4763 -1.6132
   98SAPS   H6Y 9837   7.254   1.990   7.305 -0.6986 -0.0750 -0.8232
   98SAPS   C37 9838   7.199   2.180   7.395 -0.2894 -0.3193 -0.1020
   98SAPS   H7X 9839   7.097   2.143   7.419  0.2593 -0.9286  1.3848
   98SAPS   H7Y 9840   7.199   2.284   7.357  0.3084 -0.6762 -1.1414
   98SAPS   C38 9841   7.274   2.167   7.527  0.4283 -0.8635 -0.6049
   98SAPS   H8X 9842   7.368   2.226   7.531 -0.6246  0.8158  0.5929
   98SAPS   H8Y 9843   7.287   2.057   7.537 -0.2020 -0.9631 -0.8630
   98SAPS   C39 9844   7.185   2.213   7.646  0.4685  0.5493 -0.2843
   98SAPS   H9X 9845   7.086   2.169   7.620  0.2217 -0.0344  1.5408
   98SAPS   H9Y 9846   7.181   2.324   7.650  1.9060  0.6185 -0.3876
   98SAPS  C310 9847   7.232   2.162   7.785 -0.1397 -0.6933 -0.2517
   98SAPS  H10X 9848   7.340   2.185   7.797 -0.1610 -0.8240  0.2102
   98SAPS  H10Y 9849   7.220   2.053   7.796 -1.6984 -0.4988  0.2243
   98SAPS  C311 9850   7.142   2.222   7.896  0.1397  0.3662 -0.4407
   98SAPS  H11X 9851   7.035   2.206   7.869  0.9757 -0.4354 -3.6864
   98SAPS  H11Y 9852   7.169   2.329   7.892 -0.5192  0.5168 -3.2577
   98SAPS  C312 9853   7.164   2.155   8.033 -0.2714  0.7094  1.4399
   98SAPS  H12X 9854   7.271   2.161   8.063  0.4083 -1.1609 -0.3793
   98SAPS  H12Y 9855   7.147   2.046   8.024  1.6819  0.2863  2.1943
   98SAPS  C313 9856   7.085   2.212   8.145  0.3293 -0.0139  0.4181
   98SAPS  H13X 9857   6.976   2.200   8.125  0.1282  1.5174  0.4427
   98SAPS  H13Y 9858   7.088   2.323   8.141 -2.1117  0.1997  1.9949
   98SAPS  C314 9859   7.140   2.172   8.284  0.3062  0.2043 -0.1639
   98SAPS  H14X 9860   7.249   2.194   8.281  0.5759 -1.0793 -2.7042
   98SAPS  H14Y 9861   7.121   2.070   8.322 -0.2328  0.4221  0.1667
   98SAPS  C315 9862   7.064   2.269   8.385  0.2214  0.5564  0.2957
   98SAPS  H15X 9863   6.971   2.210   8.405  1.1301 -1.8018 -1.8485
   98SAPS  H15Y 9864   7.046   2.370   8.342  1.3433 -0.0446 -1.7749
   98SAPS  C316 9865   7.144   2.263   8.515  0.0860 -0.5340 -0.4001
   98SAPS  H16X 9866   7.247   2.303   8.517  0.2141 -0.8540 -0.5721
   98SAPS  H16Y 9867   7.145   2.155   8.541  0.3883 -0.5630 -0.5268
   98SAPS  C317 9868   7.077   2.325   8.636  1.1544 -0.0982  0.5781
   98SAPS  H17X 9869   6.975   2.281   8.644  0.4501  1.3196 -0.2036
   98SAPS  H17Y 9870   7.060   2.434   8.619 -2.6879 -0.1725  2.6943
   98SAPS  C318 9871   7.145   2.298   8.774 -0.6333 -0.4209  0.4255
   98SAPS  H18X 9872   7.143   2.190   8.797  1.2804 -0.8974 -1.3798
   98SAPS  H18Y 9873   7.096   2.363   8.849  2.2304  0.9177  1.2850
   98SAPS  H18Z 9874   7.250   2.331   8.757 -0.3173 -1.2551  0.7135
   99SAPS     N 9875   0.270   2.652   6.063  0.4054  0.0174  0.4910
   99SAPS   HN1 9876   0.218   2.579   6.116  1.9475 -2.9906 -1.8077
   99SAPS   HN2 9877   0.276   2.615   5.966 -2.0413 -0.4790  0.4547
   99SAPS   HN3 9878   0.359   2.661   6.115 -0.0973  4.4014  0.9656
   99SAPS   C12 9879   0.193   2.786   6.056  0.0671 -0.1842 -0.1147
   99SAPS  H12A 9880   0.265   2.863   6.032  0.4489 -0.3808  0.3820
   99SAPS   C13 9881   0.077   2.791   5.960  0.1814  0.3463  0.2434
   99SAPS  O13A 9882   0.045   2.687   5.891 -0.1395 -0.2031  0.0237
   99SAPS  O13B 9883   0.022   2.902   5.936 -0.4656 -0.1188 -0.1287
   99SAPS   C11 9884   0.136   2.812   6.197  0.8308 -0.3476 -0.1786
   99SAPS  H11A 9885   0.060   2.734   6.220 -0.4172  0.7941 -0.3471
   99SAPS  H11B 9886   0.088   2.912   6.197  0.1325 -0.6694  0.6703
   99SAPS     P 9887   0.297   2.933   6.359  0.0568  0.0714 -0.3000
   99SAPS   O13 9888   0.401   2.887   6.460 -0.9119 -1.0264 -0.0743
   99SAPS   O14 9889   0.353   3.021   6.254  0.0575 -0.1194 -0.4043
   99SAPS   O12 9890   0.240   2.798   6.296 -0.4423 -0.3419  0.5533
   99SAPS   O11 9891   0.185   3.010   6.435  0.3470  0.1943  0.0027
   99SAPS    C1 9892   0.086   2.938   6.513 -0.5953  0.5161 -0.0026
   99SAPS    HA 9893  -0.017   2.980   6.509 -0.2881  1.5206  1.5373
   99SAPS    HB 9894   0.081   2.828   6.504 -1.9492  0.5499  0.1000
   99SAPS    C2 9895   0.115   2.961   6.672 -0.1585  0.2662  0.4139
   99SAPS    HS 9896   0.082   3.064   6.696  0.5375 -0.1391  3.5473
   99SAPS   O21 9897   0.257   2.937   6.705  0.1600 -0.0392 -1.1187
   99SAPS   C21 9898   0.340   3.037   6.707  0.1061 -0.5590 -0.1681
   99SAPS   O22 9899   0.306   3.155   6.699  0.6688  0.1037 -0.4886
   99SAPS   C22 9900   0.478   2.994   6.748  0.9946  0.6502  0.6006
   99SAPS   H2R 9901   0.468   2.933   6.840  4.2567  0.8831  1.2241
   99SAPS   H2S 9902   0.518   2.924   6.672 -2.1314  0.9472 -1.4929
   99SAPS    C3 9903   0.034   2.870   6.768  0.1452  0.7412 -0.0880
   99SAPS    HX 9904   0.077   2.769   6.755 -0.5601  0.2258  1.4300
   99SAPS    HY 9905  -0.071   2.854   6.738  0.2008 -0.9980  0.5665
   99SAPS   O31 9906   0.052   2.914   6.896  0.3839  0.0233 -0.1598
   99SAPS   C31 9907  -0.047   2.884   6.978  0.9168  0.2505 -0.0026
   99SAPS   O32 9908  -0.153   2.839   6.942  0.0619  0.1501 -1.0804
   99SAPS   C32 9909  -0.003   2.918   7.118 -0.8153 -0.0309 -0.2881
   99SAPS   H2X 9910  -0.018   3.026   7.136  2.1042  0.5956 -1.1243
   99SAPS   H2Y 9911   0.107   2.906   7.126 -0.8738  0.3978  1.6144
   99SAPS   C23 9912   0.571   3.107   6.789 -0.1196 -0.2423 -0.4285
   99SAPS   H3R 9913   0.573   3.193   6.719  2.1660 -0.3525 -0.5773
   99SAPS   H3S 9914   0.678   3.075   6.793  0.8356  2.7415 -0.1173
   99SAPS   C24 9915   0.548   3.157   6.930  0.4869 -0.8960  0.1412
   99SAPS   H4R 9916   0.525   3.070   6.995  1.8969 -0.6593  1.0063
   99SAPS   H4S 9917   0.459   3.222   6.915  0.2300 -1.5156 -1.1583
   99SAPS   C25 9918   0.661   3.232   6.998 -0.3710 -0.0654 -0.1557
   99SAPS   H5R 9919   0.663   3.336   6.963  1.1658 -0.4981 -1.4335
   99SAPS   C26 9920   0.761   3.188   7.082 -0.5274  0.3094 -0.6453
   99SAPS   H6R 9921   0.844   3.251   7.117 -1.2644 -0.5061  2.9793
   99SAPS   C27 9922   0.769   3.042   7.130  0.0336 -0.2391 -0.4773
   99SAPS   H7R 9923   0.669   2.998   7.148 -0.1566  0.4710  0.2006
   99SAPS   H7S 9924   0.808   3.052   7.234  0.8690  1.4132 -0.9205
   99SAPS   C28 9925   0.847   2.953   7.037 -0.1144 -0.7346 -0.0046
   99SAPS   H8R 9926   0.835   2.967   6.929  0.1402  0.0150  0.0566
   99SAPS   C29 9927   0.942   2.868   7.079 -0.5724 -0.4712 -0.0946
   99SAPS   H9R 9928   1.003   2.827   6.998  1.5484 -0.9483  1.6375
   99SAPS  C210 9929   0.995   2.839   7.218 -0.1363  0.1115 -0.1479
   99SAPS  H10R 9930   1.011   2.935   7.272 -0.4561 -1.1303  2.3058
   99SAPS  H10S 9931   1.093   2.788   7.224  0.3723  1.1714  1.4655
   99SAPS  C211 9932   0.902   2.755   7.302  0.1987 -0.0987 -0.3929
   99SAPS  H11R 9933   0.817   2.699   7.260 -1.3527  1.9035 -0.1171
   99SAPS  C212 9934   0.896   2.749   7.435  0.3811  0.0324 -0.2137
   99SAPS  H12R 9935   0.830   2.669   7.470  0.8870 -0.0271  0.6318
   99SAPS  C213 9936   0.976   2.806   7.542  0.0738 -0.4849  0.0504
   99SAPS  H13R 9937   0.900   2.833   7.619 -0.2166 -1.3805  0.0923
   99SAPS  H13S 9938   1.000   2.902   7.493  0.5236 -1.4861 -1.7700
   99SAPS  C214 9939   1.101   2.741   7.602  0.7077 -0.3854  0.2009
   99SAPS  H14R 9940   1.172   2.733   7.519 -0.0466 -0.2905 -0.4636
   99SAPS  C215 9941   1.127   2.702   7.726  1.3079 -0.2913 -0.1952
   99SAPS  H15R 9942   1.215   2.642   7.752 -0.2452 -2.2502  0.7396
   99SAPS  C216 9943   1.029   2.713   7.843 -0.6953  0.7352 -0.3636
   99SAPS  H16R 9944   1.058   2.648   7.928  0.3755  0.4783 -0.9142
   99SAPS  H16S 9945   0.929   2.673   7.815 -0.3564  0.1797 -0.8048
   99SAPS  C217 9946   1.011   2.858   7.884 -0.2640 -0.7669 -0.1836
   99SAPS  H17R 9947   0.965   2.923   7.806  2.3798  0.0225 -1.2035
   99SAPS  H17S 9948   1.107   2.910   7.907 -1.4089  1.9313 -1.0142
   99SAPS  C218 9949   0.928   2.866   8.010 -0.0599  0.2879 -0.1807
   99SAPS  H18R 9950   0.972   2.802   8.089  1.5260  0.9175 -0.5219
   99SAPS  H18S 9951   0.821   2.840   7.995  0.1419 -1.6605  1.3246
   99SAPS  C219 9952   0.933   3.008   8.076 -0.2266 -0.8811  0.0142
   99SAPS  H19R 9953   0.921   3.094   8.006  0.5031  0.6813  1.7184
   99SAPS  H19S 9954   1.036   3.012   8.118  0.1120 -0.4503 -0.8264
   99SAPS  C220 9955   0.820   3.017   8.180 -0.0515  0.1658 -0.5062
   99SAPS  H20R 9956   0.841   3.106   8.244 -0.5159  0.5056 -0.8100
   99SAPS  H20S 9957   0.828   2.928   8.246  0.1631  1.5768  1.4575
   99SAPS  H20T 9958   0.721   3.032   8.131  0.3798 -0.0123 -1.4520
   99SAPS   C33 9959  -0.090   2.838   7.216  0.4771 -0.0391  0.0139
   99SAPS   H3X 9960  -0.054   2.733   7.225 -0.4500 -0.2280  1.8048
   99SAPS   H3Y 9961  -0.196   2.840   7.182  0.7292  1.1325 -0.7539
   99SAPS   C34 9962  -0.096   2.909   7.352 -0.3221 -0.1629 -1.0174
   99SAPS   H4X 9963  -0.169   2.858   7.419  2.1842 -0.5730  1.5886
   99SAPS   H4Y 9964  -0.125   3.016   7.338  0.3495 -0.0865 -1.8587
   99SAPS   C35 9965   0.046   2.914   7.419  0.5671 -0.0409 -0.1970
   99SAPS   H5X 9966   0.122   2.957   7.351 -0.6656  1.8541 -0.4440
   99SAPS   H5Y 9967   0.074   2.808   7.439  1.7368  0.1544 -0.7318
   99SAPS   C36 9968   0.053   2.989   7.556 -0.4414 -0.2844  0.0283
   99SAPS   H6X 9969   0.137   2.947   7.615 -1.6101 -2.1091  0.4561
   99SAPS   H6Y 9970  -0.039   2.964   7.614  0.5736 -0.4326  1.6389
   99SAPS   C37 9971   0.063   3.139   7.544 -0.9685  0.4451 -0.0637
   99SAPS   H7X 9972  -0.026   3.181   7.494  0.6399  2.6160 -1.3001
   99SAPS   H7Y 9973   0.151   3.176   7.487  0.2768 -1.5516  0.4668
   99SAPS   C38 9974   0.081   3.212   7.679 -0.5125 -0.5594 -0.4252
   99SAPS   H8X 9975   0.102   3.320   7.664 -2.0799 -0.1775 -0.0776
   99SAPS   H8Y 9976   0.174   3.178   7.731  0.6677  2.6867 -0.2085
   99SAPS   C39 9977  -0.030   3.199   7.782 -1.1571  0.2292  0.0848
   99SAPS   H9X 9978  -0.126   3.237   7.740 -0.6378  1.1085 -0.3386
   99SAPS   H9Y 9979   0.007   3.266   7.863  1.5204 -0.7604 -0.2328
   99SAPS  C310 9980  -0.044   3.065   7.853  0.4123  0.0862  0.6218
   99SAPS  H10X 9981   0.052   3.012   7.871  0.2144 -1.5359 -2.4020
   99SAPS  H10Y 9982  -0.110   2.995   7.797 -0.6750  0.3867  1.4887
   99SAPS  C311 9983  -0.112   3.080   7.993  0.1862 -0.0984  0.5810
   99SAPS  H11X 9984  -0.057   3.161   8.045  1.9507 -0.8045 -0.1196
   99SAPS  H11Y 9985  -0.087   2.984   8.042  2.2929 -0.1356 -0.4660
   99SAPS  C312 9986  -0.258   3.118   7.995 -0.3758  0.4858  0.0074
   99SAPS  H12X 9987  -0.325   3.042   7.951  0.0452  0.2792 -0.2775
   99SAPS  H12Y 9988  -0.277   3.204   7.927  2.9855 -1.0538 -3.2064
   99SAPS  C313 9989  -0.316   3.141   8.141 -0.2665  0.1724 -0.2023
   99SAPS  H13X 9990  -0.311   3.051   8.205 -0.4711 -1.1965 -2.0331
   99SAPS  H13Y 9991  -0.424   3.161   8.129 -0.1885 -0.7090 -2.9375
   99SAPS  C314 9992  -0.242   3.246   8.220 -0.7208  0.0285  0.8437
   99SAPS  H14X 9993  -0.135   3.222   8.237 -0.7924  0.2230  1.6098
   99SAPS  H14Y 9994  -0.296   3.254   8.317 -0.4488  0.7807  0.9435
   99SAPS  C315 9995  -0.244   3.386   8.150  1.1748 -0.2287 -0.3096
   99SAPS  H15X 9996  -0.346   3.411   8.114  0.0926 -1.5168  1.6629
   99SAPS  H15Y 9997  -0.176   3.372   8.062  2.1881  1.1400  0.2226
   99SAPS  C316 9998  -0.189   3.496   8.247  0.4568 -0.2108 -0.5037
   99SAPS  H16X 9999  -0.243   3.517   8.342  0.6189  0.0518 -0.4687
   99SAPS  H16Y10000  -0.204   3.586   8.184  1.6771  1.7006  1.7401
   99SAPS  C31710001  -0.035   3.501   8.268  0.1936  0.8657 -1.1621
   99SAPS  H17X10002  -0.010   3.407   8.322 -1.7028  1.4743  0.9540
   99SAPS  H17Y10003  -0.008   3.587   8.332  0.0776 -0.4347  0.7400
   99SAPS  C31810004   0.045   3.507   8.139  0.0574  0.0607 -0.3017
   99SAPS  H18X10005   0.040   3.615   8.113  0.1435  0.7738  2.3349
   99SAPS  H18Y10006   0.017   3.439   8.055  2.3104  1.3001 -2.1710
   99SAPS  H18Z10007   0.150   3.490   8.168  0.4128  1.8974 -0.4208
  100SAPS     N10008   3.386   2.658   6.257 -0.3550 -0.3318  0.1943
  100SAPS   HN110009   3.486   2.684   6.249 -0.2501 -0.3691  1.3080
  100SAPS   HN210010   3.316   2.733   6.274 -0.3317 -0.4241  0.6951
  100SAPS   HN310011   3.389   2.598   6.341  1.5004 -0.7745 -0.1411
  100SAPS   C1210012   3.345   2.583   6.135  0.4732  0.7372  0.3044
  100SAPS  H12A10013   3.239   2.570   6.149  0.9265 -1.3150  2.4292
  100SAPS   C1310014   3.375   2.653   6.001 -0.0159 -0.2508  0.6009
  100SAPS  O13A10015   3.463   2.740   5.999 -0.3637 -0.6229  0.3561
  100SAPS  O13B10016   3.309   2.630   5.895  0.3574  0.7007 -0.3838
  100SAPS   C1110017   3.414   2.444   6.131 -0.6994  0.0518  0.0272
  100SAPS  H11A10018   3.524   2.459   6.125 -0.4310 -2.0038 -1.0825
  100SAPS  H11B10019   3.370   2.396   6.041 -3.6781  0.6594  1.0227
  100SAPS     P10020   3.370   2.206   6.232 -0.2231 -0.3654  0.5973
  100SAPS   O1310021   3.279   2.152   6.333 -0.0014 -0.1417 -0.5106
  100SAPS   O1410022   3.330   2.173   6.091 -0.3159 -0.1024 -0.4223
  100SAPS   O1210023   3.381   2.364   6.247  0.0965  0.3019  0.0838
  100SAPS   O1110024   3.512   2.156   6.263  0.0976 -0.1800  0.6081
  100SAPS    C110025   3.625   2.228   6.279 -0.4746 -0.4723  0.2039
  100SAPS    HA10026   3.708   2.177   6.227  2.0583  2.6268  0.8790
  100SAPS    HB10027   3.627   2.328   6.230  3.1158 -0.2154  0.6388
  100SAPS    C210028   3.663   2.263   6.427 -0.8533 -1.2624  0.2981
  100SAPS    HS10029   3.743   2.193   6.457 -0.4173 -1.3267 -0.9302
  100SAPS   O2110030   3.549   2.258   6.506  0.4172  0.7060 -0.5393
  100SAPS   C2110031   3.516   2.142   6.556 -0.2812 -0.4123  0.0339
  100SAPS   O2210032   3.579   2.038   6.540 -0.4009  0.5160 -0.3714
  100SAPS   C2210033   3.393   2.142   6.638 -0.2120 -0.2320 -0.5468
  100SAPS   H2R10034   3.347   2.242   6.630  0.0449  0.0384  1.0423
  100SAPS   H2S10035   3.324   2.060   6.609  1.9010 -2.8972  1.3933
  100SAPS    C310036   3.737   2.400   6.450  0.6664  0.9077 -0.6542
  100SAPS    HX10037   3.673   2.487   6.425 -0.6802 -0.3475 -1.7104
  100SAPS    HY10038   3.823   2.398   6.379  1.0021  0.1929 -0.2455
  100SAPS   O3110039   3.787   2.408   6.587 -0.0232  0.6347  0.0702
  100SAPS   C3110040   3.904   2.352   6.612 -0.8305  0.4871 -0.3196
  100SAPS   O3210041   3.976   2.293   6.532  0.0875 -0.6636 -0.4146
  100SAPS   C3210042   3.942   2.369   6.757  0.3142  0.4018 -0.1321
  100SAPS   H2X10043   3.977   2.473   6.772  0.2385  0.2272  1.3361
  100SAPS   H2Y10044   4.023   2.299   6.784 -0.3256 -0.1051  0.5288
  100SAPS   C2310045   3.426   2.136   6.792 -0.0974  0.6292 -0.0450
  100SAPS   H3R10046   3.466   2.238   6.813 -0.8913  0.8066  0.6861
  100SAPS   H3S10047   3.501   2.064   6.830 -0.7555  1.0347  2.1993
  100SAPS   C2410048   3.300   2.106   6.877  1.1534  0.5550  0.2800
  100SAPS   H4R10049   3.322   2.081   6.983 -2.2812 -0.4885  0.8623
  100SAPS   H4S10050   3.263   2.007   6.843  0.1243  1.5762 -1.7677
  100SAPS   C2510051   3.184   2.201   6.870 -0.1044  0.1056 -0.1711
  100SAPS   H5R10052   3.171   2.265   6.782 -1.9663 -2.0237 -1.5641
  100SAPS   C2610053   3.083   2.211   6.959 -0.4716 -0.5739  0.1069
  100SAPS   H6R10054   3.002   2.283   6.943  0.8796  1.0225  0.1754
  100SAPS   C2710055   3.064   2.137   7.085 -0.2365 -0.5095 -0.1078
  100SAPS   H7R10056   3.007   2.195   7.161 -1.4782 -1.6895 -0.0892
  100SAPS   H7S10057   3.165   2.109   7.123  0.6706  2.4167 -0.1531
  100SAPS   C2810058   2.996   2.006   7.039  0.6584  0.5623  0.3275
  100SAPS   H8R10059   3.021   1.980   6.935  1.8315  1.3906  0.3725
  100SAPS   C2910060   2.934   1.923   7.127  0.6169  0.1520 -0.2427
  100SAPS   H9R10061   2.885   1.840   7.074 -0.3402  1.5791 -1.7279
  100SAPS  C21010062   2.901   1.932   7.272  0.0212 -0.0607 -0.5555
  100SAPS  H10R10063   2.984   1.970   7.335 -0.3200 -1.4150  0.7512
  100SAPS  H10S10064   2.868   1.833   7.310  2.9431 -0.9713 -0.2076
  100SAPS  C21110065   2.774   2.018   7.279  0.2113 -0.4357 -0.0679
  100SAPS  H11R10066   2.700   1.996   7.201  0.9096 -1.4070 -0.4809
  100SAPS  C21210067   2.732   2.095   7.379  0.2210 -0.1605 -0.3130
  100SAPS  H12R10068   2.635   2.145   7.365  0.3087 -0.3357 -1.6229
  100SAPS  C21310069   2.796   2.126   7.512  0.4615  0.5523 -0.8136
  100SAPS  H13R10070   2.903   2.098   7.520  0.7158  1.1137 -1.9417
  100SAPS  H13S10071   2.757   2.051   7.583 -1.8753  1.9923 -0.4544
  100SAPS  C21410072   2.779   2.254   7.577 -0.4818 -0.4455 -1.4274
  100SAPS  H14R10073   2.746   2.337   7.513  0.9162  0.2207 -1.3401
  100SAPS  C21510074   2.814   2.280   7.709  0.2597  0.1386 -0.0433
  100SAPS  H15R10075   2.808   2.385   7.742  1.9098  0.3599 -0.3966
  100SAPS  C21610076   2.868   2.191   7.819  0.4968  0.5027 -0.5561
  100SAPS  H16R10077   2.972   2.221   7.844  0.5666  0.5841 -0.9327
  100SAPS  H16S10078   2.870   2.087   7.780 -2.2890 -0.2805  1.1312
  100SAPS  C21710079   2.778   2.211   7.943 -0.3076  0.6799 -1.0758
  100SAPS  H17R10080   2.812   2.140   8.021  0.2555  1.1801 -0.8552
  100SAPS  H17S10081   2.670   2.192   7.926 -0.8672  1.0065  1.5839
  100SAPS  C21810082   2.773   2.352   8.004  0.3364  0.1760 -0.2290
  100SAPS  H18R10083   2.725   2.343   8.103 -0.0907 -2.0191 -0.5802
  100SAPS  H18S10084   2.702   2.407   7.938  1.2877  1.1049 -0.5023
  100SAPS  C21910085   2.907   2.430   8.032 -0.3657  0.3288  0.4621
  100SAPS  H19R10086   2.956   2.474   7.942  0.5036  1.7385  1.5960
  100SAPS  H19S10087   2.982   2.359   8.075 -2.1005 -2.3666 -0.6426
  100SAPS  C22010088   2.890   2.534   8.138 -0.4108  0.0967  0.2877
  100SAPS  H20R10089   2.887   2.466   8.227 -2.1627 -0.7998 -0.3957
  100SAPS  H20S10090   2.791   2.583   8.129 -1.0088 -0.9817  0.7622
  100SAPS  H20T10091   2.979   2.599   8.148  0.0343 -0.2911 -1.0221
  100SAPS   C3310092   3.828   2.316   6.841  0.1658  0.2563  0.5009
  100SAPS   H3X10093   3.835   2.207   6.821  1.5885  0.3753  0.2930
  100SAPS   H3Y10094   3.728   2.356   6.816  0.3761  1.1940  1.1084
  100SAPS   C3410095   3.847   2.357   6.987 -0.6971 -0.4311 -0.1714
  100SAPS   H4X10096   3.841   2.468   6.997  0.1326 -0.4583  0.8036
  100SAPS   H4Y10097   3.944   2.330   7.034  0.9355  1.0503 -2.4587
  100SAPS   C3510098   3.740   2.295   7.072 -0.2830 -0.1523  0.0826
  100SAPS   H5X10099   3.641   2.326   7.033 -0.6555 -2.7192 -1.2031
  100SAPS   H5Y10100   3.743   2.325   7.179  1.0407  0.4469 -0.0986
  100SAPS   C3610101   3.733   2.138   7.063  0.2444 -0.2252  0.3260
  100SAPS   H6X10102   3.835   2.095   7.051  1.2348  2.0348  0.2510
  100SAPS   H6Y10103   3.671   2.113   6.974  1.3127 -0.5655 -0.3403
  100SAPS   C3710104   3.657   2.071   7.182  0.4632 -0.2010 -0.2204
  100SAPS   H7X10105   3.659   1.961   7.163 -1.0516 -0.0181 -1.7139
  100SAPS   H7Y10106   3.552   2.103   7.162  0.1163  0.5856  2.5053
  100SAPS   C3810107   3.698   2.123   7.321  0.3520  1.4470  0.4033
  100SAPS   H8X10108   3.656   2.223   7.343 -0.1182  0.5544  4.4179
  100SAPS   H8Y10109   3.808   2.134   7.308  0.3284  0.4692 -0.8146
  100SAPS   C3910110   3.649   2.023   7.424 -0.1869  0.3147 -0.2574
  100SAPS   H9X10111   3.662   1.914   7.404 -1.3413 -0.5593  3.0431
  100SAPS   H9Y10112   3.538   2.035   7.429 -0.2011  0.0789  0.0358
  100SAPS  C31010113   3.699   2.047   7.572 -0.7811  0.0147  0.1021
  100SAPS  H10X10114   3.695   2.155   7.597 -4.6880  0.4623 -1.6660
  100SAPS  H10Y10115   3.804   2.012   7.580 -1.0869 -1.5391 -1.7837
  100SAPS  C31110116   3.623   1.963   7.677 -0.7626 -0.0537  0.7525
  100SAPS  H11X10117   3.601   1.865   7.628 -2.5574  1.3986 -1.5405
  100SAPS  H11Y10118   3.531   2.019   7.704 -0.1897  0.6153  1.3476
  100SAPS  C31210119   3.722   1.933   7.796 -0.2482 -0.1790  0.1851
  100SAPS  H12X10120   3.782   2.020   7.828 -0.0023 -1.4229  3.4839
  100SAPS  H12Y10121   3.781   1.845   7.762 -1.0744  0.0730 -2.0436
  100SAPS  C31310122   3.638   1.880   7.911 -0.6250 -0.8513 -0.4525
  100SAPS  H13X10123   3.585   1.783   7.898  1.7379 -2.4148  0.8480
  100SAPS  H13Y10124   3.560   1.957   7.934 -2.0463 -2.1654 -0.7045
  100SAPS  C31410125   3.730   1.848   8.030  0.5400  0.0681  0.5031
  100SAPS  H14X10126   3.805   1.771   8.001  0.7256  0.5027 -0.1790
  100SAPS  H14Y10127   3.663   1.796   8.102 -0.6861  0.8956 -0.0070
  100SAPS  C31510128   3.793   1.978   8.099  0.1845 -0.1738  0.6725
  100SAPS  H15X10129   3.711   2.045   8.133  1.1076 -0.0716  2.9313
  100SAPS  H15Y10130   3.832   2.035   8.012 -0.9901 -0.8289 -0.3094
  100SAPS  C31610131   3.901   1.954   8.202  0.2852  0.3312  0.4108
  100SAPS  H16X10132   3.992   1.920   8.148  0.0561 -0.5750  0.5716
  100SAPS  H16Y10133   3.861   1.879   8.274 -2.1042  0.1185 -1.0326
  100SAPS  C31710134   3.943   2.072   8.281 -0.4323  0.6920  0.2199
  100SAPS  H17X10135   3.859   2.119   8.337 -2.4770 -1.5861 -0.7710
  100SAPS  H17Y10136   3.965   2.149   8.204 -2.2925  0.2097 -0.8636
  100SAPS  C31810137   4.053   2.053   8.384  0.2565  0.1774  1.3129
  100SAPS  H18X10138   4.013   1.996   8.470 -1.2676 -0.7708  0.0300
  100SAPS  H18Y10139   4.098   2.149   8.417  0.5315 -0.4072  2.7105
  100SAPS  H18Z10140   4.134   1.993   8.338 -0.3785 -0.9245  1.6069
  101OSM      N10141   2.027   3.446  11.116  0.3967 -0.2937 -0.3705
  101OSM    C1510142   2.099   3.314  11.132  0.3969  0.0792 -0.2174
  101OSM   H15A10143   2.207   3.317  11.124  0.5133  0.9284  1.2592
  101OSM   H15B10144   2.065   3.251  11.051 -0.1451  0.9807 -0.7028
  101OSM   H15C10145   2.069   3.267  11.225 -2.2242  0.6600 -0.7064
  101OSM    C1410146   1.874   3.421  11.123 -0.0029 -0.4850 -0.0539
  101OSM   H14A10147   1.859   3.349  11.043  1.9701 -0.1677 -0.7824
  101OSM   H14B10148   1.824   3.514  11.104  0.3796 -0.5130 -1.3011
  101OSM   H14C10149   1.849   3.383  11.220  1.1864  1.4717  1.0826
  101OSM    C1310150   2.065   3.520  11.240  0.2571  0.2361  0.5328
  101OSM   H13A10151   2.037   3.466  11.329 -0.6107  0.7789  0.5974
  101OSM   H13B10152   2.021   3.618  11.239  0.5393  0.3914  1.7786
  101OSM   H13C10153   2.172   3.536  11.245  0.8159 -2.6209 -0.2831
  101OSM    C1210154   2.067   3.526  10.996 -0.1433  0.4130 -0.4934
  101OSM   H12A10155   2.174   3.545  11.001 -0.3289  1.2406  1.4435
  101OSM   H12B10156   2.016   3.621  10.993  1.2340  1.2015 -0.1842
  101OSM    C1110157   2.037   3.464  10.853 -0.4111  0.7396  0.6721
  101OSM   H11A10158   2.080   3.362  10.846 -1.9085  0.1479 -0.3389
  101OSM   H11B10159   2.092   3.520  10.775  0.3410 -2.4976 -1.3014
  101OSM      P10160   1.828   3.357  10.751 -0.0198  0.3246 -0.1876
  101OSM    O1310161   1.840   3.236  10.834  0.3702  0.1456  0.3416
  101OSM    O1410162   1.684   3.385  10.716 -0.2029  0.1376 -0.4059
  101OSM    O1110163   1.910   3.320  10.629 -0.0243 -0.0016 -0.6415
  101OSM    O1210164   1.895   3.482  10.826 -0.1606 -0.1653  0.3382
  101OSM    C1S10165   1.903   3.372  10.497  0.4270 -0.3681 -0.3104
  101OSM    H1S10166   1.865   3.476  10.486 -0.3488 -0.5656  0.4419
  101OSM    H1T10167   1.837   3.303  10.441 -1.4806 -0.9631  2.4663
  101OSM     NF10168   2.020   3.439  10.297 -0.2126  0.3190 -0.6363
  101OSM    HNF10169   1.986   3.386  10.219 -2.1887 -1.4217  1.2599
  101OSM    C2S10170   2.038   3.361  10.420  1.1553  0.0814  0.2818
  101OSM    H2S10171   2.119   3.409  10.480  1.7512  0.3816 -0.7471
  101OSM    C3S10172   2.075   3.215  10.404 -0.0382 -0.1334 -0.0455
  101OSM    H3S10173   1.999   3.155  10.350 -0.9187 -0.4103  1.4425
  101OSM     O310174   2.084   3.155  10.531  0.6181 -0.0937 -0.7628
  101OSM    HO310175   2.036   3.216  10.588 -1.7945  0.9564 -3.7120
  101OSM    C4S10176   2.214   3.200  10.339 -0.0076  0.1552 -0.8489
  101OSM    H4S10177   2.286   3.256  10.401 -2.8081  0.4541  2.4222
  101OSM    C5S10178   2.247   3.146  10.221  1.1564 -0.0815 -0.0526
  101OSM    H5S10179   2.165   3.133  10.149  1.0281  0.4536 -0.0090
  101OSM    C6S10180   2.387   3.147  10.171 -0.5279 -0.0070 -0.1252
  101OSM    H6S10181   2.426   3.043  10.167 -0.1919  0.1508 -1.6230
  101OSM    H6T10182   2.460   3.210  10.227 -1.3112  0.7699  0.0407
  101OSM    C7S10183   2.380   3.201  10.027 -0.2076 -0.1131 -0.3825
  101OSM    H7S10184   2.335   3.302  10.021 -1.2908 -0.5636  0.0122
  101OSM    H7T10185   2.316   3.130   9.970  0.1349 -0.9236  0.2213
  101OSM    C8S10186   2.517   3.201   9.958 -0.6321  0.9045  0.4956
  101OSM    H8S10187   2.551   3.096   9.970  0.9026  1.4350  0.9459
  101OSM    H8T10188   2.587   3.270  10.010  0.1192  1.2402 -0.9187
  101OSM    C9S10189   2.505   3.237   9.807 -0.2976 -0.3861  0.3154
  101OSM    H9S10190   2.458   3.337   9.798 -1.9187 -1.2721 -1.8727
  101OSM    H9T10191   2.439   3.165   9.755  1.0500 -0.7449 -0.9817
  101OSM   C10S10192   2.641   3.216   9.724  0.5850 -0.6711 -0.2642
  101OSM   H10S10193   2.719   3.147   9.764 -0.2326 -1.2041  0.4353
  101OSM   H10T10194   2.689   3.316   9.732  0.4211 -0.7124  2.3555
  101OSM   C11S10195   2.620   3.182   9.578 -0.2431  0.0085 -0.0738
  101OSM   H11S10196   2.539   3.248   9.543  0.0387  0.4608  0.1106
  101OSM   H11T10197   2.576   3.080   9.575 -1.4391  0.5263 -0.7391
  101OSM   C12S10198   2.759   3.199   9.503  0.1747 -0.3612 -0.2308
  101OSM   H12S10199   2.828   3.123   9.546 -1.5325 -2.7508 -1.4469
  101OSM   H12T10200   2.803   3.298   9.527  1.7366 -0.4110 -2.5960
  101OSM   C13S10201   2.743   3.201   9.348 -0.3570 -0.1920 -1.0535
  101OSM   H13S10202   2.724   3.097   9.312  1.3327 -1.3430  1.1552
  101OSM   H13T10203   2.845   3.214   9.307  0.2258 -1.6428 -0.1615
  101OSM   C14S10204   2.654   3.313   9.294  0.3122 -0.4888  0.9485
  101OSM   H14S10205   2.666   3.397   9.366 -0.1041 -0.3119  0.8118
  101OSM   H14T10206   2.548   3.281   9.289  0.0454  0.5367 -0.5679
  101OSM   C15S10207   2.687   3.360   9.146  0.3619  0.0874  0.4805
  101OSM   H15S10208   2.792   3.396   9.141  0.5880 -0.5608  0.4358
  101OSM   H15T10209   2.626   3.443   9.104  0.6978  0.3157  0.4389
  101OSM   C16S10210   2.664   3.234   9.054  0.6084  0.4773  0.2803
  101OSM   H16S10211   2.562   3.221   9.012  1.5600  0.9120 -2.3179
  101OSM   H16T10212   2.674   3.137   9.107 -0.5711 -0.9923 -2.0340
  101OSM   C17S10213   2.743   3.225   8.921 -0.7400 -0.5203  0.0026
  101OSM   H17S10214   2.711   3.317   8.867 -0.2729  0.7177  1.7345
  101OSM   H17T10215   2.717   3.136   8.860  0.9547 -0.4791 -0.8421
  101OSM   C18S10216   2.900   3.233   8.940  0.9942 -0.1240  0.3441
  101OSM   H18S10217   2.935   3.161   9.018 -0.3525 -1.1159  0.0550
  101OSM   H18T10218   2.925   3.338   8.966 -1.6284  0.3012  1.4114
  101OSM   H18U10219   2.953   3.203   8.848  0.2294 -0.4905  0.0201
  101OSM    C1F10220   2.010   3.576  10.293  0.3109  0.0265  0.8752
  101OSM     OF10221   2.060   3.651  10.375  0.2520 -0.4310 -0.1402
  101OSM    C2F10222   1.917   3.629  10.184 -0.6395 -0.1453 -0.6367
  101OSM    H2F10223   1.825   3.568  10.173 -0.6063 -0.6824  1.6282
  101OSM    H2G10224   1.971   3.616  10.087  1.5014 -0.1179  0.4816
  101OSM    C3F10225   1.878   3.775  10.213  0.4876 -0.2385  0.3827
  101OSM    H3F10226   1.973   3.832  10.225  0.2507 -0.2853  2.9287
  101OSM    H3G10227   1.825   3.783  10.310  0.6741 -1.1382  0.5683
  101OSM    C4F10228   1.793   3.838  10.099  0.6619  0.3095 -0.2384
  101OSM    H4F10229   1.855   3.839  10.006  0.4559  0.0907 -0.3790
  101OSM    H4G10230   1.781   3.945  10.128  1.5665 -0.7025  4.7111
  101OSM    C5F10231   1.653   3.776  10.074 -0.5568 -0.0011  0.6143
  101OSM    H5F10232   1.581   3.767  10.158 -1.0964 -1.1737  0.0581
  101OSM    H5G10233   1.664   3.673  10.034 -2.8518  0.5864 -1.8375
  101OSM    C6F10234   1.581   3.841   9.960 -0.8556  0.3696  0.0330
  101OSM    H6F10235   1.630   3.814   9.864 -0.7743  1.7552 -0.3333
  101OSM    H6G10236   1.580   3.952   9.957 -0.0926  0.3904 -3.4520
  101OSM    C7F10237   1.437   3.796   9.938 -0.1985 -0.3731 -0.5722
  101OSM    H7F10238   1.376   3.846  10.016  1.1787 -1.2270  1.1416
  101OSM    H7G10239   1.412   3.689   9.956 -0.9578 -0.3949 -1.6603
  101OSM    C8F10240   1.380   3.829   9.797  0.7585 -0.5602  0.3809
  101OSM    H8F10241   1.430   3.766   9.721  0.5053  1.4021 -1.5109
  101OSM    H8G10242   1.403   3.936   9.778  3.0141 -0.9837  0.4439
  101OSM    C9F10243   1.227   3.814   9.779 -0.6008 -0.4851  0.3367
  101OSM    H9F10244   1.169   3.761   9.856  0.2393 -0.6545  0.8636
  101OSM   C10F10245   1.156   3.860   9.679  0.0468 -0.3980 -0.3168
  101OSM   H10F10246   1.053   3.824   9.671  0.1536 -1.0731  1.1097
  101OSM   C11F10247   1.203   3.932   9.555 -0.0921  0.4739 -0.5148
  101OSM   H11F10248   1.177   3.870   9.467  0.9583 -1.0200  0.1904
  101OSM   H11G10249   1.313   3.938   9.562 -0.1819  1.1519  0.5672
  101OSM   C12F10250   1.147   4.074   9.539  0.2883  0.0388  0.6807
  101OSM   H12F10251   1.183   4.134   9.625 -2.7315  1.1164  1.3044
  101OSM   H12G10252   1.036   4.076   9.534  0.3364  0.8255 -1.0630
  101OSM   C13F10253   1.191   4.145   9.409  0.6547  0.6371 -0.1544
  101OSM   H13F10254   1.301   4.134   9.405  0.5101 -2.8479  2.0323
  101OSM   H13G10255   1.159   4.252   9.412  0.9042  0.6845  1.0888
  101OSM   C14F10256   1.131   4.082   9.283 -0.3893 -0.0883  0.5692
  101OSM   H14F10257   1.020   4.075   9.293 -0.9267  4.1524 -0.2533
  101OSM   H14G10258   1.189   3.988   9.274  0.4391  0.4639  0.0164
  101OSM   C15F10259   1.156   4.176   9.159 -0.0091 -0.5352  0.0007
  101OSM   H15F10260   1.265   4.193   9.142 -0.0550 -0.0553  0.1832
  101OSM   H15G10261   1.110   4.273   9.186  0.8306 -0.7302  2.4284
  101OSM   C16F10262   1.094   4.125   9.029  0.4422 -0.0385 -0.1873
  101OSM   H16F10263   1.126   4.194   8.948 -2.4391  2.8262  0.8894
  101OSM   H16G10264   0.984   4.137   9.039  0.4734  0.2401 -0.1613
  101OSM   C17F10265   1.126   3.976   8.997  0.4048 -0.3872 -0.4932
  101OSM   H17F10266   1.079   3.902   9.065  0.3906 -0.5375 -0.6674
  101OSM   H17G10267   1.237   3.964   9.004  0.3693 -0.0301  0.9855
  101OSM   C18F10268   1.076   3.931   8.859  0.1946  0.6827 -0.3305
  101OSM   H18F10269   1.077   3.821   8.849  1.7401  0.5601  0.9152
  101OSM   H18G10270   1.145   3.973   8.783  1.8436 -1.3236 -0.0223
  101OSM   H18H10271   0.976   3.977   8.838  0.8962  2.5585  0.2002
  102OSM      N10272   1.448   2.889  11.084 -0.3365 -0.5015 -0.1524
  102OSM    C1510273   1.352   2.993  11.120 -0.1300  0.3796 -0.2275
  102OSM   H15A10274   1.415   3.080  11.117  3.1258 -1.6857  1.7379
  102OSM   H15B10275   1.311   2.980  11.219 -1.6835  2.3957 -0.5397
  102OSM   H15C10276   1.264   2.991  11.057 -0.5259  1.1049  0.2898
  102OSM    C1410277   1.566   2.907  11.174  0.2372 -0.9204 -0.3895
  102OSM   H14A10278   1.612   3.003  11.159  0.5584 -1.2500 -1.6337
  102OSM   H14B10279   1.654   2.846  11.159  1.7050  1.1799 -0.5853
  102OSM   H14C10280   1.537   2.903  11.278  1.1397  0.4779 -0.0650
  102OSM    C1310281   1.393   2.751  11.107  0.6276 -0.2350  0.3598
  102OSM   H13A10282   1.370   2.735  11.211  0.2844 -1.6300  0.0994
  102OSM   H13B10283   1.465   2.676  11.076 -1.0115 -1.6902 -0.1516
  102OSM   H13C10284   1.306   2.737  11.045  1.1915  0.3370 -0.5783
  102OSM    C1210285   1.486   2.892  10.936  1.2210  1.1031  0.0941
  102OSM   H12A10286   1.565   2.820  10.920  0.0168 -0.5046  1.0862
  102OSM   H12B10287   1.511   2.992  10.904 -0.0070  0.9470 -1.4888
  102OSM    C1110288   1.376   2.853  10.841  0.1002 -0.7624  0.1783
  102OSM   H11A10289   1.338   2.754  10.874 -1.5453  0.2352  1.3806
  102OSM   H11B10290   1.415   2.825  10.741 -0.5364 -0.5793 -0.1228
  102OSM      P10291   1.280   3.076  10.726  0.2925  0.3634 -0.6333
  102OSM    O1310292   1.171   3.171  10.760  0.0860 -0.2390  0.0093
  102OSM    O1410293   1.416   3.127  10.747 -0.3721 -0.7357 -0.5843
  102OSM    O1110294   1.262   3.007  10.584  0.0199 -0.5595 -0.3803
  102OSM    O1210295   1.274   2.944  10.819  0.7422 -0.6924 -0.6432
  102OSM    C1S10296   1.215   3.066  10.469 -0.4268 -0.4211  0.3798
  102OSM    H1S10297   1.255   3.169  10.458 -0.8751 -0.3934 -1.2054
  102OSM    H1T10298   1.104   3.079  10.464 -0.1853  1.4755 -2.5379
  102OSM     NF10299   1.231   3.066  10.225  0.3461  0.1425  0.1039
  102OSM    HNF10300   1.161   3.039  10.160  0.4791  4.4610 -2.2577
  102OSM    C2S10301   1.257   2.982  10.335  0.1415  0.4151 -0.3767
  102OSM    H2S10302   1.365   2.954  10.345  0.3797  1.2127 -0.6299
  102OSM    C3S10303   1.178   2.847  10.330  0.1636  0.1162 -0.1827
  102OSM    H3S10304   1.067   2.855  10.325 -0.0190 -2.0264 -0.9938
  102OSM     O310305   1.194   2.771  10.457 -0.1876  0.4629 -0.0264
  102OSM    HO310306   1.221   2.843  10.514  2.1288 -2.0533  2.3546
  102OSM    C4S10307   1.232   2.761  10.222  0.0831 -0.2277  0.2384
  102OSM    H4S10308   1.341   2.771  10.211 -0.1516  1.1114 -1.1609
  102OSM    C5S10309   1.155   2.702  10.123 -0.6584 -0.2911 -0.1387
  102OSM    H5S10310   1.048   2.729  10.124 -0.8245 -0.6432 -2.3885
  102OSM    C6S10311   1.196   2.618  10.001  0.3610  1.1686  0.1905
  102OSM    H6S10312   1.190   2.508  10.018 -0.1880  1.1568 -0.0610
  102OSM    H6T10313   1.300   2.639   9.970  0.3945 -1.2388 -1.6359
  102OSM    C7S10314   1.113   2.641   9.871  0.4010 -0.4763 -0.2594
  102OSM    H7S10315   1.100   2.746   9.836 -1.0907 -0.4094  0.3937
  102OSM    H7T10316   1.010   2.613   9.902  0.7909 -0.6017  0.9770
  102OSM    C8S10317   1.146   2.556   9.753 -0.2505  0.1887  0.5915
  102OSM    H8S10318   1.058   2.539   9.688 -1.5373  1.0424  2.0414
  102OSM    H8T10319   1.185   2.461   9.797 -0.3388 -0.3848 -0.5391
  102OSM    C9S10320   1.260   2.618   9.676 -0.1550 -0.6562  0.2777
  102OSM    H9S10321   1.353   2.609   9.736 -0.3229 -0.2383  0.6012
  102OSM    H9T10322   1.252   2.728   9.662  1.0781 -0.7492 -1.5206
  102OSM   C10S10323   1.302   2.561   9.541 -0.7893 -0.1174  1.1331
  102OSM   H10S10324   1.307   2.450   9.543  0.5397 -0.0645  1.5469
  102OSM   H10T10325   1.403   2.604   9.527 -1.3036  0.1947 -2.3693
  102OSM   C11S10326   1.216   2.619   9.428 -0.5221  0.6611  0.4213
  102OSM   H11S10327   1.240   2.724   9.403 -1.9623  0.9752  0.2890
  102OSM   H11T10328   1.111   2.615   9.465 -0.3693  0.9937  0.8932
  102OSM   C12S10329   1.237   2.541   9.305  0.2235  1.0457 -0.1162
  102OSM   H12S10330   1.250   2.432   9.326 -2.4051  0.8023  0.6779
  102OSM   H12T10331   1.333   2.577   9.263  0.2527  1.8111  0.5882
  102OSM   C13S10332   1.149   2.591   9.191  0.6760  0.3693  0.0203
  102OSM   H13S10333   1.186   2.694   9.171  1.1523  0.6709  2.1425
  102OSM   H13T10334   1.041   2.594   9.218  0.2433 -1.0002 -1.4357
  102OSM   C14S10335   1.169   2.499   9.070 -0.1361 -0.1885  0.7906
  102OSM   H14S10336   1.133   2.395   9.087 -1.2656  0.1538  0.5716
  102OSM   H14T10337   1.277   2.504   9.043  0.4685  1.4250  3.1801
  102OSM   C15S10338   1.098   2.550   8.944  0.7910 -0.3704  0.3344
  102OSM   H15S10339   1.146   2.650   8.938  0.2293 -0.0519  1.0029
  102OSM   H15T10340   0.988   2.567   8.945  0.5996 -1.0607 -2.1941
  102OSM   C16S10341   1.115   2.464   8.817  0.4474 -0.1892 -0.0052
  102OSM   H16S10342   1.222   2.433   8.820  0.1258 -1.3330  1.6360
  102OSM   H16T10343   1.099   2.521   8.724  0.2658 -0.3148 -0.0518
  102OSM   C17S10344   1.029   2.333   8.824  0.4850 -0.2950 -0.3881
  102OSM   H17S10345   0.921   2.357   8.819  0.4709 -0.5747 -3.6112
  102OSM   H17T10346   1.055   2.284   8.920 -2.6124  1.3816  1.4584
  102OSM   C18S10347   1.066   2.238   8.709  0.2443 -0.3928 -0.0212
  102OSM   H18S10348   1.025   2.135   8.719  3.3222 -1.6138  1.2726
  102OSM   H18T10349   1.177   2.246   8.715  0.1717 -0.3818  1.8347
  102OSM   H18U10350   1.033   2.276   8.609  1.3266 -1.2017 -0.7040
  102OSM    C1F10351   1.296   3.173  10.191  0.2570 -0.0965  0.0700
  102OSM     OF10352   1.395   3.209  10.253 -0.1472 -0.1545  0.0959
  102OSM    C2F10353   1.247   3.241  10.065 -1.2540  0.4401 -0.0725
  102OSM    H2F10354   1.158   3.303  10.089 -2.4421 -1.4544  0.5896
  102OSM    H2G10355   1.231   3.156   9.996  1.2509  0.6626 -1.0329
  102OSM    C3F10356   1.356   3.325   9.999  0.2548  0.6632  0.4867
  102OSM    H3F10357   1.444   3.263   9.973 -1.4378 -1.4613 -0.4779
  102OSM    H3G10358   1.376   3.407  10.072 -3.9425  1.2680  1.2025
  102OSM    C4F10359   1.287   3.388   9.879 -0.4053  0.3550  0.4801
  102OSM    H4F10360   1.243   3.486   9.907  0.0956  0.5041  0.7818
  102OSM    H4G10361   1.212   3.316   9.843  2.1242 -2.6255  0.7129
  102OSM    C5F10362   1.388   3.398   9.763  0.0599  0.1172  0.0842
  102OSM    H5F10363   1.434   3.297   9.751 -1.9345 -0.8569  0.1596
  102OSM    H5G10364   1.473   3.455   9.806  1.5400  1.0753 -3.7815
  102OSM    C6F10365   1.336   3.450   9.628 -0.7666  0.0652 -0.0407
  102OSM    H6F10366   1.290   3.550   9.646 -1.1061  0.0536 -0.7883
  102OSM    H6G10367   1.256   3.384   9.588  0.4739 -2.5119  1.5281
  102OSM    C7F10368   1.443   3.468   9.523 -0.3840  0.3469  0.4383
  102OSM    H7F10369   1.489   3.371   9.496 -2.1100 -0.4914  0.4095
  102OSM    H7G10370   1.526   3.527   9.569  1.2809  0.7690 -2.8252
  102OSM    C8F10371   1.406   3.546   9.400  0.2829 -0.2809 -0.2536
  102OSM    H8F10372   1.491   3.605   9.361 -0.2610  2.2837  2.1186
  102OSM    H8G10373   1.338   3.631   9.425  0.7599  0.5237 -1.5836
  102OSM    C9F10374   1.346   3.457   9.292 -0.1328 -0.1015  0.6014
  102OSM    H9F10375   1.419   3.390   9.245 -0.1305 -0.1729  0.7052
  102OSM   C10F10376   1.218   3.456   9.244  0.1093  0.7074 -0.0962
  102OSM   H10F10377   1.182   3.389   9.164 -1.2491  1.2357  0.0510
  102OSM   C11F10378   1.095   3.539   9.283  1.0496  0.0212 -0.1945
  102OSM   H11F10379   1.041   3.573   9.192  0.9592  0.9167  0.1811
  102OSM   H11G10380   1.133   3.626   9.341  0.8175 -0.3108  0.4697
  102OSM   C12F10381   1.004   3.463   9.377 -0.4684  0.1468  0.3614
  102OSM   H12F10382   1.047   3.438   9.476 -0.1553 -1.0130 -0.0543
  102OSM   H12G10383   0.976   3.365   9.333 -3.2842  1.8206 -1.9846
  102OSM   C13F10384   0.874   3.543   9.398  0.6541  0.5580 -0.2567
  102OSM   H13F10385   0.890   3.653   9.402 -0.0667  0.6891  4.6415
  102OSM   H13G10386   0.854   3.523   9.506 -1.0452  1.1530 -0.4203
  102OSM   C14F10387   0.761   3.499   9.314  0.1103 -0.1227  0.0470
  102OSM   H14F10388   0.666   3.546   9.346 -0.1080 -0.9144  0.5903
  102OSM   H14G10389   0.742   3.391   9.332  0.0383 -0.0159  0.6306
  102OSM   C15F10390   0.767   3.525   9.167 -0.6328  0.4622 -0.5636
  102OSM   H15F10391   0.847   3.464   9.119  2.1645  0.4741  3.6115
  102OSM   H15G10392   0.797   3.630   9.147 -1.4752  0.6709 -0.7806
  102OSM   C16F10393   0.642   3.486   9.098 -0.0585  0.3890  0.2328
  102OSM   H16F10394   0.557   3.544   9.140  1.0114  0.5289  2.3695
  102OSM   H16G10395   0.622   3.380   9.126  2.3242 -0.6000 -1.4678
  102OSM   C17F10396   0.637   3.515   8.949  0.0334  0.0381 -0.5436
  102OSM   H17F10397   0.722   3.462   8.902  0.1214  1.0579 -1.5727
  102OSM   H17G10398   0.653   3.624   8.934 -0.0927 -0.2908 -3.8231
  102OSM   C18F10399   0.502   3.476   8.884  0.4528  0.2449  0.6633
  102OSM   H18F10400   0.418   3.541   8.917  1.2182  1.7109 -0.1960
  102OSM   H18G10401   0.487   3.372   8.921 -1.4772  1.2516  3.0056
  102OSM   H18H10402   0.506   3.490   8.774  0.8374  1.0261  0.7723
  103OSM      N10403   2.415   4.551  11.141  0.3042  0.3714 -0.6230
  103OSM    C1510404   2.340   4.553  11.274 -0.2763  0.1015 -0.3429
  103OSM   H15A10405   2.349   4.650  11.320 -0.1144  0.9515 -2.0971
  103OSM   H15B10406   2.384   4.480  11.341 -0.5342 -1.0883 -1.4156
  103OSM   H15C10407   2.237   4.527  11.253  0.1758 -0.3577 -2.2398
  103OSM    C1410408   2.549   4.606  11.152  0.2110 -0.5116 -0.8794
  103OSM   H14A10409   2.629   4.535  11.170  0.5997  0.0252 -0.4867
  103OSM   H14B10410   2.556   4.673  11.236 -0.0627 -1.8318  0.2397
  103OSM   H14C10411   2.578   4.652  11.059  1.5657 -0.8347 -0.6470
  103OSM    C1310412   2.417   4.407  11.088 -0.0020 -0.0765 -0.0698
  103OSM   H13A10413   2.488   4.340  11.135  1.7652  0.6644 -1.5709
  103OSM   H13B10414   2.446   4.412  10.984 -0.7999  0.5892 -0.2713
  103OSM   H13C10415   2.319   4.362  11.077 -1.7209  3.5866 -1.2075
  103OSM    C1210416   2.336   4.642  11.049 -0.1571  0.0256  0.3231
  103OSM   H12A10417   2.326   4.744  11.082  0.2374  1.8968 -4.5539
  103OSM   H12B10418   2.235   4.603  11.037 -0.3020  0.4518  0.1526
  103OSM    C1110419   2.378   4.672  10.905  0.6903 -0.1828  0.2306
  103OSM   H11A10420   2.288   4.718  10.860 -0.7731 -1.9539  1.2439
  103OSM   H11B10421   2.392   4.575  10.853  1.2190 -0.2600  0.5063
  103OSM      P10422   2.495   4.909  10.897  0.2148 -0.2133  0.1297
  103OSM    O1310423   2.389   4.954  10.988 -0.0294 -0.6523  0.7056
  103OSM    O1410424   2.634   4.954  10.940 -0.7054  0.2674  0.1860
  103OSM    O1110425   2.468   4.940  10.744 -0.0104  0.6073  0.2100
  103OSM    O1210426   2.499   4.754  10.904  0.2252  0.2987  0.4575
  103OSM    C1S10427   2.570   4.901  10.652  0.1995 -0.1446  0.3618
  103OSM    H1S10428   2.604   4.796  10.662  1.1090 -0.0643 -1.4969
  103OSM    H1T10429   2.658   4.968  10.647 -0.1171  0.3064  0.7856
  103OSM     NF10430   2.620   4.858  10.409 -0.2091 -0.3801  0.0062
  103OSM    HNF10431   2.693   4.917  10.374  0.6645 -1.7338 -0.5009
  103OSM    C2S10432   2.522   4.913  10.507  0.0081 -0.4797  0.0624
  103OSM    H2S10433   2.429   4.852  10.498 -0.4477  0.4131 -1.6909
  103OSM    C3S10434   2.482   5.057  10.469  0.2014  0.0366 -0.0503
  103OSM    H3S10435   2.571   5.118  10.442  0.7172 -0.9926 -0.7020
  103OSM     O310436   2.409   5.131  10.567  0.1893 -0.0494  0.1219
  103OSM    HO310437   2.395   5.073  10.642 -1.1494 -0.9241 -0.7643
  103OSM    C4S10438   2.415   5.053  10.336  0.2289  0.6305  0.1242
  103OSM    H4S10439   2.478   5.011  10.256  0.7384  0.4755  0.6031
  103OSM    C5S10440   2.297   5.109  10.301  0.7883  0.2475 -0.0975
  103OSM    H5S10441   2.251   5.179  10.372  0.6672 -1.8192  1.9590
  103OSM    C6S10442   2.249   5.101  10.157 -0.1245 -0.5760  0.5219
  103OSM    H6S10443   2.156   5.159  10.137 -0.1617 -0.1469  1.8405
  103OSM    H6T10444   2.223   4.994  10.145  2.8225 -1.7346  3.0971
  103OSM    C7S10445   2.352   5.137  10.046  0.0471 -0.0024  0.1639
  103OSM    H7S10446   2.447   5.079  10.052  0.5135  0.5720 -1.3936
  103OSM    H7T10447   2.386   5.242  10.041  0.7595 -0.2144  0.4260
  103OSM    C8S10448   2.290   5.104   9.900 -0.4464 -0.2161 -0.1438
  103OSM    H8S10449   2.182   5.132   9.901 -0.4778 -0.3493  0.9134
  103OSM    H8T10450   2.302   4.994   9.893  0.4350 -0.4613  3.3452
  103OSM    C9S10451   2.360   5.184   9.786  0.8286  0.0571 -0.2152
  103OSM    H9S10452   2.469   5.165   9.776  1.6915  3.7709  0.7302
  103OSM    H9T10453   2.343   5.287   9.823 -0.4791 -0.2699  0.1513
  103OSM   C10S10454   2.304   5.175   9.644 -0.0436  0.0847 -0.0879
  103OSM   H10S10455   2.200   5.214   9.647 -0.0521  0.0123  0.7383
  103OSM   H10T10456   2.311   5.075   9.597 -1.8943 -0.4639  0.7387
  103OSM   C11S10457   2.373   5.268   9.542  0.1865 -0.1997 -0.2298
  103OSM   H11S10458   2.478   5.234   9.526  1.2088  1.5822  2.0772
  103OSM   H11T10459   2.366   5.373   9.580 -0.2702 -0.6534  0.9776
  103OSM   C12S10460   2.302   5.273   9.412 -0.8957 -0.6814  0.1156
  103OSM   H12S10461   2.205   5.326   9.423  0.6101  2.6709 -1.4043
  103OSM   H12T10462   2.285   5.168   9.382 -2.3707 -0.7764  1.1756
  103OSM   C13S10463   2.383   5.342   9.298  0.3009  0.0855 -0.2736
  103OSM   H13S10464   2.322   5.334   9.206  1.7411 -0.1804 -1.2358
  103OSM   H13T10465   2.479   5.286   9.285  2.0530  2.5692  1.0222
  103OSM   C14S10466   2.422   5.489   9.328  0.1858 -0.5860 -0.3178
  103OSM   H14S10467   2.492   5.488   9.414 -1.5414  0.5345  1.1908
  103OSM   H14T10468   2.323   5.531   9.356  0.1291 -2.1544  2.2214
  103OSM   C15S10469   2.496   5.564   9.223 -0.0411  1.0551  0.0788
  103OSM   H15S10470   2.423   5.578   9.141  1.2721  0.4810 -1.2324
  103OSM   H15T10471   2.595   5.525   9.192 -0.2776 -1.5091  2.2426
  103OSM   C16S10472   2.518   5.701   9.280 -0.2194  0.4233 -0.3052
  103OSM   H16S10473   2.556   5.687   9.384  2.8611  0.9130 -1.2638
  103OSM   H16T10474   2.427   5.764   9.291  0.3239  1.0686  0.5536
  103OSM   C17S10475   2.633   5.782   9.211 -0.1919  0.6081 -0.3352
  103OSM   H17S10476   2.720   5.714   9.227 -2.3438 -1.9117  1.2837
  103OSM   H17T10477   2.652   5.874   9.271  1.4769  0.8868 -1.2118
  103OSM   C18S10478   2.593   5.815   9.065 -0.1896  0.3533  0.4760
  103OSM   H18S10479   2.504   5.882   9.069 -0.2129  0.3700 -0.2292
  103OSM   H18T10480   2.563   5.726   9.006  1.6521  0.4051 -0.6229
  103OSM   H18U10481   2.671   5.870   9.009 -1.7072  0.3775 -1.7436
  103OSM    C1F10482   2.648   4.726  10.415  1.3604 -0.3524  0.5630
  103OSM     OF10483   2.573   4.644  10.467 -0.2748  0.2207  0.1581
  103OSM    C2F10484   2.774   4.692  10.343  0.3587 -0.9466 -0.2805
  103OSM    H2F10485   2.850   4.658  10.417  0.7112  1.8652  0.7663
  103OSM    H2G10486   2.815   4.788  10.305  1.1615 -0.3101  2.0391
  103OSM    C3F10487   2.752   4.607  10.218 -0.4727  0.0612  0.1634
  103OSM    H3F10488   2.694   4.669  10.147  0.1484 -1.2576 -1.5684
  103OSM    H3G10489   2.688   4.524  10.254 -0.9173  0.3101 -0.0447
  103OSM    C4F10490   2.884   4.560  10.152  0.2544 -0.4108  0.7855
  103OSM    H4F10491   2.940   4.493  10.221 -3.5997 -2.5273  2.1680
  103OSM    H4G10492   2.948   4.648  10.131  0.8515 -0.4293  2.3666
  103OSM    C5F10493   2.847   4.475  10.025  0.1239  0.2849 -0.1618
  103OSM    H5F10494   2.799   4.527   9.940  1.0900 -0.5514 -1.2450
  103OSM    H5G10495   2.783   4.390  10.057  0.9761 -0.5654 -0.6619
  103OSM    C6F10496   2.975   4.422   9.968 -0.2791 -0.1849 -0.0159
  103OSM    H6F10497   3.028   4.363  10.046 -0.0936 -0.7944 -0.6030
  103OSM    H6G10498   3.036   4.509   9.936 -1.7726  0.2527 -1.8568
  103OSM    C7F10499   2.950   4.334   9.843 -0.0800 -0.0606 -0.2596
  103OSM    H7F10500   2.882   4.251   9.868  0.3890 -0.3369  0.1181
  103OSM    H7G10501   3.045   4.278   9.829  0.5653  1.1369 -0.7845
  103OSM    C8F10502   2.918   4.408   9.713  0.6146 -0.1382  0.1568
  103OSM    H8F10503   2.826   4.469   9.721  1.8046  1.7886 -0.3310
  103OSM    H8G10504   2.889   4.333   9.636  0.5781 -0.0953  0.1298
  103OSM    C9F10505   3.027   4.496   9.654 -0.1685  1.1261 -0.4860
  103OSM    H9F10506   3.083   4.558   9.726 -0.9061  0.9820  0.2151
  103OSM   C10F10507   3.070   4.499   9.527 -0.0381 -0.0846  0.1197
  103OSM   H10F10508   3.158   4.563   9.510 -1.1482  1.5474  0.2309
  103OSM   C11F10509   3.015   4.438   9.410 -0.5253 -0.1874  0.2765
  103OSM   H11F10510   2.937   4.359   9.414 -2.4824  1.3404 -2.8866
  103OSM   H11G10511   3.106   4.409   9.353  0.1402  0.3886  1.0222
  103OSM   C12F10512   2.951   4.543   9.318  0.1957  0.0679 -0.4458
  103OSM   H12F10513   3.028   4.618   9.293 -0.1931  0.9657  0.9496
  103OSM   H12G10514   2.869   4.595   9.371 -0.0344  1.8016 -2.3742
  103OSM   C13F10515   2.892   4.478   9.202 -0.7687 -0.0305  0.8068
  103OSM   H13F10516   2.969   4.440   9.131 -3.3906  0.3557 -2.5599
  103OSM   H13G10517   2.831   4.391   9.234 -0.6524 -0.6442 -0.5359
  103OSM   C14F10518   2.807   4.581   9.127 -0.0231 -0.6121 -0.6789
  103OSM   H14F10519   2.877   4.641   9.065  0.1985 -1.4033 -1.2129
  103OSM   H14G10520   2.743   4.651   9.184  0.5531 -0.0854 -0.6728
  103OSM   C15F10521   2.696   4.504   9.044  0.1077  0.0131 -0.1753
  103OSM   H15F10522   2.655   4.425   9.111  2.6823 -0.6003  0.8328
  103OSM   H15G10523   2.749   4.455   8.960  0.0741  0.2741 -0.3487
  103OSM   C16F10524   2.584   4.601   8.995 -0.6893 -0.6042 -0.0812
  103OSM   H16F10525   2.628   4.686   8.940  0.5762 -0.6485  0.8172
  103OSM   H16G10526   2.531   4.644   9.083 -1.3691  0.1891 -0.8623
  103OSM   C17F10527   2.471   4.542   8.915  0.5790 -0.1377 -0.5617
  103OSM   H17F10528   2.384   4.611   8.917  0.1235 -0.5273  4.4708
  103OSM   H17G10529   2.433   4.447   8.957  1.2997 -0.6402 -1.0142
  103OSM   C18F10530   2.513   4.514   8.772  0.1793 -0.3592  0.3110
  103OSM   H18F10531   2.592   4.436   8.764  0.6763  0.2319 -0.7452
  103OSM   H18G10532   2.562   4.600   8.722 -0.8259 -0.5630 -1.1026
  103OSM   H18H10533   2.429   4.498   8.700  0.9334  0.3032 -0.7376
  104OSM      N10534   0.152   4.644  10.913 -0.4588  0.1563 -0.0266
  104OSM    C1510535   0.053   4.574  10.827  1.1868 -1.0548  0.6312
  104OSM   H15A10536  -0.004   4.499  10.880 -1.9200  1.5753  1.3415
  104OSM   H15B10537   0.101   4.535  10.738  1.3121 -3.5471  1.7072
  104OSM   H15C10538  -0.030   4.631  10.788  2.2635 -0.8413 -1.5478
  104OSM    C1410539   0.085   4.700  11.031  0.5509  0.1940 -0.0077
  104OSM   H14A10540   0.025   4.782  10.996  0.2078 -0.1838 -0.3070
  104OSM   H14B10541   0.163   4.737  11.097  0.4500  0.9867 -0.3227
  104OSM   H14C10542   0.036   4.617  11.078  2.2577 -1.6266 -1.2488
  104OSM    C1310543   0.244   4.525  10.953  0.3070 -0.7791 -0.4998
  104OSM   H13A10544   0.308   4.547  11.037 -0.8408  0.0007  0.1942
  104OSM   H13B10545   0.314   4.511  10.871  0.9780  0.8349 -0.2347
  104OSM   H13C10546   0.183   4.437  10.964 -0.4891 -0.2553 -0.6286
  104OSM    C1210547   0.223   4.744  10.836  0.4037 -0.5232 -0.2308
  104OSM   H12A10548   0.156   4.826  10.811 -1.0052 -1.5250  0.1412
  104OSM   H12B10549   0.253   4.709  10.738 -1.1979 -1.3003 -0.4736
  104OSM    C1110550   0.342   4.821  10.903  0.4903 -0.8150 -0.0477
  104OSM   H11A10551   0.411   4.862  10.826 -0.6292 -0.4226 -0.8691
  104OSM   H11B10552   0.398   4.744  10.960 -0.8873 -2.7249 -1.2012
  104OSM      P10553   0.239   5.058  10.932  0.1759  0.0432  0.1357
  104OSM    O1310554   0.104   5.089  10.983  0.3589  0.9351 -1.0804
  104OSM    O1410555   0.346   5.163  10.939 -0.2869  0.0632  0.4146
  104OSM    O1110556   0.207   5.033  10.778 -0.1518  0.1337  0.5327
  104OSM    O1210557   0.289   4.915  10.989  0.4265  0.1897 -0.4152
  104OSM    C1S10558   0.265   5.110  10.675 -0.1925 -0.2959  0.0616
  104OSM    H1S10559   0.372   5.078  10.669 -0.3265 -0.7183 -0.0896
  104OSM    H1T10560   0.271   5.219  10.697 -0.9060 -0.0705 -0.8339
  104OSM     NF10561   0.256   5.206  10.439  0.6705 -0.8521 -0.4664
  104OSM    HNF10562   0.202   5.289  10.428  1.6077 -0.3089 -1.0947
  104OSM    C2S10563   0.195   5.104  10.533 -0.1456 -0.1140 -0.4899
  104OSM    H2S10564   0.222   5.004  10.493  1.6940 -0.1064  0.6239
  104OSM    C3S10565   0.035   5.121  10.541  0.1856 -0.5465  0.0125
  104OSM    H3S10566   0.005   5.220  10.582  0.2262 -0.6042  0.1842
  104OSM     O310567  -0.022   5.028  10.632  0.3169  0.0875 -0.1867
  104OSM    HO310568   0.046   5.012  10.697 -0.8911 -1.0668  0.8352
  104OSM    C4S10569  -0.009   5.109  10.402  0.6523  0.8998  0.5931
  104OSM    H4S10570  -0.019   5.004  10.370  2.2401  1.0792 -0.6557
  104OSM    C5S10571  -0.051   5.207  10.315  0.1995 -0.2140 -0.6590
  104OSM    H5S10572  -0.060   5.312  10.346  0.0647 -1.0484  2.4752
  104OSM    C6S10573  -0.100   5.174  10.180  1.0689  0.1742 -0.3365
  104OSM    H6S10574  -0.200   5.220  10.166  1.1182  0.7925  1.1883
  104OSM    H6T10575  -0.108   5.064  10.164  1.9784 -0.1751  1.3547
  104OSM    C7S10576   0.002   5.225  10.083  0.1725 -0.7305 -1.2834
  104OSM    H7S10577   0.103   5.186  10.110  0.0804 -1.2435 -1.6841
  104OSM    H7T10578   0.010   5.335  10.100  0.8627 -1.0316  0.5766
  104OSM    C8S10579  -0.017   5.195   9.937 -0.1958  1.4367 -0.1638
  104OSM    H8S10580  -0.117   5.229   9.902 -1.2850 -0.5146  0.8912
  104OSM    H8T10581  -0.013   5.084   9.927  0.3236  1.1789  2.2421
  104OSM    C9S10582   0.096   5.251   9.854  0.6056  0.0025 -0.3737
  104OSM    H9S10583   0.190   5.229   9.908 -0.6500  0.0907  1.9611
  104OSM    H9T10584   0.083   5.361   9.851 -0.1829 -0.0983 -0.9395
  104OSM   C10S10585   0.091   5.189   9.713 -0.0577  0.4085 -0.2588
  104OSM   H10S10586   0.003   5.231   9.660 -0.8029 -1.5116 -0.6160
  104OSM   H10T10587   0.059   5.082   9.715 -0.5224  0.5165 -1.1917
  104OSM   C11S10588   0.210   5.234   9.624  0.0567  0.3062  0.4434
  104OSM   H11S10589   0.288   5.157   9.643 -1.9943 -1.8864  0.5549
  104OSM   H11T10590   0.240   5.335   9.657  0.5718  0.5933 -0.8543
  104OSM   C12S10591   0.187   5.238   9.472  0.3547  0.6378 -0.2096
  104OSM   H12S10592   0.104   5.306   9.443 -1.9399 -1.6086  0.6703
  104OSM   H12T10593   0.152   5.134   9.452 -0.4417  0.6587  0.9475
  104OSM   C13S10594   0.303   5.281   9.398 -0.2404  0.4046 -0.2041
  104OSM   H13S10595   0.386   5.218   9.438 -2.4034 -1.3848  1.8073
  104OSM   H13T10596   0.339   5.384   9.415 -1.7990  1.1865 -1.3752
  104OSM   C14S10597   0.299   5.246   9.250  0.8644  0.2867  0.1231
  104OSM   H14S10598   0.228   5.307   9.190 -1.5579 -0.7065  1.7963
  104OSM   H14T10599   0.269   5.139   9.244 -1.0323  0.7797  0.0863
  104OSM   C15S10600   0.439   5.254   9.188  0.1336  0.1797 -0.0672
  104OSM   H15S10601   0.497   5.176   9.243 -2.3349 -0.5857  1.6355
  104OSM   H15T10602   0.477   5.358   9.200 -1.2865  0.7760 -0.5539
  104OSM   C16S10603   0.450   5.217   9.040 -0.4735  0.3195  0.6393
  104OSM   H16S10604   0.413   5.116   9.012  0.6243  0.0566  0.0795
  104OSM   H16T10605   0.556   5.191   9.020 -1.1060 -0.8712 -1.5505
  104OSM   C17S10606   0.392   5.327   8.945  0.3855 -0.1758  0.1875
  104OSM   H17S10607   0.444   5.424   8.958 -2.0653  1.3527 -0.6560
  104OSM   H17T10608   0.283   5.330   8.968  0.0574 -1.3356 -1.0987
  104OSM   C18S10609   0.402   5.288   8.796  0.1316 -0.0277 -0.5967
  104OSM   H18S10610   0.505   5.255   8.771  0.9822  1.2659  1.0356
  104OSM   H18T10611   0.390   5.386   8.746  1.4187  1.1733  1.3071
  104OSM   H18U10612   0.340   5.197   8.777 -0.4173  0.0919  0.5269
  104OSM    C1F10613   0.385   5.187  10.403  0.2819 -0.5910  0.2855
  104OSM     OF10614   0.442   5.084  10.426  0.0005 -0.0777 -0.5967
  104OSM    C2F10615   0.462   5.302  10.336 -0.5424  0.4911 -0.4176
  104OSM    H2F10616   0.530   5.353  10.408  0.5459  0.7516 -1.5939
  104OSM    H2G10617   0.384   5.375  10.307  0.1284  1.0191 -0.9399
  104OSM    C3F10618   0.548   5.256  10.212 -0.5100 -0.1260 -0.2804
  104OSM    H3F10619   0.476   5.241  10.128 -1.4978  1.2708  0.2799
  104OSM    H3G10620   0.605   5.161  10.214 -2.0396 -1.1177  3.1955
  104OSM    C4F10621   0.646   5.368  10.164 -0.2689 -0.5745 -0.1807
  104OSM    H4F10622   0.722   5.386  10.243  0.6604 -0.0238 -1.1702
  104OSM    H4G10623   0.583   5.459  10.150 -1.6039 -0.7966  3.3736
  104OSM    C5F10624   0.729   5.331  10.032  0.2386 -0.4247 -0.3395
  104OSM    H5F10625   0.786   5.238  10.048  0.4255 -0.1685  0.5183
  104OSM    H5G10626   0.806   5.410  10.015  0.6465 -1.2241 -2.5058
  104OSM    C6F10627   0.631   5.314   9.915  0.2186 -0.8643 -0.1533
  104OSM    H6F10628   0.566   5.404   9.912  0.0615 -0.8107  2.3048
  104OSM    H6G10629   0.566   5.224   9.925 -0.8367 -0.1502 -0.4111
  104OSM    C7F10630   0.701   5.303   9.780  0.1187 -0.1702  0.3418
  104OSM    H7F10631   0.752   5.205   9.767  0.4206  0.2298 -1.9924
  104OSM    H7G10632   0.773   5.387   9.766 -1.5257  1.0167 -1.4614
  104OSM    C8F10633   0.595   5.307   9.666  0.2879  0.6404  0.3302
  104OSM    H8F10634   0.529   5.392   9.693 -0.7185  0.0776 -0.2729
  104OSM    H8G10635   0.536   5.213   9.682  2.1505 -0.3149  1.9027
  104OSM    C9F10636   0.654   5.311   9.524 -0.6113  0.0340  0.2686
  104OSM    H9F10637   0.721   5.227   9.500  0.6228  1.0296  0.1418
  104OSM   C10F10638   0.661   5.411   9.435 -0.3177  0.1066 -0.2404
  104OSM   H10F10639   0.721   5.411   9.343  1.2636 -1.4944  0.7336
  104OSM   C11F10640   0.618   5.548   9.461 -0.3613 -0.0890  0.2519
  104OSM   H11F10641   0.702   5.610   9.498 -2.5036  2.9353  0.3424
  104OSM   H11G10642   0.535   5.550   9.535 -0.4523 -1.0810  0.1904
  104OSM   C12F10643   0.556   5.624   9.338 -0.2159  0.2733 -0.1989
  104OSM   H12F10644   0.498   5.715   9.362 -2.3207 -0.7935 -0.9584
  104OSM   H12G10645   0.480   5.556   9.293  0.5373 -0.1426 -0.8677
  104OSM   C13F10646   0.657   5.667   9.228 -0.7220  0.7813  0.2263
  104OSM   H13F10647   0.698   5.574   9.182 -0.9039  1.4744 -1.4201
  104OSM   H13G10648   0.740   5.723   9.275  0.0460  0.0913 -0.2586
  104OSM   C14F10649   0.584   5.746   9.111  0.6338 -0.3144  1.1086
  104OSM   H14F10650   0.517   5.817   9.163 -0.1994 -0.6249  0.4927
  104OSM   H14G10651   0.516   5.678   9.056  1.5592  1.1375 -2.0936
  104OSM   C15F10652   0.687   5.810   9.023 -0.3285  0.3233 -0.5417
  104OSM   H15F10653   0.762   5.738   8.983 -0.5705 -0.8451  1.0335
  104OSM   H15G10654   0.735   5.899   9.069  0.0357 -0.5846  0.9037
  104OSM   C16F10655   0.630   5.856   8.889  0.7224 -0.5884 -0.0156
  104OSM   H16F10656   0.569   5.948   8.900 -0.4777 -1.4735  1.1636
  104OSM   H16G10657   0.556   5.781   8.852  1.9887 -0.7957 -2.2681
  104OSM   C17F10658   0.728   5.883   8.779 -0.3250  0.2745  0.0966
  104OSM   H17F10659   0.795   5.793   8.780  0.0502  0.5103 -1.6744
  104OSM   H17G10660   0.787   5.968   8.818  1.3453 -1.2414  1.0708
  104OSM   C18F10661   0.674   5.918   8.640  0.4278  0.2856 -0.0925
  104OSM   H18F10662   0.605   5.838   8.605 -0.5750  0.4205  1.4897
  104OSM   H18G10663   0.760   5.928   8.569 -0.3167 -2.3997 -1.5605
  104OSM   H18H10664   0.623   6.016   8.639  1.0060  0.6012  0.5413
  105OSM      N10665   5.659   4.334  10.880  0.7482 -1.0816  0.0102
  105OSM    C1510666   5.626   4.295  11.019  0.6206 -0.5355 -0.3063
  105OSM   H15A10667   5.599   4.191  11.031  2.2855 -1.0121 -0.4403
  105OSM   H15B10668   5.544   4.347  11.066 -0.8938 -3.0724  0.0420
  105OSM   H15C10669   5.703   4.305  11.094 -0.5171 -0.0882  0.8268
  105OSM    C1410670   5.547   4.298  10.788 -0.0685 -0.1460 -0.6119
  105OSM   H14A10671   5.536   4.192  10.771 -0.1360 -0.1289 -0.6794
  105OSM   H14B10672   5.587   4.323  10.691  1.3741 -0.2946 -0.0733
  105OSM   H14C10673   5.456   4.334  10.833  1.1149  1.1111  0.8729
  105OSM    C1310674   5.675   4.483  10.876  0.6904  0.4271 -0.7751
  105OSM   H13A10675   5.692   4.515  10.775 -0.6457 -1.4774 -1.6675
  105OSM   H13B10676   5.756   4.502  10.945  0.2758  0.9098 -0.4094
  105OSM   H13C10677   5.600   4.544  10.925  1.1776  0.2576  0.1994
  105OSM    C1210678   5.787   4.260  10.839 -0.3869 -0.2654 -0.8080
  105OSM   H12A10679   5.759   4.156  10.840 -1.1856 -0.0798  1.5464
  105OSM   H12B10680   5.865   4.274  10.913 -0.2654  1.8752 -1.2592
  105OSM    C1110681   5.836   4.300  10.704  0.6440  0.1443 -0.1809
  105OSM   H11A10682   5.828   4.411  10.701 -0.8386  0.0907  0.8051
  105OSM   H11B10683   5.767   4.268  10.623 -0.8476  2.4342  0.1018
  105OSM      P10684   6.096   4.274  10.775 -0.0735 -0.1709 -0.7347
  105OSM    O1310685   6.061   4.204  10.902  0.1195  0.1316 -0.2472
  105OSM    O1410686   6.219   4.224  10.708  0.4947 -0.2185 -0.4148
  105OSM    O1110687   6.090   4.431  10.808 -0.3452 -0.5677  0.1010
  105OSM    O1210688   5.972   4.252  10.671 -0.0735 -0.2061 -0.3685
  105OSM    C1S10689   6.193   4.521  10.752 -0.0971  0.0930 -0.8234
  105OSM    H1S10690   6.281   4.463  10.719  0.1063  0.1965 -0.4610
  105OSM    H1T10691   6.226   4.592  10.831 -1.4841 -0.6373  0.4706
  105OSM     NF10692   6.251   4.656  10.542 -0.7987  0.1177 -0.7555
  105OSM    HNF10693   6.256   4.755  10.547  1.8795  0.0165  0.0245
  105OSM    C2S10694   6.145   4.598  10.623  0.4341 -0.3818  0.1755
  105OSM    H2S10695   6.085   4.523  10.567  0.8596  0.2618 -1.1848
  105OSM    C3S10696   6.039   4.697  10.682  0.4089 -0.2758  0.2170
  105OSM    H3S10697   6.098   4.762  10.750 -0.4265  0.9317 -0.1844
  105OSM     O310698   5.931   4.642  10.757  0.5569 -0.0284 -0.4484
  105OSM    HO310699   5.945   4.547  10.759 -0.5331 -0.2031  0.6700
  105OSM    C4S10700   5.990   4.780  10.563  0.0146  0.0945  0.3730
  105OSM    H4S10701   5.956   4.703  10.492 -1.6839 -0.4012  1.6534
  105OSM    C5S10702   5.976   4.912  10.550 -0.6939 -0.9332  0.4833
  105OSM    H5S10703   6.014   4.974  10.633  1.0629  1.3616 -1.8630
  105OSM    C6S10704   5.908   4.993  10.437 -0.6896  0.1910 -0.1335
  105OSM    H6S10705   5.869   5.092  10.470  0.7649  0.6849  0.1432
  105OSM    H6T10706   5.823   4.936  10.394 -0.9179 -1.4160  2.2164
  105OSM    C7S10707   6.007   5.023  10.321 -0.0497 -0.6009  0.2238
  105OSM    H7S10708   6.058   5.121  10.330 -2.1358  0.8379 -2.2120
  105OSM    H7T10709   5.939   5.036  10.234  0.1445  0.8146  0.2618
  105OSM    C8S10710   6.112   4.921  10.289 -0.1754  0.0523  0.6639
  105OSM    H8S10711   6.060   4.827  10.262  0.7310 -0.2616 -0.0344
  105OSM    H8T10712   6.183   4.908  10.374 -0.3118 -0.7934  0.6581
  105OSM    C9S10713   6.207   4.968  10.167  0.1729 -0.6261 -0.2813
  105OSM    H9S10714   6.300   4.908  10.168  1.2761  0.9912  1.6790
  105OSM    H9T10715   6.238   5.074  10.182  1.3574 -0.7780 -1.4281
  105OSM   C10S10716   6.133   4.963  10.032  0.7697  0.0871  0.2068
  105OSM   H10S10717   6.211   4.980   9.954  0.5950 -1.0047 -0.2219
  105OSM   H10T10718   6.063   5.048  10.022  0.5395 -0.1486 -0.2013
  105OSM   C11S10719   6.075   4.823  10.005  0.1701  0.1929  0.2479
  105OSM   H11S10720   5.972   4.833  10.046  0.0052 -1.6588  0.3690
  105OSM   H11T10721   6.138   4.740  10.043  0.8487  0.0573 -1.0945
  105OSM   C12S10722   6.059   4.790   9.853 -0.1374  0.6209  0.0404
  105OSM   H12S10723   6.023   4.880   9.799  0.1059  0.3457 -0.5952
  105OSM   H12T10724   5.976   4.717   9.848 -1.2155  1.7754  0.6393
  105OSM   C13S10725   6.189   4.746   9.788 -0.2908 -0.4912  0.0381
  105OSM   H13S10726   6.222   4.643   9.813  0.1820 -0.7040 -1.3862
  105OSM   H13T10727   6.268   4.818   9.816  0.0009 -0.8514  0.1523
  105OSM   C14S10728   6.174   4.757   9.634 -0.3855  0.0172 -0.1928
  105OSM   H14S10729   6.271   4.729   9.587 -0.0452  1.5459 -0.4436
  105OSM   H14T10730   6.157   4.864   9.609 -0.6967  0.2100  0.7939
  105OSM   C15S10731   6.067   4.675   9.568  0.2907 -0.2341 -0.1960
  105OSM   H15S10732   5.964   4.702   9.599 -0.0318 -1.3437 -0.2547
  105OSM   H15T10733   6.090   4.569   9.593  0.6752 -0.5226 -1.6436
  105OSM   C16S10734   6.075   4.691   9.410 -0.8003 -0.2403 -0.4351
  105OSM   H16S10735   6.167   4.644   9.371 -1.3979  0.6283 -3.1159
  105OSM   H16T10736   6.088   4.799   9.386  0.4505 -0.1806  0.4239
  105OSM   C17S10737   5.957   4.623   9.346  0.7847  0.1382  0.1763
  105OSM   H17S10738   5.871   4.614   9.415  0.0962  2.7417 -0.2417
  105OSM   H17T10739   5.987   4.521   9.315 -0.8430 -0.1442 -0.5650
  105OSM   C18S10740   5.920   4.697   9.216  0.2453  0.2464 -0.3723
  105OSM   H18S10741   5.858   4.643   9.142 -0.6547  0.5128  0.1650
  105OSM   H18T10742   6.014   4.732   9.167 -0.6521  2.8399 -0.3998
  105OSM   H18U10743   5.876   4.795   9.245 -2.1680 -0.4406 -1.4079
  105OSM    C1F10744   6.354   4.590  10.485 -0.1459  0.0162  0.3932
  105OSM     OF10745   6.336   4.479  10.435 -0.0894 -0.4662 -0.0315
  105OSM    C2F10746   6.486   4.670  10.480  0.4779  0.1316  0.3676
  105OSM    H2F10747   6.532   4.690  10.579 -0.9675 -1.6124  1.4613
  105OSM    H2G10748   6.463   4.765  10.427  1.6852 -0.1246 -0.6577
  105OSM    C3F10749   6.600   4.610  10.394  0.1838  0.5609  0.1434
  105OSM    H3F10750   6.558   4.532  10.326 -0.4017  1.4418 -0.5222
  105OSM    H3G10751   6.673   4.560  10.461 -0.5807 -0.2949  0.3709
  105OSM    C4F10752   6.678   4.710  10.301 -0.2191  0.0573 -0.0459
  105OSM    H4F10753   6.763   4.661  10.249 -1.4413 -1.3094 -0.8398
  105OSM    H4G10754   6.720   4.795  10.358 -0.8373 -0.1449  0.7153
  105OSM    C5F10755   6.581   4.766  10.192 -0.4367  0.5372 -0.1051
  105OSM    H5F10756   6.602   4.875  10.184  0.3094  0.4465  0.4784
  105OSM    H5G10757   6.473   4.770  10.216 -0.2109  2.6477  0.7825
  105OSM    C6F10758   6.615   4.710  10.053 -1.0296 -0.2037  0.7438
  105OSM    H6F10759   6.613   4.599  10.058 -1.0857 -0.1540  3.1325
  105OSM    H6G10760   6.721   4.735  10.032 -1.6965  0.2293 -2.6744
  105OSM    C7F10761   6.528   4.762   9.937 -0.1327 -0.2369 -0.5234
  105OSM    H7F10762   6.541   4.873   9.930  0.9514 -0.3237 -0.0255
  105OSM    H7G10763   6.422   4.733   9.955  0.4352 -0.2883  3.8216
  105OSM    C8F10764   6.567   4.708   9.794  0.6554 -0.3359 -0.2900
  105OSM    H8F10765   6.470   4.711   9.739  0.1425 -1.7887  0.4819
  105OSM    H8G10766   6.595   4.601   9.808 -0.9705 -0.3910  4.2824
  105OSM    C9F10767   6.691   4.767   9.719 -0.2863  0.4774  0.4576
  105OSM    H9F10768   6.790   4.757   9.765  0.7724 -0.2284 -1.7977
  105OSM   C10F10769   6.684   4.832   9.601 -0.1234 -0.5498  0.8439
  105OSM   H10F10770   6.781   4.868   9.563 -0.3088  1.2847  1.9747
  105OSM   C11F10771   6.565   4.863   9.509 -0.0196  0.0967 -0.6458
  105OSM   H11F10772   6.581   4.960   9.458  1.7769  1.2095  1.8245
  105OSM   H11G10773   6.466   4.875   9.558 -0.8276 -1.6285 -1.7355
  105OSM   C12F10774   6.548   4.762   9.399  0.2723  0.8460 -0.2184
  105OSM   H12F10775   6.451   4.773   9.346  0.5561  1.5388 -0.6130
  105OSM   H12G10776   6.553   4.662   9.448  2.9223  1.3520  0.7003
  105OSM   C13F10777   6.658   4.766   9.297  0.5841  0.8804  0.6390
  105OSM   H13F10778   6.747   4.719   9.345  0.8911  1.0876  0.2741
  105OSM   H13G10779   6.689   4.871   9.278 -1.2114  0.9213 -2.7379
  105OSM   C14F10780   6.615   4.704   9.163  0.3513 -0.5953  0.7597
  105OSM   H14F10781   6.526   4.766   9.139 -0.2227 -1.3413  0.9144
  105OSM   H14G10782   6.575   4.602   9.184  0.2310 -1.0278 -1.3752
  105OSM   C15F10783   6.721   4.690   9.050 -0.2534 -0.4915  0.4961
  105OSM   H15F10784   6.800   4.620   9.084  1.7327  0.7335 -1.3499
  105OSM   H15G10785   6.770   4.790   9.050 -3.5359  1.2786  2.7728
  105OSM   C16F10786   6.683   4.655   8.905  0.0401 -0.2122 -0.4510
  105OSM   H16F10787   6.638   4.747   8.862  0.4858  0.7882  1.1396
  105OSM   H16G10788   6.596   4.587   8.915 -0.2677 -0.6581 -4.3133
  105OSM   C17F10789   6.795   4.614   8.814 -0.2739  0.1021  0.7330
  105OSM   H17F10790   6.853   4.526   8.850  0.4856  0.2903  0.0141
  105OSM   H17G10791   6.856   4.708   8.816 -1.9023  1.1945  1.6687
  105OSM   C18F10792   6.745   4.590   8.675 -0.2243 -0.0238 -0.5381
  105OSM   H18F10793   6.696   4.491   8.666 -0.1131 -0.0761 -0.5653
  105OSM   H18G10794   6.830   4.605   8.605  0.5658  3.6068  0.9775
  105OSM   H18H10795   6.672   4.673   8.664 -0.4179 -0.1216 -0.0154
  106OSM      N10796   0.535   1.853  10.752 -0.1644  0.0874 -0.5256
  106OSM    C1510797   0.593   1.841  10.620  0.2819 -0.5584 -0.1142
  106OSM   H15A10798   0.567   1.743  10.582 -0.2149 -1.9018  3.3724
  106OSM   H15B10799   0.699   1.861  10.620 -0.0327  1.6557  2.3417
  106OSM   H15C10800   0.556   1.919  10.555  0.6771  1.3558  1.8287
  106OSM    C1410801   0.623   1.778  10.855 -0.1352 -0.2662 -0.2267
  106OSM   H14A10802   0.715   1.835  10.863 -0.1345 -0.4731  1.6624
  106OSM   H14B10803   0.636   1.675  10.825 -0.2996 -0.2523 -0.3511
  106OSM   H14C10804   0.564   1.774  10.945 -0.4415  3.7570 -0.0539
  106OSM    C1310805   0.523   1.999  10.792  0.3087  0.0239  0.9896
  106OSM   H13A10806   0.443   2.044  10.735  0.5682 -1.2357 -0.4357
  106OSM   H13B10807   0.614   2.057  10.783  0.0857  0.0830 -1.8071
  106OSM   H13C10808   0.489   1.992  10.894 -0.8152 -2.0566  0.5444
  106OSM    C1210809   0.387   1.797  10.754 -0.4078  0.2046 -0.6621
  106OSM   H12A10810   0.340   1.813  10.850 -0.2898  1.3616 -0.7853
  106OSM   H12B10811   0.402   1.690  10.745  0.2562 -0.0840  2.6154
  106OSM    C1110812   0.295   1.835  10.633 -0.1730 -0.3232 -0.3852
  106OSM   H11A10813   0.200   1.777  10.623 -0.7638  0.3842  0.9633
  106OSM   H11B10814   0.353   1.816  10.540 -0.5338 -0.1367 -0.6517
  106OSM      P10815   0.128   2.012  10.715  0.1539 -0.2453 -0.4271
  106OSM    O1310816   0.121   1.939  10.844  0.4906 -0.5448  0.2259
  106OSM    O1410817   0.130   2.158  10.731 -0.1843  0.2944 -0.2194
  106OSM    O1110818   0.016   1.957  10.622  0.1149  0.0266  0.4637
  106OSM    O1210819   0.262   1.975  10.638 -0.5154  0.3966 -0.5868
  106OSM    C1S10820  -0.021   2.023  10.501 -0.2448 -0.0727  0.9115
  106OSM    H1S10821   0.050   2.103  10.471 -1.3572  0.6100  0.0061
  106OSM    H1T10822  -0.109   2.087  10.521  1.0939  1.6815  1.4536
  106OSM     NF10823  -0.080   1.984  10.270 -0.0827  1.0839  0.1065
  106OSM    HNF10824  -0.178   1.983  10.250 -0.3051  2.3850  1.0105
  106OSM    C2S10825  -0.035   1.914  10.384  0.1614  0.0820 -0.0886
  106OSM    H2S10826   0.059   1.861  10.359  1.5731  2.0810  0.7108
  106OSM    C3S10827  -0.128   1.796  10.434  0.6589 -0.3855 -0.4861
  106OSM    H3S10828  -0.227   1.830  10.472  0.5392 -0.9011 -0.3257
  106OSM     O310829  -0.064   1.710  10.525 -0.0003  0.2168 -0.1763
  106OSM    HO310830   0.007   1.767  10.553  0.4941 -0.6534  0.3719
  106OSM    C4S10831  -0.164   1.703  10.324  0.2894  0.7936  0.1799
  106OSM    H4S10832  -0.093   1.629  10.286 -0.2891  0.7839 -0.9253
  106OSM    C5S10833  -0.280   1.699  10.258 -0.1843 -0.1331  0.0364
  106OSM    H5S10834  -0.362   1.764  10.290 -0.7999 -1.5668  1.4623
  106OSM    C6S10835  -0.333   1.616  10.142 -0.3826 -0.0130 -0.7155
  106OSM    H6S10836  -0.347   1.692  10.062  1.7406 -0.8646 -1.9707
  106OSM    H6T10837  -0.431   1.572  10.170  0.7455 -0.8835  2.2999
  106OSM    C7S10838  -0.241   1.500  10.097 -0.2205  0.5849  0.4405
  106OSM    H7S10839  -0.224   1.432  10.182  3.6941  1.8341  0.8995
  106OSM    H7T10840  -0.147   1.540  10.052 -0.0151 -1.2403 -0.8531
  106OSM    C8S10841  -0.318   1.424   9.982 -0.5224 -0.2258  0.7483
  106OSM    H8S10842  -0.388   1.361  10.041  0.4974 -1.9507  0.2110
  106OSM    H8T10843  -0.233   1.357   9.955  2.4071  2.9446  1.4347
  106OSM    C9S10844  -0.371   1.507   9.873  0.6170 -0.0976  0.0518
  106OSM    H9S10845  -0.299   1.590   9.856  0.9578 -0.4844 -0.4635
  106OSM    H9T10846  -0.464   1.558   9.903 -0.5644 -2.1394  0.0481
  106OSM   C10S10847  -0.392   1.434   9.744 -0.1964 -0.0042  0.2642
  106OSM   H10S10848  -0.476   1.364   9.762 -2.0897  1.6448 -1.5481
  106OSM   H10T10849  -0.301   1.376   9.719 -0.9417 -0.6370 -1.0952
  106OSM   C11S10850  -0.426   1.524   9.623  0.0898  0.1459  0.4382
  106OSM   H11S10851  -0.346   1.600   9.635  1.6601 -1.3932  0.2454
  106OSM   H11T10852  -0.525   1.574   9.631  0.4764  0.9163  0.4087
  106OSM   C12S10853  -0.413   1.467   9.484 -0.5522 -0.1454  0.3343
  106OSM   H12S10854  -0.468   1.371   9.481  2.2381 -1.8225 -0.7393
  106OSM   H12T10855  -0.306   1.454   9.457 -0.3918  1.0160  0.3502
  106OSM   C13S10856  -0.470   1.560   9.372 -0.4514 -0.1996  0.4450
  106OSM   H13S10857  -0.422   1.658   9.392  0.0887 -0.1874 -0.8379
  106OSM   H13T10858  -0.576   1.577   9.401 -0.7517 -3.3403  1.6511
  106OSM   C14S10859  -0.441   1.512   9.231  0.2875  0.3371  0.1776
  106OSM   H14S10860  -0.472   1.409   9.206  0.8134  0.5347 -1.4525
  106OSM   H14T10861  -0.332   1.514   9.207  0.0578  0.5358 -0.8945
  106OSM   C15S10862  -0.504   1.598   9.122 -0.1207  0.0967 -0.2692
  106OSM   H15S10863  -0.511   1.705   9.152 -2.9579 -0.8431  3.1720
  106OSM   H15T10864  -0.609   1.569   9.099  0.1128 -0.9501 -0.0631
  106OSM   C16S10865  -0.426   1.593   8.985 -0.8723  0.0879  0.3438
  106OSM   H16S10866  -0.320   1.607   9.014 -0.5781  0.9049 -1.0717
  106OSM   H16T10867  -0.453   1.678   8.919  1.5736  0.0624 -0.8094
  106OSM   C17S10868  -0.434   1.451   8.915  0.3977 -0.1900  0.1929
  106OSM   H17S10869  -0.540   1.418   8.904  0.0138  0.8714  0.5530
  106OSM   H17T10870  -0.392   1.382   8.992  1.0628  0.1658  0.1544
  106OSM   C18S10871  -0.360   1.428   8.789 -0.4724  0.4124 -0.1261
  106OSM   H18S10872  -0.391   1.328   8.751 -0.1704  0.7250 -1.2372
  106OSM   H18T10873  -0.249   1.426   8.797 -0.3691 -1.2895 -1.3699
  106OSM   H18U10874  -0.376   1.504   8.710  1.2580  0.4672 -0.4613
  106OSM    C1F10875   0.001   2.075  10.209  0.4317  0.0119 -0.2110
  106OSM     OF10876   0.119   2.096  10.242  0.5534  0.1168  0.7801
  106OSM    C2F10877  -0.074   2.153  10.105  0.2875  0.0914 -0.6001
  106OSM    H2F10878  -0.167   2.194  10.151 -0.7312 -2.6152 -0.0867
  106OSM    H2G10879  -0.128   2.082  10.039 -2.1267 -0.7428  2.0771
  106OSM    C3F10880   0.008   2.260  10.030 -0.9954  0.1923  0.2166
  106OSM    H3F10881   0.102   2.218   9.989 -0.3444  2.2644 -0.5622
  106OSM    H3G10882   0.039   2.332  10.108  1.0773 -2.9300  2.5222
  106OSM    C4F10883  -0.074   2.340   9.921 -0.0102  0.2075 -0.2921
  106OSM    H4F10884  -0.011   2.424   9.886 -0.3592  1.2489  1.4364
  106OSM    H4G10885  -0.173   2.375   9.960 -0.0556  0.6865 -0.8175
  106OSM    C5F10886  -0.092   2.254   9.794  0.0814  0.6102 -0.5367
  106OSM    H5F10887  -0.164   2.174   9.821  1.0205 -0.3575 -0.8271
  106OSM    H5G10888   0.004   2.199   9.780  0.5425  1.0950  0.5802
  106OSM    C6F10889  -0.113   2.329   9.665  0.6328 -0.1655 -0.1735
  106OSM    H6F10890  -0.023   2.388   9.639  0.0901  0.6808 -0.1733
  106OSM    H6G10891  -0.192   2.408   9.666 -0.0023 -0.8024  1.0871
  106OSM    C7F10892  -0.138   2.237   9.544  0.4544  0.5973 -0.2638
  106OSM    H7F10893  -0.228   2.175   9.566  0.0714  0.4760 -2.0010
  106OSM    H7G10894  -0.047   2.184   9.509 -0.9568 -0.2111 -3.0607
  106OSM    C8F10895  -0.177   2.320   9.418 -0.1376 -0.4493 -0.0595
  106OSM    H8F10896  -0.102   2.401   9.404  0.4756 -0.4539  2.7454
  106OSM    H8G10897  -0.266   2.382   9.439  1.3485  1.4638  0.8915
  106OSM    C9F10898  -0.191   2.220   9.300  0.4160 -0.5742 -0.1882
  106OSM    H9F10899  -0.199   2.113   9.326  2.1435 -0.5100  0.7837
  106OSM   C10F10900  -0.190   2.252   9.175  0.2958  0.3991  0.6959
  106OSM   H10F10901  -0.198   2.179   9.094 -0.6316  2.1770 -0.8827
  106OSM   C11F10902  -0.168   2.398   9.123  0.4029 -0.0958 -0.6263
  106OSM   H11F10903  -0.100   2.455   9.189 -1.8908  0.8919  1.0068
  106OSM   H11G10904  -0.259   2.461   9.124  0.3989 -0.1075  0.2477
  106OSM   C12F10905  -0.116   2.405   8.977 -0.3579 -0.7763  0.1981
  106OSM   H12F10906  -0.028   2.338   8.966  0.4449  0.3234 -0.3066
  106OSM   H12G10907  -0.084   2.510   8.960 -0.7248 -0.5534  0.8377
  106OSM   C13F10908  -0.215   2.355   8.870 -0.4768 -0.3143  0.5379
  106OSM   H13F10909  -0.272   2.261   8.878 -2.1365  0.3539 -2.2283
  106OSM   H13G10910  -0.163   2.362   8.772  0.1027  2.4722  0.9495
  106OSM   C14F10911  -0.324   2.456   8.852 -0.2570  0.3576 -0.2742
  106OSM   H14F10912  -0.276   2.557   8.857  1.4772 -0.4278 -0.3199
  106OSM   H14G10913  -0.399   2.447   8.933  0.8555  1.0196  0.8866
  106OSM   C15F10914  -0.398   2.440   8.719 -0.1098 -0.1618 -0.1240
  106OSM   H15F10915  -0.425   2.333   8.702  0.2843 -0.1958 -0.5775
  106OSM   H15G10916  -0.325   2.471   8.641 -0.8580  2.1211  0.0098
  106OSM   C16F10917  -0.518   2.531   8.691 -0.2320  0.1423 -0.3337
  106OSM   H16F10918  -0.533   2.547   8.582  0.6909 -0.6401 -0.5890
  106OSM   H16G10919  -0.496   2.634   8.726  1.5326 -0.1137 -0.6219
  106OSM   C17F10920  -0.651   2.482   8.753  0.1148 -0.3730 -0.1889
  106OSM   H17F10921  -0.652   2.453   8.860 -2.7240  0.3244  0.0620
  106OSM   H17G10922  -0.673   2.391   8.693 -1.3332  0.1669 -0.5311
  106OSM   C18F10923  -0.761   2.586   8.729 -0.4312 -0.1297  0.3431
  106OSM   H18F10924  -0.809   2.565   8.631 -1.2714  0.0155  0.7202
  106OSM   H18G10925  -0.723   2.689   8.745 -2.8645  0.6469  1.6246
  106OSM   H18H10926  -0.841   2.579   8.805  1.1209  0.1082  2.0530
  107OSM      N10927   2.339   6.293  11.296 -1.0395  0.0402  0.6355
  107OSM    C1510928   2.439   6.205  11.372  0.7844  0.5351 -0.4023
  107OSM   H15A10929   2.522   6.254  11.422  1.3351 -0.6908 -0.0838
  107OSM   H15B10930   2.478   6.132  11.304 -0.2557 -1.2230  0.8145
  107OSM   H15C10931   2.397   6.138  11.446  1.7313 -2.3651 -2.3578
  107OSM    C1410932   2.224   6.222  11.251 -0.0254  0.4885  0.6825
  107OSM   H14A10933   2.162   6.300  11.209  1.4791  2.7964  2.5080
  107OSM   H14B10934   2.190   6.165  11.337  0.5846  0.6065  1.0068
  107OSM   H14C10935   2.234   6.154  11.167 -1.5161 -1.4260  1.9681
  107OSM    C1310936   2.287   6.395  11.392  0.1618  0.6020  0.3030
  107OSM   H13A10937   2.220   6.459  11.338 -1.2362 -2.2608 -1.6060
  107OSM   H13B10938   2.368   6.457  11.428 -2.2200  3.3518  1.2570
  107OSM   H13C10939   2.237   6.357  11.480 -1.3731 -1.7834 -1.4603
  107OSM    C1210940   2.414   6.356  11.176  0.1804  0.1497 -0.1245
  107OSM   H12A10941   2.430   6.286  11.095  1.0004 -0.3633  0.4686
  107OSM   H12B10942   2.511   6.388  11.211 -0.7093  0.6636  1.9668
  107OSM    C1110943   2.346   6.480  11.115 -0.3552  0.1555  0.6430
  107OSM   H11A10944   2.417   6.529  11.046 -0.3772  0.3525  0.7599
  107OSM   H11B10945   2.328   6.558  11.192 -3.7225 -0.5754  0.7832
  107OSM      P10946   2.097   6.527  11.055 -0.1293 -0.4667 -0.1657
  107OSM    O1310947   2.010   6.449  11.144  0.4198 -0.0545 -0.1494
  107OSM    O1410948   2.130   6.668  11.091 -1.0877  0.6599  0.0404
  107OSM    O1110949   2.029   6.508  10.912  0.2810 -0.0611 -0.2440
  107OSM    O1210950   2.227   6.444  11.045  0.0051  1.1419 -0.3904
  107OSM    C1S10951   2.097   6.513  10.784 -0.3364 -0.4235  0.6799
  107OSM    H1S10952   2.199   6.471  10.797  0.5466  1.8616  1.6632
  107OSM    H1T10953   2.120   6.616  10.748  0.9904 -1.1505 -0.6639
  107OSM     NF10954   2.102   6.432  10.552  0.6163 -0.6446 -0.2811
  107OSM    HNF10955   2.069   6.481  10.471 -2.4227 -2.9742 -0.6452
  107OSM    C2S10956   2.017   6.440  10.673 -0.3726  0.0793  1.1420
  107OSM    H2S10957   2.002   6.333  10.699  2.4933 -0.5973  0.2823
  107OSM    C3S10958   1.878   6.512  10.650 -0.5545 -1.1211  0.4362
  107OSM    H3S10959   1.912   6.617  10.643 -0.4088 -1.1874  0.1609
  107OSM     O310960   1.791   6.506  10.759  0.2196 -0.3830 -0.3825
  107OSM    HO310961   1.852   6.513  10.833  0.1272 -1.1011 -0.2297
  107OSM    C4S10962   1.805   6.464  10.526 -0.6112 -0.0249  0.6457
  107OSM    H4S10963   1.827   6.518  10.433 -2.6260  3.0242  1.7626
  107OSM    C5S10964   1.702   6.378  10.518  0.2026 -0.3095 -0.2122
  107OSM    H5S10965   1.668   6.334  10.613  2.5495  0.2279  0.9549
  107OSM    C6S10966   1.646   6.325  10.391 -0.7520  0.4481  0.8167
  107OSM    H6S10967   1.665   6.394  10.306  1.2677  0.1480  0.9778
  107OSM    H6T10968   1.536   6.308  10.394 -0.8245  0.6151 -0.5089
  107OSM    C7S10969   1.713   6.195  10.349 -0.4705 -0.6470  0.5017
  107OSM    H7S10970   1.684   6.129  10.433 -1.0654  1.7361  2.2923
  107OSM    H7T10971   1.824   6.201  10.339 -0.5864  1.3847 -0.0486
  107OSM    C8S10972   1.652   6.131  10.221 -0.4652  0.7658  0.5979
  107OSM    H8S10973   1.541   6.132  10.231 -0.5204  1.3848  0.0581
  107OSM    H8T10974   1.690   6.027  10.231  0.4895  0.7735 -2.1367
  107OSM    C9S10975   1.688   6.189  10.076  0.6375  0.2077 -1.5332
  107OSM    H9S10976   1.790   6.232  10.080  0.1644  1.2324  1.0783
  107OSM    H9T10977   1.622   6.274  10.048  0.8433  0.1833 -2.1135
  107OSM   C10S10978   1.692   6.083   9.968  0.4191  0.3576  0.0923
  107OSM   H10S10979   1.592   6.048   9.933  1.0557 -0.4448 -0.9719
  107OSM   H10T10980   1.724   5.987  10.013 -0.3862 -1.4317 -2.8625
  107OSM   C11S10981   1.786   6.122   9.858 -1.0660 -0.1376  0.7024
  107OSM   H11S10982   1.818   6.040   9.791  0.6176  1.9044 -1.1484
  107OSM   H11T10983   1.882   6.144   9.911 -0.6530  0.0454 -0.1047
  107OSM   C12S10984   1.735   6.235   9.768 -0.5516  0.1634 -0.4384
  107OSM   H12S10985   1.817   6.279   9.708  1.2839 -1.8830  0.4638
  107OSM   H12T10986   1.703   6.319   9.833 -3.3573  0.0479 -1.4982
  107OSM   C13S10987   1.623   6.191   9.668 -0.3817 -0.7376  0.4621
  107OSM   H13S10988   1.533   6.257   9.674 -0.0182  0.0897 -2.0509
  107OSM   H13T10989   1.588   6.089   9.696 -0.2456 -0.7031  0.7669
  107OSM   C14S10990   1.674   6.187   9.527  0.0333  0.3218 -0.0848
  107OSM   H14S10991   1.770   6.131   9.527 -0.3335 -0.3348  1.0778
  107OSM   H14T10992   1.705   6.290   9.499  0.4886  0.5441  1.1695
  107OSM   C15S10993   1.578   6.123   9.424  0.2482 -0.3572 -0.1090
  107OSM   H15S10994   1.485   6.183   9.433  0.2039 -0.5021  0.4766
  107OSM   H15T10995   1.553   6.016   9.440  1.1348 -0.7990 -1.5409
  107OSM   C16S10996   1.644   6.116   9.289 -0.8823 -0.5740  0.3036
  107OSM   H16S10997   1.741   6.062   9.298  0.0658  1.1487  0.8917
  107OSM   H16T10998   1.681   6.217   9.262 -0.3705 -1.0229 -0.7440
  107OSM   C17S10999   1.551   6.050   9.186  0.3929 -0.8876  0.2620
  107OSM   H17S11000   1.461   6.113   9.172  0.5152 -0.6366  0.6063
  107OSM   H17T11001   1.518   5.952   9.225 -0.4193 -1.3700 -1.5280
  107OSM   C18S11002   1.616   6.027   9.048  0.0574 -1.0719  0.0998
  107OSM   H18S11003   1.547   5.991   8.969  0.5713 -0.2714 -0.7314
  107OSM   H18T11004   1.697   5.951   9.059  1.8118  0.5313 -1.2419
  107OSM   H18U11005   1.656   6.120   9.002 -3.4628  1.9364  2.5697
  107OSM    C1F11006   2.206   6.356  10.533 -0.6999  0.0797 -0.4433
  107OSM     OF11007   2.234   6.277  10.631 -0.2807 -0.4234  0.6006
  107OSM    C2F11008   2.283   6.360  10.398 -0.2220 -1.0581 -0.1353
  107OSM    H2F11009   2.390   6.342  10.421  0.4535  1.9869 -0.4165
  107OSM    H2G11010   2.275   6.463  10.357 -2.4163 -0.7458  0.9227
  107OSM    C3F11011   2.250   6.258  10.290 -0.0208 -0.0412  0.2091
  107OSM    H3F11012   2.248   6.155  10.332 -1.5026 -0.4154 -0.7126
  107OSM    H3G11013   2.326   6.270  10.210  2.7868 -2.2047  2.3348
  107OSM    C4F11014   2.109   6.271  10.228 -0.0091 -0.5894  0.7488
  107OSM    H4F11015   2.027   6.263  10.302 -0.4587  1.2942  0.5119
  107OSM    H4G11016   2.079   6.195  10.153  0.7238  0.6567 -0.8629
  107OSM    C5F11017   2.088   6.405  10.157 -0.8583 -0.5523  0.2948
  107OSM    H5F11018   2.128   6.490  10.216  1.3772 -1.1498 -0.2673
  107OSM    H5G11019   1.982   6.430  10.132 -0.7601  0.8455  1.1717
  107OSM    C6F11020   2.175   6.425  10.026  0.7242  0.1717 -0.7947
  107OSM    H6F11021   2.280   6.408  10.060  0.8344  0.1607 -1.1412
  107OSM    H6G11022   2.168   6.530   9.993  0.2114  0.9511  1.6243
  107OSM    C7F11023   2.145   6.326   9.914  0.1110 -0.4620  0.5483
  107OSM    H7F11024   2.036   6.331   9.895  0.1682  0.0838  0.3452
  107OSM    H7G11025   2.168   6.226   9.957  2.0925 -0.3187 -0.0818
  107OSM    C8F11026   2.223   6.347   9.780  0.3696  0.3553 -0.4712
  107OSM    H8F11027   2.332   6.362   9.796  0.0988  0.1407  2.0642
  107OSM    H8G11028   2.196   6.439   9.725 -0.5048  0.9063  0.8304
  107OSM    C9F11029   2.218   6.224   9.690  0.1856 -0.1279  0.3743
  107OSM    H9F11030   2.294   6.149   9.714  3.2012  1.7139 -2.5756
  107OSM   C10F11031   2.146   6.205   9.579 -0.3228  0.3506  0.0746
  107OSM   H10F11032   2.155   6.110   9.523  1.9280  1.3053 -1.3324
  107OSM   C11F11033   2.045   6.302   9.520  0.2743 -0.2170  0.0129
  107OSM   H11F11034   2.004   6.379   9.589 -0.5254  0.6770 -1.4033
  107OSM   H11G11035   1.960   6.250   9.471  1.3324  1.0338 -3.4366
  107OSM   C12F11036   2.106   6.376   9.392 -0.6558 -0.0508  0.0181
  107OSM   H12F11037   2.210   6.405   9.417 -0.2188 -0.9075 -0.7341
  107OSM   H12G11038   2.045   6.462   9.356  0.6039 -0.2503 -2.9415
  107OSM   C13F11039   2.121   6.281   9.272 -0.1429  1.3746 -0.2394
  107OSM   H13F11040   2.179   6.192   9.305 -0.4277  1.4049  0.3629
  107OSM   H13G11041   2.172   6.335   9.190 -1.1446  0.5353 -1.4484
  107OSM   C14F11042   1.989   6.238   9.202  0.1230  0.1947 -0.3726
  107OSM   H14F11043   1.911   6.314   9.224 -1.7178 -2.3361  3.0070
  107OSM   H14G11044   1.958   6.148   9.259 -0.2603  1.3341  1.3219
  107OSM   C15F11045   1.998   6.189   9.055 -0.3717 -0.8001 -0.7893
  107OSM   H15F11046   1.904   6.133   9.034 -0.9183 -0.2722  0.1683
  107OSM   H15G11047   2.092   6.140   9.024  1.2309  1.3926  0.2952
  107OSM   C16F11048   1.991   6.307   8.949 -0.0985 -0.5019 -0.7647
  107OSM   H16F11049   2.075   6.378   8.965 -1.5403  1.2571 -0.6734
  107OSM   H16G11050   1.896   6.360   8.973  0.7441  0.3822  0.8366
  107OSM   C17F11051   2.008   6.256   8.802 -0.1758 -0.0095 -0.0803
  107OSM   H17F11052   2.087   6.178   8.802 -1.1787 -1.1343 -2.7419
  107OSM   H17G11053   2.054   6.335   8.739  3.0379 -2.2027 -0.7291
  107OSM   C18F11054   1.879   6.197   8.758  0.3771  0.0095  0.8705
  107OSM   H18F11055   1.795   6.267   8.771 -0.7140 -0.4044 -2.9780
  107OSM   H18G11056   1.861   6.102   8.814 -0.7145  0.5121  1.3921
  107OSM   H18H11057   1.883   6.183   8.648  0.1725  0.9570  0.7374
  108OSM      N11058   5.284   2.435  10.857 -0.2152 -0.2212 -0.0492
  108OSM    C1511059   5.230   2.355  10.974  0.0820  0.5082  0.3353
  108OSM   H15A11060   5.157   2.414  11.027  0.5958  1.3141  0.1473
  108OSM   H15B11061   5.308   2.312  11.035 -0.2296 -2.3221 -1.0466
  108OSM   H15C11062   5.184   2.277  10.914  1.2980  1.3354 -1.7822
  108OSM    C1411063   5.385   2.531  10.908  0.1297 -0.1754 -0.0477
  108OSM   H14A11064   5.347   2.601  10.980 -1.0193 -0.6861 -0.1413
  108OSM   H14B11065   5.427   2.585  10.825  1.9431 -1.4510 -0.0225
  108OSM   H14C11066   5.472   2.491  10.960 -0.8215  0.2984  2.0273
  108OSM    C1311067   5.350   2.338  10.763  0.0618  0.6658 -0.3923
  108OSM   H13A11068   5.282   2.261  10.729  3.7399 -2.7347 -0.7407
  108OSM   H13B11069   5.432   2.297  10.820  0.2705  2.2337  0.5123
  108OSM   H13C11070   5.391   2.394  10.681  3.0093 -0.8427 -0.0702
  108OSM    C1211071   5.172   2.502  10.781  0.4885  0.0423 -0.1056
  108OSM   H12A11072   5.113   2.530  10.867  0.5129  2.1774 -0.7472
  108OSM   H12B11073   5.117   2.420  10.736 -1.5705  0.1485  2.0038
  108OSM    C1111074   5.202   2.619  10.683  0.5416 -0.0143  0.4591
  108OSM   H11A11075   5.118   2.629  10.610  0.7517 -1.5261 -0.0211
  108OSM   H11B11076   5.291   2.593  10.622  0.1968  1.4071 -0.7001
  108OSM      P11077   5.135   2.831  10.831  0.5692  0.4920 -0.1741
  108OSM    O1311078   5.030   2.757  10.908 -0.0761 -0.4306  0.3377
  108OSM    O1411079   5.221   2.928  10.899  0.2783  0.3389 -0.1016
  108OSM    O1111080   5.054   2.898  10.715  0.0314 -0.4057  0.1138
  108OSM    O1211081   5.226   2.743  10.744  0.3321 -0.3057  0.3134
  108OSM    C1S11082   5.100   3.017  10.639 -0.0984  0.1525  0.2444
  108OSM    H1S11083   5.164   3.074  10.709 -0.9686  1.1806  0.2301
  108OSM    H1T11084   5.015   3.084  10.613 -0.0313  0.2834  0.3612
  108OSM     NF11085   5.241   3.078  10.450 -0.3801 -0.3811 -0.1626
  108OSM    HNF11086   5.189   3.125  10.380 -1.4306 -0.7577  0.3508
  108OSM    C2S11087   5.171   2.966  10.506  0.1844 -0.4736 -0.0752
  108OSM    H2S11088   5.244   2.886  10.534 -0.3155 -0.8909  0.0517
  108OSM    C3S11089   5.059   2.905  10.415  0.2932 -0.9093 -0.1708
  108OSM    H3S11090   4.992   2.991  10.395  1.8818  0.8505  1.5593
  108OSM     O311091   4.984   2.795  10.459  0.1035 -0.2137 -0.7666
  108OSM    HO311092   5.002   2.793  10.553  1.0914 -1.3757 -0.9549
  108OSM    C4S11093   5.133   2.867  10.290  0.5544  0.8254  0.0654
  108OSM    H4S11094   5.196   2.780  10.309  1.5734  1.3501 -0.7562
  108OSM    C5S11095   5.123   2.914  10.163 -0.4064 -0.3660  0.2135
  108OSM    H5S11096   5.040   2.979  10.133 -0.0324 -0.3806 -0.8972
  108OSM    C6S11097   5.218   2.869  10.052 -0.2057 -0.1343  0.9608
  108OSM    H6S11098   5.208   2.760  10.031  0.1785  0.1807 -1.1107
  108OSM    H6T11099   5.323   2.897  10.075 -0.1639  0.2158  0.3779
  108OSM    C7S11100   5.189   2.938   9.921  0.6321  0.5429  0.3599
  108OSM    H7S11101   5.214   3.046   9.926 -2.0551  1.2584 -0.0092
  108OSM    H7T11102   5.085   2.929   9.883  1.3256 -1.0402 -1.3728
  108OSM    C8S11103   5.278   2.868   9.818 -0.3762  0.1411  0.4074
  108OSM    H8S11104   5.265   2.758   9.813  1.4394 -0.0894  0.1581
  108OSM    H8T11105   5.385   2.876   9.849 -0.2659 -0.1126  0.0946
  108OSM    C9S11106   5.251   2.925   9.678 -0.0069  0.2753  0.3627
  108OSM    H9S11107   5.294   3.028   9.673 -1.2126  0.9849  2.9825
  108OSM    H9T11108   5.143   2.934   9.653  0.5131  2.0406 -1.5593
  108OSM   C10S11109   5.323   2.838   9.571 -0.4963 -0.0005  0.7121
  108OSM   H10S11110   5.279   2.736   9.568  0.5682 -0.4435 -0.7398
  108OSM   H10T11111   5.430   2.822   9.595  0.3253  0.4700 -2.2594
  108OSM   C11S11112   5.309   2.900   9.423  0.7059  0.5577 -0.6059
  108OSM   H11S11113   5.345   3.005   9.417 -0.4936  1.0016 -0.3445
  108OSM   H11T11114   5.200   2.898   9.400  0.7787 -0.2693 -0.9240
  108OSM   C12S11115   5.373   2.811   9.321 -0.7566  0.5034 -0.5570
  108OSM   H12S11116   5.319   2.714   9.324 -3.0184  1.7069 -0.3036
  108OSM   H12T11117   5.477   2.775   9.335 -1.1526 -0.1585  0.9067
  108OSM   C13S11118   5.368   2.871   9.177  0.1247 -0.5594  0.3229
  108OSM   H13S11119   5.409   2.974   9.185 -1.8041  0.1882  1.4281
  108OSM   H13T11120   5.260   2.873   9.148 -1.1288  0.0545  4.4254
  108OSM   C14S11121   5.444   2.773   9.084 -0.3951  0.4743 -0.3991
  108OSM   H14S11122   5.434   2.668   9.121  2.6611  0.2963  0.2066
  108OSM   H14T11123   5.553   2.790   9.099 -0.5085 -0.2712  1.6015
  108OSM   C15S11124   5.407   2.793   8.937  0.3292 -0.1993  0.3322
  108OSM   H15S11125   5.404   2.904   8.950 -4.2963 -0.3036  2.0482
  108OSM   H15T11126   5.305   2.764   8.905  0.8952  0.6682 -2.5950
  108OSM   C16S11127   5.518   2.749   8.837  0.0267  0.1653  0.3494
  108OSM   H16S11128   5.548   2.645   8.864 -1.0114  0.1785  1.6601
  108OSM   H16T11129   5.605   2.818   8.847 -1.4040  1.8733  1.6424
  108OSM   C17S11130   5.466   2.733   8.694  0.5528  0.2816 -0.2828
  108OSM   H17S11131   5.443   2.836   8.660 -2.8384 -0.0465  0.6722
  108OSM   H17T11132   5.372   2.678   8.712 -0.1070  1.4473 -0.0261
  108OSM   C18S11133   5.556   2.660   8.593 -1.0311 -0.0640  0.5260
  108OSM   H18S11134   5.580   2.558   8.631  0.7981  0.0599 -0.1804
  108OSM   H18T11135   5.651   2.714   8.574 -0.9993 -0.4626 -0.5443
  108OSM   H18U11136   5.513   2.646   8.492  2.8528  0.0117 -1.3495
  108OSM    C1F11137   5.359   3.116  10.486 -0.3036 -0.3825 -0.3264
  108OSM     OF11138   5.424   3.063  10.576  0.3484 -0.3984  0.2009
  108OSM    C2F11139   5.408   3.239  10.416 -0.6664 -1.1402 -0.1131
  108OSM    H2F11140   5.434   3.318  10.489  0.3518  0.4700 -2.1233
  108OSM    H2G11141   5.335   3.285  10.346  0.2316  1.8154  0.7513
  108OSM    C3F11142   5.538   3.205  10.334 -0.8952  0.0316  0.0497
  108OSM    H3F11143   5.613   3.174  10.410 -2.4829  0.9588  2.0578
  108OSM    H3G11144   5.567   3.301  10.286 -1.1318 -0.6422 -1.5033
  108OSM    C4F11145   5.520   3.099  10.223 -0.0495 -0.5705 -0.6682
  108OSM    H4F11146   5.427   3.131  10.172 -0.1735  0.3330  0.0985
  108OSM    H4G11147   5.504   2.998  10.266 -0.9856  0.1396  0.7448
  108OSM    C5F11148   5.637   3.094  10.119  0.3793  0.0871 -0.4988
  108OSM    H5F11149   5.732   3.064  10.168 -0.1552  1.9756  1.8892
  108OSM    H5G11150   5.646   3.202  10.094  2.8441  0.6899  2.4518
  108OSM    C6F11151   5.593   3.014   9.996 -0.7956 -0.4498  0.0422
  108OSM    H6F11152   5.501   3.067   9.964 -0.3590  0.5118  0.3623
  108OSM    H6G11153   5.580   2.907  10.021  0.9439 -0.1432  2.5344
  108OSM    C7F11154   5.695   3.032   9.874 -0.0761 -0.0196  0.8131
  108OSM    H7F11155   5.680   2.943   9.809  2.3347 -0.7362  1.1269
  108OSM    H7G11156   5.803   3.041   9.900  0.3693  0.8349 -1.1169
  108OSM    C8F11157   5.663   3.157   9.792 -0.7754  0.3231 -0.4972
  108OSM    H8F11158   5.656   3.236   9.870  0.3311 -1.1929  1.2231
  108OSM    H8G11159   5.564   3.137   9.746 -0.5038 -2.8903  0.1405
  108OSM    C9F11160   5.768   3.191   9.686  0.2564  0.3124 -0.7269
  108OSM    H9F11161   5.871   3.201   9.725  1.3539 -1.5456 -2.9632
  108OSM   C10F11162   5.750   3.209   9.556 -0.0779 -0.5567  0.4794
  108OSM   H10F11163   5.832   3.222   9.483 -0.7776  1.8583  0.0172
  108OSM   C11F11164   5.618   3.200   9.484 -0.0705 -0.2910 -0.1349
  108OSM   H11F11165   5.543   3.255   9.544  1.4708  1.2187  0.4866
  108OSM   H11G11166   5.597   3.091   9.481  1.8062 -0.7382  1.0298
  108OSM   C12F11167   5.641   3.258   9.341  0.1726 -0.2201  0.8509
  108OSM   H12F11168   5.693   3.356   9.344 -1.2973  0.5630  1.9922
  108OSM   H12G11169   5.546   3.274   9.287  0.0971  1.8190  1.4955
  108OSM   C13F11170   5.714   3.155   9.241 -0.1636 -0.0942 -0.3890
  108OSM   H13F11171   5.663   3.056   9.252 -0.2715  0.0482  0.5222
  108OSM   H13G11172   5.814   3.150   9.289  0.2862  2.9208 -0.8319
  108OSM   C14F11173   5.714   3.189   9.097 -0.8664  0.3391 -0.3135
  108OSM   H14F11174   5.620   3.149   9.052  0.7181 -1.4148 -2.2298
  108OSM   H14G11175   5.804   3.134   9.063 -1.5642 -2.8098  2.3950
  108OSM   C15F11176   5.722   3.333   9.061 -0.3194  0.4266 -0.0882
  108OSM   H15F11177   5.825   3.370   9.079 -0.5993  2.5045 -2.2874
  108OSM   H15G11178   5.669   3.404   9.128 -1.2646  0.6523 -1.0625
  108OSM   C16F11179   5.687   3.357   8.914  0.6443  0.0271 -1.0364
  108OSM   H16F11180   5.587   3.313   8.893  1.1658 -0.8993 -1.6670
  108OSM   H16G11181   5.745   3.294   8.844  1.8499 -1.4211  1.1294
  108OSM   C17F11182   5.682   3.504   8.882  0.3474 -0.4600  0.8643
  108OSM   H17F11183   5.776   3.554   8.912 -0.2095 -0.0524  1.9922
  108OSM   H17G11184   5.607   3.563   8.938  0.7750  0.5675  0.3856
  108OSM   C18F11185   5.657   3.532   8.727 -0.1405  0.1061 -0.1372
  108OSM   H18F11186   5.721   3.458   8.674 -1.7636 -2.2150  0.9565
  108OSM   H18G11187   5.677   3.638   8.701 -1.5455  1.1690  2.6625
  108OSM   H18H11188   5.551   3.506   8.705 -0.5067  0.4023  1.1720
  109OSM      N11189   5.506   5.526  10.718 -0.4098  0.1009  0.2833
  109OSM    C1511190   5.477   5.635  10.819 -0.1177 -0.7473 -0.5820
  109OSM   H15A11191   5.544   5.719  10.805  1.6021 -1.4789  2.3797
  109OSM   H15B11192   5.497   5.591  10.915 -0.1076 -0.2187 -0.3378
  109OSM   H15C11193   5.375   5.669  10.819  0.2422  0.4061  0.5786
  109OSM    C1411194   5.635   5.469  10.753  0.6420  0.5454 -0.2417
  109OSM   H14A11195   5.709   5.548  10.745  2.0034 -0.8468 -2.1097
  109OSM   H14B11196   5.662   5.392  10.683 -1.7215  0.1189 -0.7726
  109OSM   H14C11197   5.643   5.423  10.850  0.8964  0.7632 -0.1584
  109OSM    C1311198   5.397   5.420  10.742 -0.2631 -0.2369  0.7980
  109OSM   H13A11199   5.307   5.456  10.695  1.4304 -0.6131 -3.1077
  109OSM   H13B11200   5.382   5.417  10.849 -1.8619 -3.2808  0.5884
  109OSM   H13C11201   5.441   5.325  10.715  1.1335 -0.1247  2.4886
  109OSM    C1211202   5.501   5.585  10.578  0.3026 -0.0654  0.1906
  109OSM   H12A11203   5.409   5.636  10.553  1.5909  1.7353 -1.1648
  109OSM   H12B11204   5.514   5.510  10.501 -0.1932  0.8958 -0.8776
  109OSM    C1111205   5.616   5.690  10.544 -0.0214  0.0842  0.0285
  109OSM   H11A11206   5.593   5.738  10.446 -0.2771  0.1566  0.1217
  109OSM   H11B11207   5.708   5.632  10.523 -1.6834 -1.6531 -3.2708
  109OSM      P11208   5.759   5.896  10.631 -0.9606  0.0953  0.3792
  109OSM    O1311209   5.695   6.024  10.647  0.3081 -1.0443  0.2227
  109OSM    O1411210   5.865   5.860  10.727 -0.0346  0.7362 -0.3439
  109OSM    O1111211   5.808   5.880  10.480 -0.1769  0.1742  0.3482
  109OSM    O1211212   5.643   5.792  10.644 -0.2951 -0.6966  0.3238
  109OSM    C1S11213   5.919   5.800  10.455 -0.5279  1.3002 -0.0457
  109OSM    H1S11214   5.917   5.702  10.507 -1.5554  1.1820 -0.2757
  109OSM    H1T11215   6.008   5.849  10.500 -0.4957  0.2693  1.0584
  109OSM     NF11216   6.052   5.677  10.289 -0.2837  0.0853  0.0874
  109OSM    HNF11217   6.134   5.714  10.248  0.9013 -2.0953  0.3438
  109OSM    C2S11218   5.927   5.757  10.299 -0.4649  0.0118 -0.2459
  109OSM    H2S11219   5.843   5.686  10.282 -0.2167 -0.3489  0.0011
  109OSM    C3S11220   5.920   5.872  10.205 -0.0606 -0.6593 -0.4064
  109OSM    H3S11221   6.003   5.942  10.228 -1.6949  0.9247  1.0114
  109OSM     O311222   5.805   5.939  10.225  0.1338 -0.0401 -0.0291
  109OSM    HO311223   5.774   5.920  10.313  0.1092  2.0902  0.4690
  109OSM    C4S11224   5.919   5.830  10.062 -0.4628  0.4821  0.4707
  109OSM    H4S11225   5.815   5.815  10.028 -0.3221  1.9618 -0.7200
  109OSM    C5S11226   6.018   5.847   9.974 -0.4679 -1.0789  0.1383
  109OSM    H5S11227   6.106   5.899  10.015  0.4709 -1.2768 -1.5192
  109OSM    C6S11228   6.017   5.833   9.825  0.6877  0.2222  0.6643
  109OSM    H6S11229   6.111   5.782   9.797  0.2552 -1.4839  2.1080
  109OSM    H6T11230   6.019   5.927   9.766  1.3652 -1.3636 -2.0390
  109OSM    C7S11231   5.892   5.757   9.771 -0.2842  0.4430 -0.5428
  109OSM    H7S11232   5.793   5.805   9.785 -0.9102 -1.3606  1.8446
  109OSM    H7T11233   5.882   5.666   9.835 -0.1972  1.1064  0.4429
  109OSM    C8S11234   5.904   5.732   9.622 -0.3007 -0.2866 -0.5901
  109OSM    H8S11235   5.921   5.834   9.581  1.4248 -0.4320 -0.3247
  109OSM    H8T11236   5.803   5.697   9.593 -0.4139  0.0311 -0.5851
  109OSM    C9S11237   6.001   5.621   9.577 -0.3754  0.2509 -0.3968
  109OSM    H9S11238   5.982   5.529   9.637 -1.5163  0.5473 -0.2839
  109OSM    H9T11239   6.101   5.657   9.610 -0.7397 -0.9121  2.2267
  109OSM   C10S11240   5.986   5.598   9.427  0.4797  0.5174  0.4901
  109OSM   H10S11241   6.076   5.551   9.382 -0.0791  0.7844 -0.9884
  109OSM   H10T11242   5.982   5.696   9.375  0.5462  0.7647  0.9511
  109OSM   C11S11243   5.864   5.508   9.405 -0.2299  0.5882  0.2577
  109OSM   H11S11244   5.787   5.527   9.483  1.0458  1.7059  1.3085
  109OSM   H11T11245   5.904   5.407   9.431 -1.0316  0.0655 -0.4889
  109OSM   C12S11246   5.807   5.496   9.265  0.0567 -0.1136  0.2141
  109OSM   H12S11247   5.790   5.596   9.218  1.1487 -0.2737 -0.5632
  109OSM   H12T11248   5.712   5.439   9.264 -0.0015 -0.0726  1.6440
  109OSM   C13S11249   5.898   5.397   9.177  0.3958 -0.7771 -0.2395
  109OSM   H13S11250   5.885   5.298   9.226 -1.2393  0.0868  1.2133
  109OSM   H13T11251   5.999   5.437   9.198  0.1284  0.0680 -0.5390
  109OSM   C14S11252   5.870   5.409   9.028  1.0628 -0.8655  0.0173
  109OSM   H14S11253   5.949   5.344   8.984  0.5552 -0.7656 -1.0491
  109OSM   H14T11254   5.878   5.514   8.994  2.9168 -0.3800  1.7651
  109OSM   C15S11255   5.745   5.345   8.975  0.8316  0.4507  0.1693
  109OSM   H15S11256   5.649   5.376   9.023  0.4059  1.0891 -1.0590
  109OSM   H15T11257   5.762   5.237   8.993  0.1731  0.1218 -1.0276
  109OSM   C16S11258   5.732   5.362   8.825  0.7207 -0.0482  0.5744
  109OSM   H16S11259   5.825   5.328   8.775  0.6617  0.5187  0.0756
  109OSM   H16T11260   5.709   5.468   8.802 -1.0530 -0.0382  2.1366
  109OSM   C17S11261   5.619   5.272   8.778 -0.1921  0.4207  0.4199
  109OSM   H17S11262   5.520   5.303   8.817  0.5514  1.9089  1.2285
  109OSM   H17T11263   5.634   5.166   8.808 -1.1852 -0.1986 -1.1510
  109OSM   C18S11264   5.603   5.278   8.624  0.0118 -0.2250 -0.3011
  109OSM   H18S11265   5.565   5.380   8.606 -1.5483 -0.0798  3.0954
  109OSM   H18T11266   5.524   5.207   8.590 -0.0595 -0.0998 -0.3941
  109OSM   H18U11267   5.700   5.266   8.571  0.2758  1.6980 -0.3146
  109OSM    C1F11268   6.067   5.554  10.336  0.1535 -0.0615  0.9593
  109OSM     OF11269   5.974   5.486  10.376 -0.1893 -0.2636  0.3271
  109OSM    C2F11270   6.204   5.494  10.321 -0.1281 -0.2044 -0.3620
  109OSM    H2F11271   6.222   5.414  10.395  1.7944 -0.8241 -1.4171
  109OSM    H2G11272   6.270   5.584  10.328 -0.0144 -0.4157  1.8251
  109OSM    C3F11273   6.209   5.433  10.174  0.5439  0.7625 -0.0136
  109OSM    H3F11274   6.183   5.502  10.091 -3.2904  0.1845  0.5459
  109OSM    H3G11275   6.142   5.345  10.162  0.2677  1.3007 -3.1564
  109OSM    C4F11276   6.354   5.379  10.143  0.0827 -0.2566 -0.2660
  109OSM    H4F11277   6.377   5.303  10.221 -4.2551 -2.3381 -0.6808
  109OSM    H4G11278   6.430   5.459  10.140  1.8836 -1.9249 -1.9662
  109OSM    C5F11279   6.377   5.298  10.011 -0.2457 -0.3766  0.5038
  109OSM    H5F11280   6.339   5.194  10.022  0.6576 -0.5244  2.6878
  109OSM    H5G11281   6.487   5.279  10.004 -0.1989  0.2031 -0.5316
  109OSM    C6F11282   6.337   5.373   9.883  0.5935 -0.0832  0.1473
  109OSM    H6F11283   6.377   5.476   9.894  0.9272 -0.0211 -1.4087
  109OSM    H6G11284   6.226   5.373   9.878  0.6180 -0.4647 -0.6306
  109OSM    C7F11285   6.390   5.309   9.757  0.4174  0.0029 -0.4553
  109OSM    H7F11286   6.359   5.202   9.763  1.2522 -0.2258 -0.0264
  109OSM    H7G11287   6.501   5.306   9.760  0.4148 -3.5184  1.8349
  109OSM    C8F11288   6.326   5.374   9.626 -0.9924  0.2438  0.0243
  109OSM    H8F11289   6.329   5.484   9.643  2.6462  0.2616  0.0347
  109OSM    H8G11290   6.220   5.350   9.603  0.0172 -2.9418 -1.9814
  109OSM    C9F11291   6.417   5.341   9.506 -0.0508  0.7574 -0.7052
  109OSM    H9F11292   6.523   5.367   9.516  0.1739 -0.6642  1.1065
  109OSM   C10F11293   6.389   5.278   9.397 -0.4780  0.5427  0.0659
  109OSM   H10F11294   6.467   5.284   9.320  0.6464  1.6566  1.2414
  109OSM   C11F11295   6.261   5.204   9.365  0.4929  0.3201  0.4092
  109OSM   H11F11296   6.215   5.240   9.271  2.6085  3.1974  0.3542
  109OSM   H11G11297   6.186   5.228   9.444 -1.0806 -4.1735  0.5967
  109OSM   C12F11298   6.278   5.051   9.378 -0.4991  0.4040  0.3235
  109OSM   H12F11299   6.191   5.007   9.431 -0.9699  0.6904 -0.2017
  109OSM   H12G11300   6.366   5.031   9.443  0.2414 -1.4668 -1.1424
  109OSM   C13F11301   6.301   4.992   9.239  0.5822 -0.5115 -0.1834
  109OSM   H13F11302   6.359   4.898   9.247  1.3958 -0.0817 -0.9458
  109OSM   H13G11303   6.360   5.066   9.181  0.3228  1.6995  2.2435
  109OSM   C14F11304   6.175   4.954   9.161  1.0738  1.0289 -1.0343
  109OSM   H14F11305   6.109   5.043   9.162  0.2523  0.4333  0.3187
  109OSM   H14G11306   6.137   4.862   9.211 -0.1932  0.8308 -2.2823
  109OSM   C15F11307   6.209   4.913   9.015  0.0613 -0.1083  0.1169
  109OSM   H15F11308   6.118   4.859   8.981 -0.8437  0.7283  1.1534
  109OSM   H15G11309   6.301   4.851   9.024 -0.3011 -0.4816  1.5303
  109OSM   C16F11310   6.235   5.022   8.913 -0.3750 -0.0731  0.0068
  109OSM   H16F11311   6.284   4.968   8.828 -0.9572  0.4361 -0.6667
  109OSM   H16G11312   6.319   5.080   8.958 -2.7973  0.9487  3.6069
  109OSM   C17F11313   6.115   5.117   8.879  0.4667  0.2667 -0.8502
  109OSM   H17F11314   6.069   5.154   8.973  0.2107 -2.5513  0.2431
  109OSM   H17G11315   6.039   5.042   8.847 -0.4804  0.6395  0.4341
  109OSM   C18F11316   6.166   5.229   8.792 -0.5250  0.1439 -0.1603
  109OSM   H18F11317   6.216   5.196   8.699 -3.4174 -1.2033 -1.3313
  109OSM   H18G11318   6.245   5.289   8.843  1.8146 -2.0058 -1.0325
  109OSM   H18H11319   6.081   5.292   8.758 -1.1667 -0.5717  0.1102
  110OSM      N11320   6.408   4.136  11.099  0.3390 -0.0316  0.5842
  110OSM    C1511321   6.281   4.218  11.108  0.4203  1.0231  0.3294
  110OSM   H15A11322   6.206   4.193  11.034 -0.4688 -1.7129  1.9921
  110OSM   H15B11323   6.315   4.320  11.100 -0.7591  1.4730  0.7786
  110OSM   H15C11324   6.234   4.213  11.205 -2.3337 -2.1776 -0.9530
  110OSM    C1411325   6.509   4.198  11.183  0.3174  0.4142  0.0218
  110OSM   H14A11326   6.529   4.296  11.142  0.5465  0.8712  1.2089
  110OSM   H14B11327   6.603   4.145  11.179 -0.7576 -1.5968 -0.4606
  110OSM   H14C11328   6.473   4.205  11.284  0.9914 -0.6863  0.3573
  110OSM    C1311329   6.377   4.001  11.149  0.4028 -0.6209 -0.1310
  110OSM   H13A11330   6.311   3.945  11.084 -0.5487  0.3550 -0.0221
  110OSM   H13B11331   6.338   4.012  11.249  0.6933  1.1560 -0.1839
  110OSM   H13C11332   6.471   3.951  11.167  0.7482  0.4911  1.2857
  110OSM    C1211333   6.460   4.127  10.959  0.0878  0.3642 -0.7048
  110OSM   H12A11334   6.468   4.230  10.927 -4.2797  0.5603 -1.7944
  110OSM   H12B11335   6.380   4.082  10.901 -1.0056 -1.7872  2.2303
  110OSM    C1111336   6.582   4.038  10.927 -0.4454  0.1376 -0.8914
  110OSM   H11A11337   6.601   4.055  10.818  0.0399 -2.4132 -1.2678
  110OSM   H11B11338   6.555   3.932  10.944  0.6770  0.2558  2.1531
  110OSM      P11339   6.812   4.176  10.946 -0.3213  0.3308 -0.6196
  110OSM    O1311340   6.788   4.309  10.993  0.2819 -0.0595 -0.5447
  110OSM    O1411341   6.943   4.123  10.983  0.4298 -0.3006 -0.5911
  110OSM    O1111342   6.804   4.185  10.790 -0.9263  0.0401 -0.6385
  110OSM    O1211343   6.702   4.081  10.997  0.4880  0.0962  0.3941
  110OSM    C1S11344   6.850   4.072  10.708  0.3591 -0.1783 -0.4750
  110OSM    H1S11345   6.766   4.015  10.664  0.0460  0.8117 -1.2074
  110OSM    H1T11346   6.910   3.991  10.755  0.2619  0.1374  0.2094
  110OSM     NF11347   6.957   4.007  10.483  0.3191 -0.3643  0.5079
  110OSM    HNF11348   7.050   3.976  10.464  0.4011 -0.7256  1.4019
  110OSM    C2S11349   6.940   4.113  10.581  0.8671  0.5035  0.1948
  110OSM    H2S11350   6.888   4.198  10.532  2.1234  0.6083 -1.0466
  110OSM    C3S11351   7.073   4.176  10.627 -0.0199 -0.4465 -0.4371
  110OSM    H3S11352   7.130   4.100  10.685 -0.4803 -0.8096 -0.4518
  110OSM     O311353   7.062   4.278  10.724 -0.2025 -0.5577 -0.4064
  110OSM    HO311354   6.968   4.280  10.741 -0.0576 -2.1870  0.8726
  110OSM    C4S11355   7.157   4.222  10.517 -0.0889  0.0606 -0.0480
  110OSM    H4S11356   7.099   4.267  10.435 -0.3431 -0.5899 -0.2236
  110OSM    C5S11357   7.290   4.219  10.523  0.8047  0.3612 -0.0660
  110OSM    H5S11358   7.335   4.181  10.616 -2.3099 -2.5770  0.4426
  110OSM    C6S11359   7.390   4.268  10.424 -0.1237  0.4141 -0.0876
  110OSM    H6S11360   7.487   4.255  10.475 -0.0065  0.3248 -0.3340
  110OSM    H6T11361   7.384   4.378  10.407  2.2804  0.7789  1.0728
  110OSM    C7S11362   7.395   4.175  10.299  0.3037  0.3748 -0.2007
  110OSM    H7S11363   7.295   4.161  10.254  1.3187 -1.0097 -2.1998
  110OSM    H7T11364   7.440   4.075  10.319 -3.0258 -0.7937  2.3372
  110OSM    C8S11365   7.456   4.245  10.179  0.9351  0.4644  0.3527
  110OSM    H8S11366   7.566   4.263  10.185  1.0877 -0.0613 -0.6211
  110OSM    H8T11367   7.406   4.341  10.153  0.9568  0.8630  1.7099
  110OSM    C9S11368   7.432   4.165  10.048 -0.5675 -0.3788  0.1501
  110OSM    H9S11369   7.321   4.166  10.043 -0.5875  0.1160  0.5913
  110OSM    H9T11370   7.460   4.057  10.051  1.0671 -0.0824 -1.7799
  110OSM   C10S11371   7.474   4.229   9.918 -0.1094 -0.2466 -0.5147
  110OSM   H10S11372   7.444   4.336   9.912 -0.8504 -0.5053 -1.7470
  110OSM   H10T11373   7.413   4.176   9.842 -0.7190  1.3601 -1.1951
  110OSM   C11S11374   7.624   4.226   9.894  0.6364  0.2797  0.7651
  110OSM   H11S11375   7.651   4.125   9.856  1.1396  0.8107 -0.3514
  110OSM   H11T11376   7.673   4.245   9.992 -2.1542  1.1735  2.0728
  110OSM   C12S11377   7.687   4.327   9.794  0.2837 -0.4985  0.2285
  110OSM   H12S11378   7.797   4.312   9.795  0.8521  2.7035 -0.7570
  110OSM   H12T11379   7.682   4.435   9.819 -2.1171 -0.2430 -1.0349
  110OSM   C13S11380   7.641   4.304   9.646 -0.8298 -0.4417  0.2258
  110OSM   H13S11381   7.532   4.313   9.630 -1.7925 -2.5361  4.0984
  110OSM   H13T11382   7.664   4.196   9.634 -2.4666 -0.8407  0.4460
  110OSM   C14S11383   7.709   4.395   9.542  0.2393  0.2910 -0.1539
  110OSM   H14S11384   7.816   4.366   9.549  1.0926  3.1433  0.0560
  110OSM   H14T11385   7.692   4.502   9.570  0.2668 -0.0205  1.1087
  110OSM   C15S11386   7.664   4.369   9.400 -0.1924 -0.6638 -0.2427
  110OSM   H15S11387   7.553   4.365   9.390 -0.2453  0.1375 -0.0828
  110OSM   H15T11388   7.704   4.271   9.367 -0.3656 -0.3821 -1.3439
  110OSM   C16S11389   7.716   4.475   9.302  0.9208  0.1893 -0.0506
  110OSM   H16S11390   7.826   4.465   9.293  0.6060 -1.6353 -3.1801
  110OSM   H16T11391   7.684   4.574   9.340 -1.1925 -0.5055  0.1027
  110OSM   C17S11392   7.640   4.465   9.168  0.4086  0.2612  0.5117
  110OSM   H17S11393   7.532   4.488   9.182 -0.5784 -2.8639 -0.8876
  110OSM   H17T11394   7.659   4.362   9.130  0.7931  0.9242 -1.2175
  110OSM   C18S11395   7.703   4.561   9.072  0.0066  0.2669 -0.6474
  110OSM   H18S11396   7.671   4.546   8.967  2.7549  0.9323 -1.6525
  110OSM   H18T11397   7.812   4.539   9.077  1.0789  4.5353 -0.9732
  110OSM   H18U11398   7.698   4.666   9.110  0.8103 -0.9054  3.1534
  110OSM    C1F11399   6.860   3.941  10.419  0.6947 -0.8868  0.2250
  110OSM     OF11400   6.741   3.975  10.430 -0.3001  0.3696  0.1273
  110OSM    C2F11401   6.880   3.818  10.339 -0.8670  0.6128 -0.1699
  110OSM    H2F11402   6.890   3.739  10.417  3.2932  1.1397  0.0275
  110OSM    H2G11403   6.976   3.810  10.285 -1.1296 -1.1618 -0.4454
  110OSM    C3F11404   6.781   3.789  10.230  0.3341  0.8023  0.1154
  110OSM    H3F11405   6.679   3.784  10.274  0.9872  2.5704  1.9887
  110OSM    H3G11406   6.794   3.695  10.171 -3.2832 -0.0486  0.4696
  110OSM    C4F11407   6.778   3.889  10.113  0.0606  0.5832 -0.1939
  110OSM    H4F11408   6.879   3.889  10.065  1.5720 -2.4582  2.6360
  110OSM    H4G11409   6.751   3.989  10.154 -2.1733 -0.3527  0.7221
  110OSM    C5F11410   6.685   3.837   9.999 -0.4937 -0.2839  0.3103
  110OSM    H5F11411   6.589   3.840  10.056 -0.2599 -2.4483  0.8732
  110OSM    H5G11412   6.702   3.733   9.964 -0.6068  0.2125 -1.3314
  110OSM    C6F11413   6.695   3.935   9.878  0.4565  0.4034 -0.0067
  110OSM    H6F11414   6.798   3.948   9.839  0.2655  3.1290  0.2358
  110OSM    H6G11415   6.658   4.034   9.911 -0.6862  0.1474 -0.4586
  110OSM    C7F11416   6.607   3.894   9.764  0.3835 -0.1150  0.4747
  110OSM    H7F11417   6.501   3.877   9.792  0.2374 -0.0807 -0.0464
  110OSM    H7G11418   6.645   3.798   9.723 -1.0218 -1.4037  2.0661
  110OSM    C8F11419   6.603   4.003   9.647  0.3201  0.5222 -1.0579
  110OSM    H8F11420   6.712   4.014   9.628  0.3821  2.4192  0.1728
  110OSM    H8G11421   6.564   4.103   9.678  1.4167  0.4497  0.7043
  110OSM    C9F11422   6.531   3.939   9.528  0.2483  0.6174 -0.2980
  110OSM    H9F11423   6.433   3.892   9.545  1.4161 -1.8471 -0.0067
  110OSM   C10F11424   6.581   3.926   9.406  0.2656 -0.4386 -0.9962
  110OSM   H10F11425   6.516   3.877   9.332 -1.0903  2.2450 -1.7062
  110OSM   C11F11426   6.709   3.965   9.345  0.1446 -0.7355 -0.0238
  110OSM   H11F11427   6.762   3.874   9.311 -0.8736 -1.0537 -0.8044
  110OSM   H11G11428   6.770   4.007   9.428 -0.4940 -1.9597  1.0979
  110OSM   C12F11429   6.695   4.053   9.224 -0.7336 -0.2439  0.4572
  110OSM   H12F11430   6.793   4.096   9.193 -1.8099  1.2839 -1.0481
  110OSM   H12G11431   6.642   4.147   9.251  3.1048  2.3026 -0.0346
  110OSM   C13F11432   6.628   3.994   9.098 -1.0169 -0.4601  0.3208
  110OSM   H13F11433   6.526   3.955   9.119 -0.6248 -0.4979  2.3962
  110OSM   H13G11434   6.690   3.905   9.075 -1.5191 -1.3804  2.2851
  110OSM   C14F11435   6.627   4.089   8.976 -0.3847 -0.8716  0.1890
  110OSM   H14F11436   6.726   4.133   8.954 -1.3843  1.0227 -0.7921
  110OSM   H14G11437   6.559   4.176   8.992  2.2485  1.2817  0.3392
  110OSM   C15F11438   6.592   4.016   8.847  0.6376  0.6365  0.0138
  110OSM   H15F11439   6.496   3.961   8.863 -0.0413  1.6146 -0.5634
  110OSM   H15G11440   6.673   3.945   8.825 -1.0813 -1.8717  1.2616
  110OSM   C16F11441   6.573   4.097   8.717  0.2639 -0.5826  0.3068
  110OSM   H16F11442   6.559   4.031   8.629  0.5297  0.6688 -0.6995
  110OSM   H16G11443   6.671   4.148   8.704 -0.2215  0.5459  0.9779
  110OSM   C17F11444   6.466   4.201   8.721  0.4330  0.3592  0.3098
  110OSM   H17F11445   6.473   4.272   8.636  1.4446  2.5315  2.0995
  110OSM   H17G11446   6.478   4.267   8.810  2.7391 -0.1075  0.4248
  110OSM   C18F11447   6.326   4.138   8.714  0.6488 -0.2916 -0.6098
  110OSM   H18F11448   6.324   4.069   8.627  1.0264  0.5492 -1.3002
  110OSM   H18G11449   6.247   4.216   8.701  2.1163  1.3711  0.0605
  110OSM   H18H11450   6.300   4.079   8.804 -1.3202  0.6631 -0.4973
  111OSM      N11451   1.387   1.565  10.798 -0.2968  0.1546 -0.6918
  111OSM    C1511452   1.276   1.570  10.902  0.0878 -0.3443 -0.2213
  111OSM   H15A11453   1.288   1.662  10.957 -0.8136  0.2666 -1.0181
  111OSM   H15B11454   1.278   1.493  10.977  1.6222 -0.1894 -0.0641
  111OSM   H15C11455   1.179   1.568  10.854 -0.6831  1.6912  1.1030
  111OSM    C1411456   1.419   1.703  10.750  0.6432  0.2508  0.1695
  111OSM   H14A11457   1.335   1.742  10.694  1.3239  1.2534 -0.1777
  111OSM   H14B11458   1.495   1.695  10.674  1.1794  0.7097  0.6465
  111OSM   H14C11459   1.466   1.762  10.828  0.2181  0.3651  0.3421
  111OSM    C1311460   1.512   1.511  10.870  0.4968 -1.1524 -0.3344
  111OSM   H13A11461   1.594   1.477  10.809  0.2398 -3.5434  0.5314
  111OSM   H13B11462   1.476   1.425  10.925 -1.5322  1.2865  2.4719
  111OSM   H13C11463   1.551   1.582  10.941 -0.2796 -1.4077  0.3729
  111OSM    C1211464   1.356   1.483  10.681 -0.1769  0.4467  0.7311
  111OSM   H12A11465   1.432   1.495  10.605  0.3558  0.9997  1.3410
  111OSM   H12B11466   1.277   1.534  10.628  0.3767  1.2762  0.6880
  111OSM    C1111467   1.330   1.331  10.715  0.6246 -0.2288  0.3778
  111OSM   H11A11468   1.426   1.296  10.759  0.2748 -0.3021  1.1078
  111OSM   H11B11469   1.323   1.282  10.616  0.6646  1.9263 -0.7519
  111OSM      P11470   1.067   1.318  10.737  0.1084 -0.1005 -0.5833
  111OSM    O1311471   0.990   1.192  10.747  0.2896 -0.1630  0.5820
  111OSM    O1411472   1.009   1.432  10.804 -0.0685 -0.0853 -0.0819
  111OSM    O1111473   1.095   1.353  10.584  0.2138 -0.2119  0.8474
  111OSM    O1211474   1.211   1.305  10.794 -0.4870  0.0332 -0.3671
  111OSM    C1S11475   1.110   1.258  10.477  0.4867  0.3242 -0.4089
  111OSM    H1S11476   1.125   1.157  10.522 -1.5146 -0.2177 -0.8251
  111OSM    H1T11477   1.200   1.279  10.415 -0.2564  0.1558 -1.5794
  111OSM     NF11478   1.000   1.154  10.278 -0.1873 -0.6648  0.2919
  111OSM    HNF11479   1.030   1.194  10.192  2.0192  1.8871  2.0804
  111OSM    C2S11480   0.990   1.256  10.377  0.1434 -0.7144  0.1800
  111OSM    H2S11481   0.900   1.240  10.441 -1.1617  1.6585 -0.9068
  111OSM    C3S11482   0.981   1.401  10.322  0.8618 -0.6924 -0.1976
  111OSM    H3S11483   1.072   1.448  10.278 -1.1593  1.8117 -2.0674
  111OSM     O311484   0.948   1.498  10.429  0.0704 -0.2329  0.1349
  111OSM    HO311485   0.971   1.445  10.505  0.7600 -0.3667 -0.1577
  111OSM    C4S11486   0.884   1.409  10.207 -0.3846  0.5163  0.3994
  111OSM    H4S11487   0.917   1.378  10.107 -0.3214 -2.5556  1.2617
  111OSM    C5S11488   0.760   1.444  10.217  0.4975 -0.2947 -0.3196
  111OSM    H5S11489   0.721   1.473  10.316 -0.4061 -0.9426 -0.4785
  111OSM    C6S11490   0.658   1.442  10.106 -0.3425  0.0079  0.5540
  111OSM    H6S11491   0.563   1.410  10.154 -0.6601  1.4289  0.9028
  111OSM    H6T11492   0.690   1.382  10.018  2.5159 -0.0468  1.5293
  111OSM    C7S11493   0.635   1.568  10.030  0.5497 -0.1591 -0.1629
  111OSM    H7S11494   0.597   1.649  10.096  0.3750 -0.5563  0.2219
  111OSM    H7T11495   0.556   1.549   9.954 -0.6925  1.8836  0.5214
  111OSM    C8S11496   0.748   1.621   9.954 -0.0443  0.0729 -0.0016
  111OSM    H8S11497   0.804   1.531   9.920 -0.5830 -1.4014  2.7586
  111OSM    H8T11498   0.826   1.660  10.023 -0.5778 -2.2050  2.0118
  111OSM    C9S11499   0.706   1.713   9.836  0.2187  0.1900 -0.2870
  111OSM    H9S11500   0.802   1.747   9.793 -0.8312  1.4039 -1.7742
  111OSM    H9T11501   0.655   1.801   9.880 -1.2326 -0.5274 -0.4851
  111OSM   C10S11502   0.626   1.645   9.721  0.3409 -0.3089  0.3996
  111OSM   H10S11503   0.531   1.597   9.754 -0.2439  0.1118 -0.6331
  111OSM   H10T11504   0.696   1.566   9.687  1.8877  1.1386  0.0890
  111OSM   C11S11505   0.602   1.736   9.597 -0.1764  0.3084 -0.4385
  111OSM   H11S11506   0.702   1.744   9.549  0.1789 -2.5006 -0.3416
  111OSM   H11T11507   0.567   1.835   9.633 -2.6681 -0.3509 -0.8845
  111OSM   C12S11508   0.500   1.684   9.495 -0.0031  0.0707 -0.0788
  111OSM   H12S11509   0.403   1.649   9.536 -0.0002 -1.0717 -0.9802
  111OSM   H12T11510   0.540   1.590   9.453 -0.0879 -1.1719  2.4417
  111OSM   C13S11511   0.457   1.796   9.394 -0.1405  0.4521 -0.0588
  111OSM   H13S11512   0.407   1.873   9.457 -1.5117 -0.7538  0.3928
  111OSM   H13T11513   0.371   1.754   9.338 -0.9743  2.1574 -0.1462
  111OSM   C14S11514   0.570   1.856   9.300 -0.0548  0.3621  0.3656
  111OSM   H14S11515   0.600   1.774   9.232 -2.3494  0.2480 -0.5887
  111OSM   H14T11516   0.663   1.869   9.360  0.5208 -0.6151 -0.2787
  111OSM   C15S11517   0.522   1.979   9.222 -1.1696 -0.6323  0.2196
  111OSM   H15S11518   0.494   2.050   9.303 -1.7659 -0.8440  0.1995
  111OSM   H15T11519   0.429   1.939   9.178 -1.8688 -0.4847  1.5051
  111OSM   C16S11520   0.617   2.041   9.127 -0.7337  0.3633  0.4680
  111OSM   H16S11521   0.708   2.065   9.186 -1.1339  0.3674  1.0993
  111OSM   H16T11522   0.583   2.142   9.098 -0.0555  0.4396 -0.0691
  111OSM   C17S11523   0.652   1.962   8.999  0.3287 -0.0978 -0.2970
  111OSM   H17S11524   0.637   1.857   9.031  2.0307  0.0365  1.0755
  111OSM   H17T11525   0.760   1.979   8.976  0.6617 -1.0106  0.5339
  111OSM   C18S11526   0.561   1.989   8.889  0.5127  0.0086  0.4606
  111OSM   H18S11527   0.578   1.922   8.802  1.6851 -0.9608  1.4007
  111OSM   H18T11528   0.584   2.095   8.865  0.1532 -0.0772 -0.2629
  111OSM   H18U11529   0.452   1.993   8.910  0.2955  0.9391 -0.7464
  111OSM    C1F11530   1.013   1.023  10.305 -0.0604  0.5595 -0.0760
  111OSM     OF11531   1.002   0.978  10.416 -0.6480 -0.0263 -0.4837
  111OSM    C2F11532   1.057   0.940  10.187  0.0865  0.1495  0.4621
  111OSM    H2F11533   1.167   0.934  10.199  0.5516  1.3656 -2.3546
  111OSM    H2G11534   1.031   0.995  10.094 -1.9675  0.2949  1.0765
  111OSM    C3F11535   0.991   0.799  10.193 -0.3184 -0.7900 -0.1446
  111OSM    H3F11536   0.886   0.793  10.229 -0.4206 -0.2413 -0.3408
  111OSM    H3G11537   1.049   0.739  10.267 -1.1396 -2.2729 -0.6553
  111OSM    C4F11538   1.002   0.714  10.062  0.1501 -0.4264  0.2747
  111OSM    H4F11539   0.919   0.738   9.991 -0.5142 -1.1745  0.7832
  111OSM    H4G11540   0.974   0.611  10.091  4.9326 -1.7729  0.8833
  111OSM    C5F11541   1.137   0.716   9.992 -0.0846 -0.1271  0.4825
  111OSM    H5F11542   1.160   0.609   9.970 -0.2139  0.0615 -0.6040
  111OSM    H5G11543   1.212   0.756  10.064  0.4839 -1.3263  0.5922
  111OSM    C6F11544   1.135   0.798   9.872 -0.4794 -0.3066  0.3236
  111OSM    H6F11545   1.237   0.826   9.838 -1.2925  0.7760 -1.3690
  111OSM    H6G11546   1.073   0.889   9.885 -1.0233  0.0299 -3.4480
  111OSM    C7F11547   1.063   0.727   9.755 -0.1379  0.3150  1.3188
  111OSM    H7F11548   0.962   0.687   9.777 -0.8572  0.7048 -1.0074
  111OSM    H7G11549   1.129   0.641   9.729  0.1929  0.9432 -0.0062
  111OSM    C8F11550   1.055   0.822   9.634  0.4208 -0.0888  0.2866
  111OSM    H8F11551   1.149   0.876   9.611 -0.4770  1.1991 -0.4721
  111OSM    H8G11552   0.992   0.906   9.671 -0.4841 -1.6299  2.4481
  111OSM    C9F11553   0.989   0.756   9.519  0.2246 -0.2143 -0.2170
  111OSM    H9F11554   0.885   0.791   9.504  0.4417 -0.0584 -1.4812
  111OSM   C10F11555   1.041   0.669   9.432  0.4392  0.9350 -0.0098
  111OSM   H10F11556   0.972   0.625   9.359  0.4542  1.7254 -0.5152
  111OSM   C11F11557   1.183   0.617   9.426  0.5872 -0.2717  0.0792
  111OSM   H11F11558   1.197   0.515   9.468 -2.5449 -1.2035 -0.8247
  111OSM   H11G11559   1.247   0.682   9.489  0.4778 -2.1844  2.3288
  111OSM   C12F11560   1.239   0.612   9.287  0.7127 -0.4861 -0.0568
  111OSM   H12F11561   1.346   0.583   9.282  0.9995  0.5102  0.0456
  111OSM   H12G11562   1.238   0.707   9.229  1.6763 -1.2143 -1.3220
  111OSM   C13F11563   1.159   0.511   9.191  0.0880  0.2326 -0.6955
  111OSM   H13F11564   1.074   0.565   9.145  0.8777  3.5278  1.3858
  111OSM   H13G11565   1.116   0.429   9.253 -0.7166  2.3230  1.6811
  111OSM   C14F11566   1.236   0.447   9.081  0.2250 -0.5386  0.1214
  111OSM   H14F11567   1.161   0.377   9.039  0.6178 -0.0921 -1.3948
  111OSM   H14G11568   1.318   0.399   9.139  0.6379 -0.8795 -0.7112
  111OSM   C15F11569   1.298   0.542   8.971 -0.4379  0.9291 -0.3762
  111OSM   H15F11570   1.356   0.628   9.010  0.8837  1.0169 -2.3921
  111OSM   H15G11571   1.214   0.594   8.920  0.2222  1.5317 -0.8523
  111OSM   C16F11572   1.387   0.469   8.873 -0.4664 -0.0968  0.1861
  111OSM   H16F11573   1.455   0.394   8.919  1.4949  2.3271  1.4630
  111OSM   H16G11574   1.451   0.548   8.829 -0.7444  0.4125  0.6795
  111OSM   C17F11575   1.302   0.413   8.755  1.1062  0.2062  0.2228
  111OSM   H17F11576   1.245   0.490   8.699 -0.7819 -0.4752  1.0935
  111OSM   H17G11577   1.233   0.333   8.790  0.3495  0.1820 -1.2717
  111OSM   C18F11578   1.383   0.338   8.647  0.2433 -0.0410 -0.2551
  111OSM   H18F11579   1.431   0.244   8.681 -1.5125 -1.4202 -1.3849
  111OSM   H18G11580   1.453   0.407   8.596 -1.8039  1.8250 -0.6717
  111OSM   H18H11581   1.313   0.313   8.565  0.5502  2.4512 -1.3700
  112OSM      N11582   2.357   5.399  10.884  0.0199 -0.3158 -0.8020
  112OSM    C1511583   2.345   5.304  10.999 -0.0016  0.2882  0.2394
  112OSM   H15A11584   2.285   5.351  11.075  0.7183 -0.7966  1.5246
  112OSM   H15B11585   2.434   5.271  11.049  0.1922 -1.0699 -0.9444
  112OSM   H15C11586   2.284   5.221  10.965  0.0797  1.0314 -1.8935
  112OSM    C1411587   2.459   5.342  10.795  0.0826  0.5349  0.2456
  112OSM   H14A11588   2.472   5.403  10.707 -0.5483 -0.6637 -0.7045
  112OSM   H14B11589   2.433   5.243  10.761 -1.1768  0.6325  0.8762
  112OSM   H14C11590   2.555   5.323  10.840  0.0698  0.1830  0.1323
  112OSM    C1311591   2.222   5.413  10.812 -0.3221  0.6841 -0.2231
  112OSM   H13A11592   2.226   5.489  10.737 -0.1022 -0.0738 -0.9977
  112OSM   H13B11593   2.141   5.430  10.882 -1.1956 -0.5041 -0.9000
  112OSM   H13C11594   2.199   5.321  10.761  0.6026  1.1226 -1.4747
  112OSM    C1211595   2.400   5.535  10.944  0.1216 -0.5733 -0.5662
  112OSM   H12A11596   2.379   5.613  10.871  0.2928  0.2910  0.2902
  112OSM   H12B11597   2.505   5.535  10.968  0.4732  0.2172 -1.9696
  112OSM    C1111598   2.344   5.588  11.078 -0.6226 -0.3223  0.2556
  112OSM   H11A11599   2.377   5.692  11.096 -1.0157  0.2130 -1.8959
  112OSM   H11B11600   2.389   5.523  11.157  0.7225 -1.1637 -1.1287
  112OSM      P11601   2.101   5.682  11.015  0.3069  0.1232  0.6674
  112OSM    O1311602   1.972   5.611  10.978  0.0149  0.0731  0.4780
  112OSM    O1411603   2.090   5.793  11.109  0.6639  0.8395 -0.3148
  112OSM    O1111604   2.172   5.734  10.882 -0.4231  0.2669 -0.2055
  112OSM    O1211605   2.203   5.576  11.070 -0.2929 -0.4263 -0.4972
  112OSM    C1S11606   2.241   5.860  10.862  0.0169 -0.2744 -0.0282
  112OSM    H1S11607   2.350   5.845  10.877 -0.4973 -2.7298  1.9427
  112OSM    H1T11608   2.205   5.948  10.919 -2.9455 -0.6531 -1.1729
  112OSM     NF11609   2.307   5.977  10.644 -0.4717  0.3832 -0.5922
  112OSM    HNF11610   2.292   6.075  10.653 -4.2009 -0.1496  0.3207
  112OSM    C2S11611   2.209   5.892  10.707 -0.7712 -0.5552 -0.1293
  112OSM    H2S11612   2.214   5.794  10.655  0.1305  0.2672 -1.6553
  112OSM    C3S11613   2.067   5.947  10.697 -0.2615 -0.3038 -0.0307
  112OSM    H3S11614   2.044   6.044  10.744  1.7137 -1.1605  3.0014
  112OSM     O311615   1.965   5.864  10.744 -0.5435  0.4994 -0.5982
  112OSM    HO311616   2.010   5.792  10.789  0.3670  1.9056  0.8556
  112OSM    C4S11617   2.033   5.966  10.549  0.0526 -0.1808  0.3228
  112OSM    H4S11618   2.049   6.071  10.523  1.0025 -0.4942 -0.4305
  112OSM    C5S11619   1.952   5.888  10.462  0.1617 -0.3529  0.2113
  112OSM    H5S11620   1.920   5.790  10.500 -0.5192  0.4221  1.7176
  112OSM    C6S11621   1.930   5.928  10.316 -0.9206 -0.7726 -0.2040
  112OSM    H6S11622   1.907   6.036  10.306  0.9146 -0.5377 -3.0350
  112OSM    H6T11623   1.834   5.879  10.285 -2.7144 -0.3744  4.0826
  112OSM    C7S11624   2.040   5.884  10.218 -0.4923 -0.0486  0.3853
  112OSM    H7S11625   2.051   5.773  10.216  0.8227  0.0769 -0.8641
  112OSM    H7T11626   2.133   5.936  10.250  0.0314 -0.2211 -0.8089
  112OSM    C8S11627   2.004   5.916  10.071  1.0749 -0.2659 -0.2084
  112OSM    H8S11628   1.978   6.024  10.065 -2.3316 -0.6047  3.6864
  112OSM    H8T11629   1.910   5.860  10.049  0.8643 -0.2843  0.7108
  112OSM    C9S11630   2.122   5.877   9.983 -0.0020  0.5830 -0.1257
  112OSM    H9S11631   2.146   5.769   9.991  1.3129  0.9965  3.1479
  112OSM    H9T11632   2.205   5.935  10.029 -0.9324  0.4999  1.7718
  112OSM   C10S11633   2.108   5.912   9.839  0.0994 -0.4803 -0.2550
  112OSM   H10S11634   2.204   5.905   9.784  0.6075 -1.4423  0.7019
  112OSM   H10T11635   2.066   6.014   9.832 -0.7682 -0.9339 -2.2888
  112OSM   C11S11636   2.013   5.806   9.775  0.1656 -0.1918  0.6965
  112OSM   H11S11637   1.917   5.796   9.830  0.4667 -0.6182  1.1513
  112OSM   H11T11638   2.054   5.703   9.763 -1.4850 -0.9384  1.1309
  112OSM   C12S11639   1.978   5.848   9.627 -0.3519  0.6290 -0.9379
  112OSM   H12S11640   2.003   5.955   9.608 -1.1279  1.0973  0.5244
  112OSM   H12T11641   1.868   5.836   9.612 -0.8744 -1.1396  3.0405
  112OSM   C13S11642   2.052   5.763   9.528 -0.3190 -0.3782  0.1550
  112OSM   H13S11643   2.030   5.654   9.531  0.0566 -0.4710 -0.2162
  112OSM   H13T11644   2.162   5.774   9.538 -0.4371  0.2162  0.8365
  112OSM   C14S11645   2.016   5.796   9.379 -0.4411  0.7792  0.2564
  112OSM   H14S11646   2.006   5.907   9.382  1.6867  1.0048  1.3927
  112OSM   H14T11647   1.915   5.755   9.362  0.0211  0.4191 -1.8662
  112OSM   C15S11648   2.123   5.747   9.277  0.9111  0.0059  1.0512
  112OSM   H15S11649   2.105   5.638   9.262 -0.2284  0.4961 -1.7499
  112OSM   H15T11650   2.214   5.773   9.335  0.2109 -1.1316  2.7526
  112OSM   C16S11651   2.101   5.806   9.139  0.3917  0.3407  0.6024
  112OSM   H16S11652   2.181   5.776   9.069  1.3586  2.8561  0.5147
  112OSM   H16T11653   2.119   5.915   9.154 -0.5783  0.5981 -0.0080
  112OSM   C17S11654   1.961   5.780   9.080 -0.1729  0.0706 -0.7689
  112OSM   H17S11655   1.882   5.819   9.146  0.0703 -1.2225  0.3347
  112OSM   H17T11656   1.942   5.670   9.081  0.4242 -0.0370  0.7324
  112OSM   C18S11657   1.950   5.830   8.936  0.3672  0.1939  0.0535
  112OSM   H18S11658   1.982   5.937   8.938  0.5466  0.1291  1.1564
  112OSM   H18T11659   1.844   5.824   8.903  0.6246  2.7491 -1.5531
  112OSM   H18U11660   2.006   5.763   8.867 -0.1939 -0.6532  0.4198
  112OSM    C1F11661   2.429   5.932  10.617 -0.2729 -0.5804 -0.1235
  112OSM     OF11662   2.463   5.821  10.652 -0.1683  0.2016  0.1666
  112OSM    C2F11663   2.513   6.022  10.529  0.2794  0.6056 -0.4994
  112OSM    H2F11664   2.612   6.023  10.579  0.0209  1.8230  0.0324
  112OSM    H2G11665   2.469   6.124  10.528  0.4893  0.7667  1.6845
  112OSM    C3F11666   2.510   5.965  10.382 -0.0921  0.4936 -0.3082
  112OSM    H3F11667   2.407   5.945  10.346  0.9532 -3.0263 -1.7591
  112OSM    H3G11668   2.558   5.865  10.376  0.4115  0.6532  0.8357
  112OSM    C4F11669   2.590   6.056  10.285 -0.3296  0.8241 -0.4370
  112OSM    H4F11670   2.694   6.065  10.322 -0.2965 -1.2016  0.0580
  112OSM    H4G11671   2.557   6.162  10.283  1.0202  1.4518  3.3822
  112OSM    C5F11672   2.576   5.998  10.148  0.2658 -0.1067 -0.4878
  112OSM    H5F11673   2.483   6.046  10.112  0.4025  1.0089  0.5669
  112OSM    H5G11674   2.565   5.887  10.150  2.7565 -0.3969  1.1330
  112OSM    C6F11675   2.692   6.043  10.055  0.0265 -0.4172 -0.2313
  112OSM    H6F11676   2.794   6.018  10.090  0.3881  0.3763 -0.6947
  112OSM    H6G11677   2.672   6.152  10.060 -0.0503 -0.4289 -0.2799
  112OSM    C7F11678   2.676   6.001   9.911  0.2715  0.5098  0.9340
  112OSM    H7F11679   2.621   5.905   9.898 -0.7893  1.3794 -1.7537
  112OSM    H7G11680   2.779   5.991   9.871 -0.1180  1.1947 -0.3272
  112OSM    C8F11681   2.606   6.120   9.827  0.5554  0.2733  0.4393
  112OSM    H8F11682   2.676   6.204   9.842  0.3000  0.6478 -0.3868
  112OSM    H8G11683   2.504   6.154   9.853 -0.3263  1.1052 -3.4096
  112OSM    C9F11684   2.606   6.101   9.675  0.1548  0.2515  0.1825
  112OSM    H9F11685   2.653   6.179   9.614 -0.9178  0.7010 -0.0852
  112OSM   C10F11686   2.532   6.004   9.616 -0.5375  0.0735 -0.6569
  112OSM   H10F11687   2.538   5.995   9.507  1.4677 -2.1081 -0.4550
  112OSM   C11F11688   2.445   5.904   9.687  0.7851  0.4288  0.0700
  112OSM   H11F11689   2.346   5.891   9.639  1.0748 -1.7840  0.0066
  112OSM   H11G11690   2.422   5.933   9.792  0.5154 -0.8441  0.3777
  112OSM   C12F11691   2.507   5.767   9.699  0.1314  0.7783  0.2708
  112OSM   H12F11692   2.608   5.777   9.743  0.5651  0.1666 -0.5477
  112OSM   H12G11693   2.523   5.718   9.600 -0.0500 -0.6890  0.9358
  112OSM   C13F11694   2.420   5.665   9.777  0.0803  0.6435  0.3043
  112OSM   H13F11695   2.456   5.561   9.758  0.1478  0.6119  0.5997
  112OSM   H13G11696   2.312   5.664   9.751  0.3348 -1.1781 -0.8716
  112OSM   C14F11697   2.437   5.675   9.926 -0.3176  0.3842 -0.4698
  112OSM   H14F11698   2.393   5.764   9.976 -0.2242 -0.9197  2.1410
  112OSM   H14G11699   2.542   5.693   9.959 -0.9747 -0.2694  2.2744
  112OSM   C15F11700   2.365   5.569  10.018  0.0133  0.3611  0.3216
  112OSM   H15F11701   2.394   5.470   9.977 -1.4964  0.3063 -0.7015
  112OSM   H15G11702   2.254   5.571  10.008  0.1064  0.6426 -0.7389
  112OSM   C16F11703   2.412   5.570  10.167 -0.9925  0.1394  0.8259
  112OSM   H16F11704   2.408   5.672  10.212  0.2673 -0.0202  1.3495
  112OSM   H16G11705   2.521   5.549  10.159 -0.5438  1.8428  1.8527
  112OSM   C17F11706   2.345   5.471  10.256 -0.0894 -0.7506 -0.0364
  112OSM   H17F11707   2.385   5.369  10.234 -0.9878 -1.6851  2.2814
  112OSM   H17G11708   2.241   5.483  10.218  0.0631  1.3329  0.1390
  112OSM   C18F11709   2.341   5.515  10.396 -0.5386  0.2730 -0.4171
  112OSM   H18F11710   2.435   5.488  10.450  1.2647 -1.7948 -4.1575
  112OSM   H18G11711   2.268   5.455  10.454  0.2473 -0.6593 -0.3557
  112OSM   H18H11712   2.335   5.625  10.412 -1.5033 -0.0051  1.3782
  113OSM      N11713   4.809   1.938  11.101  0.9042 -0.0693  0.1772
  113OSM    C1511714   4.896   2.041  11.160 -1.0746 -0.2093  0.3187
  113OSM   H15A11715   4.981   2.046  11.094 -0.3231 -1.2555  1.1689
  113OSM   H15B11716   4.927   2.020  11.261 -2.0531  2.0413  1.1727
  113OSM   H15C11717   4.858   2.143  11.165  1.5610  0.7931  1.9316
  113OSM    C1411718   4.875   1.805  11.119 -0.3072 -0.2541  0.5988
  113OSM   H14A11719   4.911   1.795  11.220 -0.3919 -2.0133  0.4804
  113OSM   H14B11720   4.960   1.792  11.054 -0.2864 -0.8995  0.7497
  113OSM   H14C11721   4.797   1.735  11.092 -1.6784  1.7475 -0.9985
  113OSM    C1311722   4.676   1.933  11.173  0.5199 -0.0019  0.0210
  113OSM   H13A11723   4.687   1.944  11.279  0.6465  2.9820 -0.2093
  113OSM   H13B11724   4.633   1.836  11.153  0.5910  0.1515 -0.9402
  113OSM   H13C11725   4.614   2.009  11.126  0.8672 -0.1843 -0.7536
  113OSM    C1211726   4.783   1.964  10.952  0.0108 -0.5993 -0.0333
  113OSM   H12A11727   4.712   1.893  10.911 -1.7224  0.5141  0.9085
  113OSM   H12B11728   4.875   1.952  10.897 -1.1258 -0.0110 -2.1629
  113OSM    C1111729   4.713   2.096  10.898  0.4253  0.1989 -0.6397
  113OSM   H11A11730   4.605   2.093  10.924  0.4383  1.1696 -0.4253
  113OSM   H11B11731   4.709   2.081  10.788 -1.7066 -2.1814 -0.3129
  113OSM      P11732   4.868   2.300  10.846 -0.3137 -0.3831  0.0951
  113OSM    O1311733   4.919   2.421  10.916  0.6938  0.2063  0.5403
  113OSM    O1411734   4.974   2.208  10.797  0.7138  0.6044  0.0145
  113OSM    O1111735   4.776   2.350  10.717 -0.2447  0.1032  0.3248
  113OSM    O1211736   4.772   2.217  10.941 -0.3532 -0.4217 -0.2602
  113OSM    C1S11737   4.833   2.427  10.611 -0.2966  0.1833  0.1792
  113OSM    H1S11738   4.863   2.367  10.522 -0.8979  1.0047 -0.5950
  113OSM    H1T11739   4.928   2.476  10.641 -0.1329 -0.9782  1.6685
  113OSM     NF11740   4.775   2.584  10.437  0.0566  0.6664  0.2024
  113OSM    HNF11741   4.805   2.679  10.434  1.9012  0.0993 -1.1124
  113OSM    C2S11742   4.734   2.533  10.570 -0.9120 -0.3689  1.0635
  113OSM    H2S11743   4.637   2.481  10.552 -0.6350  0.2483 -3.1359
  113OSM    C3S11744   4.731   2.643  10.678  0.2303 -0.3882  0.4881
  113OSM    H3S11745   4.831   2.689  10.689  0.4005 -0.2232 -1.3731
  113OSM     O311746   4.679   2.602  10.809  0.4384  0.4896  0.5464
  113OSM    HO311747   4.704   2.510  10.801  1.9835  0.9950 -1.1464
  113OSM    C4S11748   4.638   2.745  10.632 -0.3737 -1.2257 -0.5523
  113OSM    H4S11749   4.537   2.721  10.595  0.1402 -1.7132 -1.6866
  113OSM    C5S11750   4.676   2.876  10.617 -0.5659 -0.4383  0.2042
  113OSM    H5S11751   4.785   2.895  10.612 -0.3315 -1.8459 -0.2837
  113OSM    C6S11752   4.593   2.998  10.577  0.5165  0.0817 -0.1625
  113OSM    H6S11753   4.608   3.075  10.655  2.1614 -0.9728  0.6124
  113OSM    H6T11754   4.483   2.985  10.569  0.4782 -0.1250  0.6870
  113OSM    C7S11755   4.662   3.060  10.450 -0.7583  0.0902  0.2997
  113OSM    H7S11756   4.763   3.100  10.475 -0.4977 -0.9949  1.0312
  113OSM    H7T11757   4.612   3.155  10.420 -2.2903 -0.0144  2.3095
  113OSM    C8S11758   4.671   2.961  10.333 -0.6924 -0.5158  0.5654
  113OSM    H8S11759   4.567   2.935  10.305 -1.1195  1.6547 -0.0232
  113OSM    H8T11760   4.706   2.860  10.363  1.0814  0.0004  0.3508
  113OSM    C9S11761   4.745   3.014  10.208 -0.4544 -0.6822 -0.2770
  113OSM    H9S11762   4.856   3.022  10.219 -0.5874  3.0242 -0.3735
  113OSM    H9T11763   4.713   3.118  10.183  3.5410  0.6722 -0.5523
  113OSM   C10S11764   4.724   2.934  10.080  0.3795 -0.2498 -0.7177
  113OSM   H10S11765   4.614   2.919  10.076  0.6456 -3.0235  0.3891
  113OSM   H10T11766   4.765   2.831  10.084 -1.0052 -0.7789  0.7636
  113OSM   C11S11767   4.790   2.996   9.952  0.6458 -0.3799  0.1631
  113OSM   H11S11768   4.899   3.014   9.965  0.8541 -1.2349 -0.2518
  113OSM   H11T11769   4.728   3.083   9.922  0.7082 -0.8067 -1.3309
  113OSM   C12S11770   4.780   2.894   9.834  1.0229  0.9158  0.9972
  113OSM   H12S11771   4.675   2.872   9.806  1.3348  0.9222 -0.2663
  113OSM   H12T11772   4.831   2.800   9.863 -0.6180 -1.1156 -2.0616
  113OSM   C13S11773   4.839   2.944   9.706  0.3178  0.0855  0.5980
  113OSM   H13S11774   4.941   2.902   9.697  0.2424 -0.0112  0.1550
  113OSM   H13T11775   4.857   3.053   9.701  0.7178 -0.0280 -1.7088
  113OSM   C14S11776   4.761   2.898   9.589 -0.4781 -0.0169  0.2143
  113OSM   H14S11777   4.665   2.955   9.592 -0.3218  0.3875 -1.5485
  113OSM   H14T11778   4.746   2.789   9.606 -0.0944 -0.0020  0.6721
  113OSM   C15S11779   4.836   2.914   9.452  0.5443  0.4764  0.4037
  113OSM   H15S11780   4.944   2.890   9.459  0.4410 -0.0015  0.3816
  113OSM   H15T11781   4.837   3.017   9.412  1.1673  0.0354 -0.7531
  113OSM   C16S11782   4.778   2.820   9.340 -0.2785  0.1729  0.1729
  113OSM   H16S11783   4.669   2.838   9.328  0.1963  1.5135 -2.7887
  113OSM   H16T11784   4.786   2.713   9.367  0.0738 -0.2725 -1.6240
  113OSM   C17S11785   4.855   2.836   9.206 -0.2478  0.2001 -0.2093
  113OSM   H17S11786   4.824   2.752   9.140 -0.0529  1.4265 -1.9104
  113OSM   H17T11787   4.959   2.813   9.236 -1.2605 -0.3657  3.3506
  113OSM   C18S11788   4.838   2.977   9.142  0.4368  0.1998 -0.3806
  113OSM   H18S11789   4.855   3.053   9.221 -0.2010 -1.9504  1.9732
  113OSM   H18T11790   4.735   2.995   9.102  0.5876  2.2719  0.0628
  113OSM   H18U11791   4.917   3.002   9.068 -0.4467 -2.8493 -2.5674
  113OSM    C1F11792   4.780   2.511  10.332 -0.1533  0.1551  0.0774
  113OSM     OF11793   4.737   2.391  10.332 -0.3382  0.1599  0.0976
  113OSM    C2F11794   4.855   2.567  10.217  0.1736  0.0933  0.4167
  113OSM    H2F11795   4.964   2.566  10.235  0.2673  1.1094 -0.0515
  113OSM    H2G11796   4.831   2.675  10.210 -1.7801 -0.4354 -3.0789
  113OSM    C3F11797   4.806   2.499  10.084 -0.6943 -0.1210 -0.8988
  113OSM    H3F11798   4.700   2.526  10.064 -0.6549  1.8553  1.1097
  113OSM    H3G11799   4.815   2.388  10.091  3.8707  0.1311  0.9675
  113OSM    C4F11800   4.885   2.542   9.974  0.4101 -0.4079  0.5734
  113OSM    H4F11801   4.987   2.499   9.969 -0.2912 -1.9811 -2.4336
  113OSM    H4G11802   4.886   2.652   9.991  2.7395 -0.5135  1.5799
  113OSM    C5F11803   4.835   2.500   9.830  0.1118  0.1875  0.1109
  113OSM    H5F11804   4.743   2.562   9.820  0.5851  0.9579  0.4904
  113OSM    H5G11805   4.806   2.392   9.834 -1.6030  0.5897 -0.6376
  113OSM    C6F11806   4.935   2.536   9.716 -0.4882  0.4457 -1.1074
  113OSM    H6F11807   5.026   2.473   9.734 -2.0390 -1.2597  1.4844
  113OSM    H6G11808   4.956   2.644   9.729  2.4165  0.0041 -1.2886
  113OSM    C7F11809   4.878   2.523   9.572 -0.7752 -0.6064  0.6777
  113OSM    H7F11810   4.797   2.599   9.563 -0.3231 -0.3069 -1.3594
  113OSM    H7G11811   4.828   2.428   9.547  1.3330 -1.3855 -0.9037
  113OSM    C8F11812   4.987   2.541   9.464 -0.1639  0.7484 -0.5326
  113OSM    H8F11813   5.044   2.634   9.485  1.6763 -0.4131 -0.1182
  113OSM    H8G11814   4.931   2.552   9.369 -0.3097  0.2528 -0.5058
  113OSM    C9F11815   5.081   2.425   9.435  0.4638  0.3067 -0.0791
  113OSM    H9F11816   5.099   2.344   9.507  1.4175  0.4283 -0.1592
  113OSM   C10F11817   5.108   2.391   9.303 -0.2510  0.5254 -0.4679
  113OSM   H10F11818   5.173   2.303   9.290 -1.1658 -0.3758  0.7542
  113OSM   C11F11819   5.085   2.477   9.179  0.2403 -0.0886 -1.0267
  113OSM   H11F11820   5.072   2.585   9.200 -1.0683 -0.2938 -0.6487
  113OSM   H11G11821   4.984   2.446   9.142 -0.1927 -2.0742  1.4925
  113OSM   C12F11822   5.184   2.451   9.069 -0.4617  0.0512  0.7065
  113OSM   H12F11823   5.182   2.345   9.036 -0.8822  0.9433 -2.4245
  113OSM   H12G11824   5.286   2.478   9.105  0.1449 -1.9542  0.6190
  113OSM   C13F11825   5.152   2.532   8.940 -0.8938  0.4841 -0.2372
  113OSM   H13F11826   5.243   2.548   8.879 -0.8292  1.3396  0.0678
  113OSM   H13G11827   5.119   2.633   8.971  0.3630  0.7463  0.2821
  113OSM   C14F11828   5.030   2.466   8.870 -0.1484  0.2257 -1.1228
  113OSM   H14F11829   4.941   2.454   8.936  1.0502  1.4421  0.8233
  113OSM   H14G11830   5.041   2.365   8.823  0.1188  0.4530 -1.5548
  113OSM   C15F11831   4.997   2.563   8.753  0.3045  0.4119  0.7080
  113OSM   H15F11832   5.065   2.547   8.666  0.3507 -0.1676  0.8450
  113OSM   H15G11833   5.032   2.664   8.784  3.2046  0.4868 -2.2272
  113OSM   C16F11834   4.857   2.543   8.710 -0.2332 -0.5551 -0.0327
  113OSM   H16F11835   4.782   2.582   8.782  0.7962  1.1109  0.1894
  113OSM   H16G11836   4.830   2.435   8.707  0.3594 -0.7372  0.7633
  113OSM   C17F11837   4.831   2.584   8.559  0.0280  0.2035  0.0583
  113OSM   H17F11838   4.914   2.539   8.500 -0.1696  0.0351 -0.0902
  113OSM   H17G11839   4.848   2.694   8.551  3.5939 -0.2622 -0.2962
  113OSM   C18F11840   4.703   2.533   8.494 -0.3737 -0.3519  0.4414
  113OSM   H18F11841   4.709   2.552   8.385 -0.9520  0.2671  0.5094
  113OSM   H18G11842   4.617   2.584   8.541 -0.6462 -1.1893  0.8779
  113OSM   H18H11843   4.685   2.426   8.517 -0.0446  0.3614  4.9456
  114OSM      N11844   6.536   5.285  10.952 -0.7278 -0.0186 -0.2882
  114OSM    C1511845   6.474   5.154  10.977  0.3962  0.3949 -0.3700
  114OSM   H15A11846   6.377   5.164  11.022  0.1837 -0.9517 -0.4889
  114OSM   H15B11847   6.538   5.092  11.037  0.4123 -0.7678 -1.5275
  114OSM   H15C11848   6.455   5.104  10.883  0.6329 -0.6231  0.1057
  114OSM    C1411849   6.451   5.359  10.850  1.0133 -0.3139 -0.3393
  114OSM   H14A11850   6.353   5.361  10.895 -0.2717 -0.3714 -2.9958
  114OSM   H14B11851   6.440   5.300  10.760 -0.5685 -0.6006  0.0240
  114OSM   H14C11852   6.475   5.460  10.821  0.1602  0.0967  0.3447
  114OSM    C1311853   6.549   5.366  11.080  0.0299  0.4377  0.9175
  114OSM   H13A11854   6.582   5.466  11.056 -3.6181  1.9821  1.7994
  114OSM   H13B11855   6.622   5.325  11.149  1.0858  0.0711 -0.3617
  114OSM   H13C11856   6.463   5.375  11.144 -1.1110  0.1089 -0.5066
  114OSM    C1211857   6.675   5.270  10.886 -0.2352  0.2398 -0.2076
  114OSM   H12A11858   6.646   5.214  10.797 -0.5134  1.7848 -1.1271
  114OSM   H12B11859   6.747   5.211  10.940 -1.1287 -2.0473 -1.3705
  114OSM    C1111860   6.750   5.396  10.823  0.3006  0.6130  0.6714
  114OSM   H11A11861   6.693   5.444  10.740  2.4294  0.2942 -1.0803
  114OSM   H11B11862   6.847   5.357  10.785 -0.3023  0.4164 -0.7551
  114OSM      P11863   6.893   5.587  10.924 -0.0935  0.3070 -0.7034
  114OSM    O1311864   6.856   5.714  10.991 -0.0142 -0.2127  0.4699
  114OSM    O1411865   7.006   5.506  10.984 -0.0180  0.6276 -0.0716
  114OSM    O1111866   6.929   5.629  10.779 -0.3390 -0.3043  0.7079
  114OSM    O1211867   6.764   5.496  10.917  0.6326 -0.3352  0.5933
  114OSM    C1S11868   6.845   5.720  10.697  0.2513 -0.4688  0.0318
  114OSM    H1S11869   6.850   5.825  10.735  0.5038  0.2034 -1.7580
  114OSM    H1T11870   6.737   5.694  10.694 -0.0646  0.5004  1.5948
  114OSM     NF11871   6.841   5.825  10.467 -0.0640 -0.5881 -0.3281
  114OSM    HNF11872   6.777   5.799  10.395 -2.0793  1.4158  0.6147
  114OSM    C2S11873   6.903   5.723  10.552  0.0408 -0.4861 -0.3491
  114OSM    H2S11874   7.012   5.744  10.554 -0.3170  1.5234  0.5828
  114OSM    C3S11875   6.885   5.575  10.504 -0.6137 -0.6049 -0.2058
  114OSM    H3S11876   6.786   5.538  10.536 -1.4881  0.3698 -1.6890
  114OSM     O311877   6.982   5.478  10.550 -0.4899 -0.1147  0.0683
  114OSM    HO311878   7.012   5.515  10.634  1.5473 -0.3068 -0.5280
  114OSM    C4S11879   6.904   5.568  10.360  0.6071 -0.0955  0.2129
  114OSM    H4S11880   6.814   5.547  10.300  1.5130 -2.6362 -0.3633
  114OSM    C5S11881   7.016   5.593  10.287 -0.0996  0.8290 -0.1780
  114OSM    H5S11882   7.111   5.617  10.337  0.1935 -0.4247 -0.1141
  114OSM    C6S11883   7.018   5.578  10.142  0.6402 -0.3532 -0.1490
  114OSM    H6S11884   6.916   5.592  10.099  0.1046 -1.1035  0.8176
  114OSM    H6T11885   7.043   5.471  10.123  0.6968 -0.7416  1.9281
  114OSM    C7S11886   7.108   5.672  10.061  0.0461  0.2928  0.1575
  114OSM    H7S11887   7.211   5.667  10.103  0.2174  0.8371 -0.1901
  114OSM    H7T11888   7.075   5.778  10.057  0.6478  0.4502 -1.0631
  114OSM    C8S11889   7.111   5.622   9.911 -0.4372 -0.0155  0.0534
  114OSM    H8S11890   7.127   5.512   9.911  1.7046  0.2389  0.3336
  114OSM    H8T11891   7.184   5.674   9.845  0.7900 -0.4700  1.0175
  114OSM    C9S11892   6.988   5.659   9.820 -0.4528 -1.1608  0.1563
  114OSM    H9S11893   6.961   5.765   9.843  0.8257 -1.0823  1.4652
  114OSM    H9T11894   6.904   5.595   9.854  0.4327 -1.9255  0.9750
  114OSM   C10S11895   7.010   5.651   9.668 -0.1632 -0.5926 -0.7223
  114OSM   H10S11896   7.008   5.543   9.642 -0.5900 -0.2679 -2.1436
  114OSM   H10T11897   7.104   5.703   9.643  1.1075 -1.8076  1.2529
  114OSM   C11S11898   6.888   5.708   9.593 -0.6490 -0.6781 -0.9419
  114OSM   H11S11899   6.876   5.816   9.613 -0.6042 -1.0491  1.2901
  114OSM   H11T11900   6.802   5.658   9.641  0.1249 -0.7535  0.4094
  114OSM   C12S11901   6.891   5.668   9.442 -0.0512  0.7815  0.5384
  114OSM   H12S11902   6.795   5.670   9.386  0.7603  1.4728 -0.8936
  114OSM   H12T11903   6.929   5.566   9.425  0.2636  0.8797  0.6558
  114OSM   C13S11904   6.983   5.762   9.369 -0.2650 -0.0003  0.0855
  114OSM   H13S11905   7.085   5.760   9.412 -0.4139 -1.3960  0.4296
  114OSM   H13T11906   6.941   5.865   9.377  1.5833  0.7102  1.4203
  114OSM   C14S11907   7.000   5.719   9.221  0.8002  1.2098 -0.9654
  114OSM   H14S11908   7.001   5.608   9.222  2.5871  1.1563 -2.8151
  114OSM   H14T11909   7.097   5.740   9.170  0.3009 -0.0358 -2.4828
  114OSM   C15S11910   6.895   5.785   9.134  0.2366  0.0873  0.5797
  114OSM   H15S11911   6.930   5.886   9.104 -1.6280  0.4004 -0.7156
  114OSM   H15T11912   6.796   5.805   9.182 -0.3107 -2.5449  0.7489
  114OSM   C16S11913   6.860   5.706   9.009  0.0391  0.1412 -0.5205
  114OSM   H16S11914   6.844   5.603   9.046 -0.3376  0.1543 -0.6468
  114OSM   H16T11915   6.955   5.691   8.954  0.2066 -3.0281  0.4644
  114OSM   C17S11916   6.742   5.744   8.930  1.0038  0.1270 -0.2677
  114OSM   H17S11917   6.747   5.844   8.880  0.0437  0.3156 -0.0157
  114OSM   H17T11918   6.650   5.749   8.993  0.7046 -0.5799 -0.6442
  114OSM   C18S11919   6.716   5.648   8.814  0.4802  0.2888 -0.2883
  114OSM   H18S11920   6.797   5.663   8.739  0.0717 -0.5493 -0.9107
  114OSM   H18T11921   6.624   5.671   8.756  1.2142  1.8286 -0.8998
  114OSM   H18U11922   6.697   5.546   8.853 -2.3777  0.9927  0.4029
  114OSM    C1F11923   6.867   5.952  10.475  0.8607  0.4185 -0.3355
  114OSM     OF11924   6.971   5.994  10.528  0.0165  0.0354 -0.0839
  114OSM    C2F11925   6.777   6.054  10.405  0.5663 -0.5909  0.4246
  114OSM    H2F11926   6.751   6.128  10.484  0.5606  0.6682 -0.6977
  114OSM    H2G11927   6.690   6.004  10.359  1.3648 -0.1910 -1.6490
  114OSM    C3F11928   6.859   6.129  10.304  0.8816  0.3909  0.6082
  114OSM    H3F11929   6.933   6.196  10.353 -1.3352  3.2554  0.2870
  114OSM    H3G11930   6.797   6.205  10.252  1.0818  1.0989  1.3884
  114OSM    C4F11931   6.928   6.038  10.196  1.1445 -0.8818  0.2011
  114OSM    H4F11932   6.858   5.958  10.163  1.1599 -2.1465  2.9432
  114OSM    H4G11933   7.018   5.996  10.246  2.3048 -1.7921 -2.4836
  114OSM    C5F11934   6.970   6.117  10.068  0.6729 -0.3305 -0.0330
  114OSM    H5F11935   7.037   6.046  10.014  0.3459 -1.1275  0.5801
  114OSM    H5G11936   7.018   6.213  10.096  1.8393 -1.0274  0.4220
  114OSM    C6F11937   6.848   6.154   9.981  0.2432 -0.5690  0.3429
  114OSM    H6F11938   6.775   6.194  10.055 -0.6554 -0.0592 -0.7963
  114OSM    H6G11939   6.806   6.061   9.938 -0.2416 -0.2460  0.1123
  114OSM    C7F11940   6.886   6.255   9.868 -0.5340 -0.9546 -0.0637
  114OSM    H7F11941   6.963   6.211   9.800 -2.2671 -0.8648 -2.2010
  114OSM    H7G11942   6.940   6.340   9.916 -1.8026  0.3603 -0.8664
  114OSM    C8F11943   6.770   6.310   9.782  0.3452 -0.3110  0.6295
  114OSM    H8F11944   6.690   6.359   9.841  1.2705  1.8255  0.1931
  114OSM    H8G11945   6.710   6.224   9.744  0.5198 -0.4129  0.5815
  114OSM    C9F11946   6.812   6.413   9.676 -0.0909 -0.2574  0.6376
  114OSM    H9F11947   6.857   6.507   9.710  0.9602 -0.6902  0.4586
  114OSM   C10F11948   6.769   6.412   9.552  0.0096 -0.0245  0.4463
  114OSM   H10F11949   6.782   6.497   9.483 -1.3951 -1.8709 -2.2536
  114OSM   C11F11950   6.681   6.312   9.490 -0.3324  0.4848  0.4116
  114OSM   H11F11951   6.611   6.257   9.557  1.6781 -1.4204  1.0602
  114OSM   H11G11952   6.751   6.239   9.446  1.6891  0.6228  3.1373
  114OSM   C12F11953   6.595   6.363   9.371 -0.2054 -0.1369  0.8164
  114OSM   H12F11954   6.540   6.454   9.404 -2.5833 -0.6542 -1.3562
  114OSM   H12G11955   6.513   6.292   9.346 -2.3640  2.9390 -1.5932
  114OSM   C13F11956   6.664   6.384   9.237 -0.4038 -0.6889  0.8074
  114OSM   H13F11957   6.763   6.426   9.266 -1.2429  1.4388  0.7371
  114OSM   H13G11958   6.607   6.455   9.174  1.4031 -0.6208 -0.8501
  114OSM   C14F11959   6.679   6.256   9.156  0.6211 -0.0272 -0.0935
  114OSM   H14F11960   6.717   6.165   9.208  1.4555 -1.5412 -3.1372
  114OSM   H14G11961   6.752   6.273   9.074  1.7726 -3.0128  0.1886
  114OSM   C15F11962   6.549   6.216   9.084  0.8342  0.0696 -0.5334
  114OSM   H15F11963   6.513   6.294   9.013  3.0404  0.4704 -1.2893
  114OSM   H15G11964   6.466   6.200   9.156  2.6714  1.3941  2.0380
  114OSM   C16F11965   6.550   6.087   8.989  0.3619  0.3188  0.5481
  114OSM   H16F11966   6.551   5.995   9.051 -0.7514 -1.6693 -2.1889
  114OSM   H16G11967   6.647   6.088   8.935  1.1420  1.2655  1.8838
  114OSM   C17F11968   6.422   6.087   8.909 -0.1179  0.2573 -0.2612
  114OSM   H17F11969   6.450   6.163   8.833  2.2297 -0.8338 -0.5939
  114OSM   H17G11970   6.342   6.122   8.977  0.8291 -0.6026  1.3489
  114OSM   C18F11971   6.400   5.959   8.830 -0.6662 -0.0344 -0.2590
  114OSM   H18F11972   6.292   5.952   8.803 -0.6069 -1.5852 -0.2031
  114OSM   H18G11973   6.427   5.868   8.887  0.2594  0.7395  0.5565
  114OSM   H18H11974   6.467   5.969   8.742  0.1584  1.5731  0.5177
  115OSM      N11975   4.884   4.283  11.229 -0.2898 -0.1464 -0.5371
  115OSM    C1511976   4.976   4.169  11.269 -0.4418 -0.1138 -0.5351
  115OSM   H15A11977   4.955   4.084  11.205 -1.7575  0.4068 -0.8317
  115OSM   H15B11978   4.963   4.134  11.371  0.1174  2.4262  0.4848
  115OSM   H15C11979   5.081   4.190  11.263 -0.3476 -0.6521 -0.8675
  115OSM    C1411980   4.750   4.231  11.222  0.2853  0.2050 -0.3869
  115OSM   H14A11981   4.746   4.141  11.161  4.0625  1.4987 -2.9643
  115OSM   H14B11982   4.674   4.300  11.188 -0.9619 -0.1400  1.5648
  115OSM   H14C11983   4.703   4.205  11.316 -1.8584 -0.6278 -1.6207
  115OSM    C1311984   4.892   4.393  11.330 -0.2245  0.3825 -0.0897
  115OSM   H13A11985   4.867   4.350  11.426 -1.6235  1.3958  0.0185
  115OSM   H13B11986   4.827   4.477  11.313  0.5178  0.7261 -1.4278
  115OSM   H13C11987   4.993   4.431  11.336  0.1253 -0.0016 -2.4657
  115OSM    C1211988   4.929   4.341  11.093  0.1117  0.7730 -0.3475
  115OSM   H12A11989   5.014   4.406  11.106 -0.4227  1.0619  2.2678
  115OSM   H12B11990   4.858   4.414  11.058  1.3193  2.0064 -0.3204
  115OSM    C1111991   4.960   4.238  10.984 -0.2421 -0.3947  0.1380
  115OSM   H11A11992   4.963   4.284  10.883 -0.1136  1.1172  0.8051
  115OSM   H11B11993   4.875   4.168  10.969 -1.4888  1.3988 -1.7350
  115OSM      P11994   5.231   4.222  10.976 -0.0230 -0.6392 -0.1120
  115OSM    O1311995   5.215   4.357  10.929  0.4371  0.4001 -0.0392
  115OSM    O1411996   5.317   4.198  11.094 -0.3686  0.0247  0.5018
  115OSM    O1111997   5.270   4.125  10.852  0.7840 -0.5876 -0.1014
  115OSM    O1211998   5.082   4.164  11.011  0.1412  0.5719  0.0168
  115OSM    C1S11999   5.178   4.127  10.741  0.5627 -0.0816  0.2313
  115OSM    H1S12000   5.142   4.230  10.718  1.0580  0.0281 -0.0550
  115OSM    H1T12001   5.086   4.068  10.763  0.9162 -0.9315 -0.5046
  115OSM     NF12002   5.156   4.074  10.499 -0.0466 -0.2997 -0.0445
  115OSM    HNF12003   5.103   3.993  10.475 -1.0958  0.5243 -0.5637
  115OSM    C2S12004   5.237   4.056  10.614  0.2526 -0.1241 -0.4368
  115OSM    H2S12005   5.331   4.112  10.594  1.0214 -1.3398 -0.3344
  115OSM    C3S12006   5.259   3.908  10.657  0.9848  0.0137  0.1594
  115OSM    H3S12007   5.164   3.860  10.688  1.0153  0.0419  0.2977
  115OSM     O312008   5.355   3.883  10.757 -1.0642 -0.0094 -0.2154
  115OSM    HO312009   5.345   3.964  10.808 -2.6687  0.7820 -1.6419
  115OSM    C4S12010   5.303   3.821  10.535  0.2626 -0.4903 -0.5506
  115OSM    H4S12011   5.366   3.876  10.464 -0.7844  0.1489 -1.0093
  115OSM    C5S12012   5.248   3.700  10.503 -0.3297 -0.8930 -0.3937
  115OSM    H5S12013   5.171   3.669  10.575  1.8229 -0.6505  2.1443
  115OSM    C6S12014   5.274   3.612  10.388  1.0555  0.6601  0.3681
  115OSM    H6S12015   5.182   3.587  10.331  1.1846  0.5028  0.2248
  115OSM    H6T12016   5.307   3.512  10.424 -1.9660 -1.1830 -1.5642
  115OSM    C7S12017   5.382   3.644  10.283  0.5563 -0.3619 -0.1092
  115OSM    H7S12018   5.484   3.629  10.324  0.9937 -2.3686 -1.7996
  115OSM    H7T12019   5.375   3.751  10.253  0.1416 -0.0686  0.9660
  115OSM    C8S12020   5.365   3.567  10.150  0.3083  0.3283  0.1957
  115OSM    H8S12021   5.259   3.585  10.122  0.5130  2.0801  0.4436
  115OSM    H8T12022   5.370   3.457  10.165 -3.2462 -0.1171 -0.8994
  115OSM    C9S12023   5.471   3.608  10.053  0.1685  0.9360 -0.1176
  115OSM    H9S12024   5.572   3.594  10.096  1.4978 -0.2444 -3.3474
  115OSM    H9T12025   5.445   3.714  10.031 -1.0376  0.1001 -3.2200
  115OSM   C10S12026   5.457   3.527   9.927  0.8185 -0.3624  0.7169
  115OSM   H10S12027   5.367   3.549   9.865  1.3591 -1.3199 -0.4731
  115OSM   H10T12028   5.460   3.418   9.952  2.5448 -0.3864  0.5284
  115OSM   C11S12029   5.560   3.560   9.818  0.3796 -0.1186  0.0903
  115OSM   H11S12030   5.662   3.518   9.836 -0.4509 -1.3936  2.0829
  115OSM   H11T12031   5.563   3.671   9.825 -2.1407  0.2012 -2.3143
  115OSM   C12S12032   5.515   3.535   9.673 -0.9050 -0.4153 -0.4611
  115OSM   H12S12033   5.405   3.543   9.664 -1.1958 -1.8113  1.3557
  115OSM   H12T12034   5.555   3.436   9.640  0.6365  0.1921 -0.5300
  115OSM   C13S12035   5.585   3.636   9.571 -0.1483  0.0771 -0.4792
  115OSM   H13S12036   5.695   3.628   9.572  0.1847  3.2381 -0.1332
  115OSM   H13T12037   5.565   3.739   9.608  0.0163 -0.2024  0.4221
  115OSM   C14S12038   5.534   3.604   9.435  0.3654  1.2768 -0.6849
  115OSM   H14S12039   5.424   3.613   9.442  0.4180  0.9089  1.2473
  115OSM   H14T12040   5.560   3.499   9.410 -0.2653  0.3961  2.0047
  115OSM   C15S12041   5.581   3.696   9.325 -0.1624  0.0229 -0.0269
  115OSM   H15S12042   5.690   3.696   9.301 -0.4852  0.4682 -1.6483
  115OSM   H15T12043   5.543   3.795   9.358 -0.0324  0.8226 -2.0857
  115OSM   C16S12044   5.506   3.667   9.190 -0.1062  0.0681 -0.1577
  115OSM   H16S12045   5.403   3.627   9.206  0.2395  0.2008  3.0743
  115OSM   H16T12046   5.560   3.583   9.142 -2.0833 -1.7259  0.5875
  115OSM   C17S12047   5.501   3.779   9.094  0.2445 -0.6054  0.0468
  115OSM   H17S12048   5.434   3.857   9.138  0.6422  0.5799 -1.3643
  115OSM   H17T12049   5.451   3.741   9.002  1.4589 -0.3111 -0.7658
  115OSM   C18S12050   5.633   3.845   9.063 -0.2773  0.1500  0.7752
  115OSM   H18S12051   5.630   3.900   8.966  1.6077  1.3368  1.3305
  115OSM   H18T12052   5.708   3.765   9.050 -0.5722 -0.2825  1.6330
  115OSM   H18U12053   5.668   3.907   9.148  1.1991 -0.9121  0.9864
  115OSM    C1F12054   5.130   4.189  10.431  0.7576  0.3227 -0.7087
  115OSM     OF12055   5.190   4.289  10.450  0.2221 -0.5104 -0.4175
  115OSM    C2F12056   5.010   4.170  10.334  0.4923  0.0412 -0.3264
  115OSM    H2F12057   4.917   4.181  10.394  0.3436  0.6147 -0.6518
  115OSM    H2G12058   5.023   4.068  10.292  2.8912  0.4784 -0.8249
  115OSM    C3F12059   5.019   4.269  10.218 -0.1285 -0.6059  0.6585
  115OSM    H3F12060   5.093   4.228  10.146  0.3611 -0.5058  1.1026
  115OSM    H3G12061   5.043   4.369  10.260 -1.5268 -0.3873  0.9856
  115OSM    C4F12062   4.885   4.282  10.135  0.2880  0.3307  0.7137
  115OSM    H4F12063   4.808   4.342  10.188  0.7878  0.0688  1.7668
  115OSM    H4G12064   4.843   4.180  10.122  2.1314 -0.4669  0.7646
  115OSM    C5F12065   4.909   4.353  10.002 -0.4172 -0.2662  0.0722
  115OSM    H5F12066   4.977   4.288   9.943 -0.0808  0.1069  0.0468
  115OSM    H5G12067   4.949   4.454  10.024 -0.6972 -0.0076 -0.5724
  115OSM    C6F12068   4.778   4.385   9.919 -0.3983 -0.8236 -0.5246
  115OSM    H6F12069   4.746   4.288   9.875  0.4890 -2.4816  2.1802
  115OSM    H6G12070   4.825   4.459   9.851 -0.4539  2.4946  2.7419
  115OSM    C7F12071   4.659   4.446   9.993 -0.1103  0.5149  0.7285
  115OSM    H7F12072   4.688   4.538  10.048  1.5418 -0.9457  2.4472
  115OSM    H7G12073   4.619   4.375  10.069 -2.7280  0.5303 -0.5373
  115OSM    C8F12074   4.532   4.482   9.913 -0.1045 -0.0706  0.0568
  115OSM    H8F12075   4.577   4.571   9.863  1.1827  0.8486  2.6932
  115OSM    H8G12076   4.451   4.524   9.976 -2.0190 -0.9880 -1.6944
  115OSM    C9F12077   4.472   4.366   9.842 -0.1145  0.4530  0.0935
  115OSM    H9F12078   4.456   4.275   9.903 -0.4289  0.8961  0.6772
  115OSM   C10F12079   4.437   4.355   9.714 -0.5580 -0.6624  0.6542
  115OSM   H10F12080   4.397   4.261   9.673 -1.2101  0.2486 -0.8695
  115OSM   C11F12081   4.438   4.477   9.620  0.4776 -0.0335 -0.1606
  115OSM   H11F12082   4.537   4.471   9.568  1.0903  1.9926  0.6735
  115OSM   H11G12083   4.438   4.576   9.671  2.5273  0.3184 -0.7276
  115OSM   C12F12084   4.324   4.471   9.513 -0.3094 -0.1616 -0.1186
  115OSM   H12F12085   4.222   4.479   9.557 -0.4385 -1.9521 -0.0111
  115OSM   H12G12086   4.339   4.372   9.466 -0.2450  0.2751 -1.0244
  115OSM   C13F12087   4.349   4.568   9.399  0.6597 -0.4887  0.0174
  115OSM   H13F12088   4.454   4.556   9.362  1.0812 -0.5837  1.2178
  115OSM   H13G12089   4.325   4.670   9.434  0.2688 -0.5697 -0.0098
  115OSM   C14F12090   4.265   4.550   9.272  1.0522  0.1645 -0.4920
  115OSM   H14F12091   4.159   4.540   9.304  0.7791 -0.2613 -1.4894
  115OSM   H14G12092   4.289   4.453   9.224 -0.5429  1.0125 -3.2389
  115OSM   C15F12093   4.281   4.665   9.172 -0.1138 -0.5332 -0.3537
  115OSM   H15F12094   4.277   4.761   9.227  1.4469 -0.4803 -0.2818
  115OSM   H15G12095   4.201   4.658   9.095  0.9454  1.3563 -1.7218
  115OSM   C16F12096   4.419   4.676   9.106  0.2843 -0.2982 -0.2782
  115OSM   H16F12097   4.460   4.580   9.066  1.4201  0.1053 -0.1332
  115OSM   H16G12098   4.488   4.722   9.180  0.4792 -0.1978 -0.5217
  115OSM   C17F12099   4.422   4.780   8.990 -0.3376  0.2423 -0.0484
  115OSM   H17F12100   4.524   4.814   8.960  0.8103 -0.1395  3.0532
  115OSM   H17G12101   4.378   4.876   9.025 -1.1030 -0.7859  1.9854
  115OSM   C18F12102   4.365   4.729   8.862 -0.4503  0.1355  0.4275
  115OSM   H18F12103   4.365   4.810   8.786 -0.0317 -1.2218 -1.0726
  115OSM   H18G12104   4.261   4.692   8.865 -0.2179 -0.4792  2.0309
  115OSM   H18H12105   4.426   4.653   8.809 -0.9332  1.1439 -1.6947
  116OSM      N12106   6.636   1.240  10.978  0.0160  0.9249 -0.0285
  116OSM    C1512107   6.715   1.234  10.855  0.3185 -0.2333  0.9820
  116OSM   H15A12108   6.680   1.302  10.778  0.0873  0.5089  1.7382
  116OSM   H15B12109   6.728   1.133  10.819  0.9414  0.3548 -0.5578
  116OSM   H15C12110   6.813   1.268  10.884  0.9545 -1.7338  0.6863
  116OSM    C1412111   6.558   1.365  10.983  0.3832 -0.8090 -0.0914
  116OSM   H14A12112   6.615   1.456  10.976 -0.5096 -0.1987  0.3709
  116OSM   H14B12113   6.508   1.375  11.079  1.1467 -0.7294  0.3047
  116OSM   H14C12114   6.479   1.364  10.909 -2.1718  0.2459  2.4077
  116OSM    C1312115   6.536   1.122  10.968 -0.7397 -0.8677 -0.6942
  116OSM   H13A12116   6.500   1.116  11.070  0.2610  2.0734 -0.0717
  116OSM   H13B12117   6.597   1.042  10.929  0.3078  0.8467 -2.7763
  116OSM   H13C12118   6.455   1.131  10.898 -0.4493  0.9536 -0.8610
  116OSM    C1212119   6.729   1.217  11.095 -0.2391  0.9473 -0.2909
  116OSM   H12A12120   6.787   1.127  11.100 -0.4567  0.8525  2.2544
  116OSM   H12B12121   6.667   1.216  11.184  1.1138 -1.1980  0.6896
  116OSM    C1112122   6.836   1.325  11.117  0.2591 -0.5405  0.7023
  116OSM   H11A12123   6.861   1.344  11.224 -2.5308  1.7739  1.0937
  116OSM   H11B12124   6.793   1.427  11.104  0.4943 -0.1534  2.6460
  116OSM      P12125   7.036   1.185  11.058 -0.1502  0.1040 -0.1761
  116OSM    O1312126   7.119   1.205  11.182  0.3725 -0.1280 -0.1617
  116OSM    O1412127   6.961   1.062  11.044  0.1569  0.1384  0.1562
  116OSM    O1112128   7.127   1.201  10.935 -0.3521 -0.1056  0.1670
  116OSM    O1212129   6.949   1.314  11.037 -0.1349 -0.2488  0.5785
  116OSM    C1S12130   7.075   1.253  10.809 -0.2905  0.4979  0.5663
  116OSM    H1S12131   7.057   1.361  10.824 -1.0353  0.4571  0.0110
  116OSM    H1T12132   6.975   1.208  10.788  0.2341 -0.1484 -0.7048
  116OSM     NF12133   7.127   1.297  10.571 -0.0708  0.9973  0.0732
  116OSM    HNF12134   7.097   1.254  10.486 -1.5943  1.5197  0.3135
  116OSM    C2S12135   7.173   1.223  10.687 -0.1086 -0.4621  0.5797
  116OSM    H2S12136   7.276   1.255  10.713 -1.0539  2.1609  1.3842
  116OSM    C3S12137   7.180   1.072  10.663 -0.3996 -0.0889 -0.6940
  116OSM    H3S12138   7.082   1.035  10.626  0.8437 -2.4933 -1.8253
  116OSM     O312139   7.218   0.994  10.777 -0.1315 -0.2419  0.0636
  116OSM    HO312140   7.206   1.055  10.851  3.5533  3.0153 -1.6586
  116OSM    C4S12141   7.271   1.049  10.546  0.5452  0.1596  0.3661
  116OSM    H4S12142   7.212   1.055  10.454  1.6352 -0.7128 -0.4213
  116OSM    C5S12143   7.404   1.026  10.542 -0.8203  1.0364  0.3323
  116OSM    H5S12144   7.466   1.033  10.632 -1.8804  1.4499  1.0443
  116OSM    C6S12145   7.485   0.998  10.415  0.2692 -0.0585  0.0267
  116OSM    H6S12146   7.476   0.891  10.386 -2.4028  0.0399  0.3118
  116OSM    H6T12147   7.592   1.025  10.428  0.2649  1.5185 -2.5088
  116OSM    C7S12148   7.435   1.080  10.296 -0.6690 -0.0169  1.2465
  116OSM    H7S12149   7.447   1.189  10.317 -0.1837  1.1693 -3.7049
  116OSM    H7T12150   7.328   1.051  10.284 -0.0456 -1.7171 -0.7493
  116OSM    C8S12151   7.497   1.050  10.160  0.0207 -0.6984 -0.5811
  116OSM    H8S12152   7.518   0.942  10.174  1.5128 -0.1452  2.1374
  116OSM    H8T12153   7.601   1.087  10.142  0.1159 -1.8005 -2.6527
  116OSM    C9S12154   7.416   1.076  10.035  0.7690  0.1253 -0.3161
  116OSM    H9S12155   7.364   1.173  10.050 -2.0764 -1.2674 -0.3438
  116OSM    H9T12156   7.335   0.999  10.031  1.6705 -0.8943  0.5182
  116OSM   C10S12157   7.493   1.082   9.899 -0.2674  0.1646 -0.7790
  116OSM   H10S12158   7.544   0.984   9.890 -0.5506  0.0999 -1.8292
  116OSM   H10T12159   7.581   1.150   9.906 -0.5812  0.5996 -0.9897
  116OSM   C11S12160   7.392   1.107   9.792  0.0463 -0.0602  0.1994
  116OSM   H11S12161   7.355   1.212   9.791  1.8554  0.6209  0.7999
  116OSM   H11T12162   7.299   1.045   9.791 -0.8190  1.1277  1.9303
  116OSM   C12S12163   7.454   1.082   9.652  0.1785 -0.5587 -0.1695
  116OSM   H12S12164   7.460   0.972   9.638 -0.8911 -0.7884  0.9826
  116OSM   H12T12165   7.557   1.123   9.664 -1.2180  2.7493  1.8247
  116OSM   C13S12166   7.378   1.146   9.533 -0.5030  0.2679 -0.8980
  116OSM   H13S12167   7.436   1.238   9.511 -0.3115  0.1833 -0.7437
  116OSM   H13T12168   7.274   1.157   9.571 -0.5397 -0.0920 -0.8909
  116OSM   C14S12169   7.373   1.063   9.402  0.2711 -0.1172 -0.0023
  116OSM   H14S12170   7.324   1.121   9.321  3.6188  0.9490 -1.4256
  116OSM   H14T12171   7.320   0.969   9.431 -0.7223  1.2796  3.1825
  116OSM   C15S12172   7.506   1.021   9.354 -0.5029 -0.5206  0.1040
  116OSM   H15S12173   7.528   0.915   9.379 -1.1913 -0.4706  0.9606
  116OSM   H15T12174   7.586   1.089   9.390 -0.8485  0.5753 -1.0817
  116OSM   C16S12175   7.521   1.023   9.198  0.5060 -0.4117 -0.2414
  116OSM   H16S12176   7.499   1.122   9.153 -0.3653 -0.6229 -0.3073
  116OSM   H16T12177   7.435   0.963   9.161 -1.2832  1.1012  1.2766
  116OSM   C17S12178   7.648   0.963   9.143 -0.4599 -0.6963 -0.5232
  116OSM   H17S12179   7.673   0.861   9.178  2.5010 -0.5175 -1.8151
  116OSM   H17T12180   7.735   1.028   9.168 -1.1982 -0.4087  1.4750
  116OSM   C18S12181   7.640   0.955   8.991  0.0198  0.5310 -0.3901
  116OSM   H18S12182   7.536   0.918   8.975 -0.9394  2.4823  1.0216
  116OSM   H18T12183   7.707   0.879   8.945 -1.7391 -0.4597 -1.4644
  116OSM   H18U12184   7.657   1.050   8.937 -1.6161  0.8046 -0.4893
  116OSM    C1F12185   7.130   1.425  10.557  0.4979 -0.0472  0.6853
  116OSM     OF12186   7.175   1.500  10.648 -0.3528  0.4582  0.3541
  116OSM    C2F12187   7.068   1.483  10.429 -0.8274 -0.2044  0.4154
  116OSM    H2F12188   6.980   1.548  10.451  0.2740  2.2641 -1.8147
  116OSM    H2G12189   7.035   1.399  10.365 -0.2884 -0.6870  0.7657
  116OSM    C3F12190   7.164   1.571  10.341  0.1735 -0.0502  0.0401
  116OSM    H3F12191   7.255   1.519  10.303  0.6098  1.2768 -0.8410
  116OSM    H3G12192   7.205   1.646  10.412 -0.1769 -0.3311  0.5379
  116OSM    C4F12193   7.090   1.647  10.231  0.5761  0.5188  0.3146
  116OSM    H4F12194   6.989   1.659  10.276  0.5977  1.7156  0.0753
  116OSM    H4G12195   7.073   1.574  10.149  0.4145  0.9448 -0.0338
  116OSM    C5F12196   7.147   1.779  10.186  0.2912 -0.0865 -0.1780
  116OSM    H5F12197   7.255   1.765  10.169  0.1847 -0.2232 -0.7547
  116OSM    H5G12198   7.143   1.844  10.276 -0.2641  1.0249 -0.9800
  116OSM    C6F12199   7.058   1.844  10.079 -0.0016  0.3009 -0.5088
  116OSM    H6F12200   7.065   1.954  10.089 -0.7527  0.5406 -2.2717
  116OSM    H6G12201   6.956   1.820  10.117  0.2772 -0.5034 -0.2464
  116OSM    C7F12202   7.085   1.791   9.942 -0.6777  0.7536 -0.7160
  116OSM    H7F12203   7.056   1.684   9.944  2.0129 -0.0754 -1.2249
  116OSM    H7G12204   7.196   1.800   9.930 -0.4482 -0.8813 -0.1026
  116OSM    C8F12205   7.015   1.857   9.821  0.1740  0.8589  0.1141
  116OSM    H8F12206   7.020   1.773   9.748 -1.5410  0.3308  0.5441
  116OSM    H8G12207   7.065   1.947   9.780 -0.7347  1.2894 -0.0811
  116OSM    C9F12208   6.877   1.895   9.854 -0.0684  0.5407 -0.3484
  116OSM    H9F12209   6.870   1.987   9.915  0.7031  1.9630 -2.3089
  116OSM   C10F12210   6.765   1.845   9.801 -0.4395 -0.4599 -0.3588
  116OSM   H10F12211   6.671   1.875   9.850  0.4398 -0.9213  1.7117
  116OSM   C11F12212   6.747   1.743   9.696  0.2279  0.3881  0.8489
  116OSM   H11F12213   6.642   1.710   9.710 -0.1943  1.1850 -0.2105
  116OSM   H11G12214   6.824   1.663   9.698 -0.1655 -0.0841 -0.9719
  116OSM   C12F12215   6.754   1.812   9.558 -0.5784 -0.5782  0.0781
  116OSM   H12F12216   6.844   1.878   9.557 -2.4401  2.7371  5.6564
  116OSM   H12G12217   6.668   1.883   9.555  0.0892  0.3500  1.5228
  116OSM   C13F12218   6.746   1.707   9.444  0.5012 -0.6898  0.4721
  116OSM   H13F12219   6.649   1.654   9.443 -0.4946  1.0789  0.0652
  116OSM   H13G12220   6.825   1.629   9.443  0.5371 -0.7320 -2.2460
  116OSM   C14F12221   6.758   1.775   9.306  0.8105 -0.5137  0.9081
  116OSM   H14F12222   6.705   1.872   9.308 -1.1848 -1.5130 -0.6393
  116OSM   H14G12223   6.720   1.698   9.234 -0.0033 -0.3623  1.1677
  116OSM   C15F12224   6.904   1.815   9.285  0.3912  0.0692 -0.4330
  116OSM   H15F12225   6.961   1.720   9.277  0.8168  0.2507  0.3302
  116OSM   H15G12226   6.937   1.879   9.369  1.5135  0.4586 -1.1533
  116OSM   C16F12227   6.915   1.885   9.152 -0.5858 -0.1135 -0.6497
  116OSM   H16F12228   7.021   1.918   9.145 -0.2767 -0.7392  0.7839
  116OSM   H16G12229   6.848   1.974   9.151 -0.1268  0.2416 -1.2621
  116OSM   C17F12230   6.891   1.801   9.022  0.6613 -1.7528  0.3375
  116OSM   H17F12231   6.792   1.750   9.019  0.0722 -0.6306 -0.2560
  116OSM   H17G12232   6.958   1.712   9.017  0.3774 -1.9050 -1.4547
  116OSM   C18F12233   6.901   1.892   8.892 -0.1245  0.4066 -0.4256
  116OSM   H18F12234   6.823   1.971   8.894 -0.8948 -0.3493 -0.0515
  116OSM   H18G12235   6.878   1.833   8.801  0.1722  0.9418 -0.8471
  116OSM   H18H12236   7.002   1.939   8.889 -0.0572  0.3140  0.1426
  117OSM      N12237   4.309   2.469  11.111  0.3252  0.0733 -0.9159
  117OSM    C1512238   4.205   2.368  11.123  0.3360  0.1334 -0.5179
  117OSM   H15A12239   4.193   2.320  11.027 -0.1059 -2.1571  0.5995
  117OSM   H15B12240   4.112   2.410  11.156  1.1579  2.7203 -1.2414
  117OSM   H15C12241   4.246   2.284  11.177  2.4298  1.0222 -0.6288
  117OSM    C1412242   4.250   2.604  11.056 -1.0354  0.1248  0.0432
  117OSM   H14A12243   4.191   2.590  10.967 -0.9049  1.2906 -0.2411
  117OSM   H14B12244   4.325   2.681  11.043 -1.5413  0.6444  0.2137
  117OSM   H14C12245   4.186   2.650  11.130 -1.0637 -1.1389  0.8358
  117OSM    C1312246   4.365   2.506  11.240 -0.5254 -0.3772 -1.0061
  117OSM   H13A12247   4.461   2.555  11.237 -1.3864  1.3963 -0.9891
  117OSM   H13B12248   4.378   2.423  11.308 -0.1907 -0.7157 -1.4812
  117OSM   H13C12249   4.304   2.575  11.297 -0.3441 -0.9072 -0.1468
  117OSM    C1212250   4.419   2.432  11.016  0.4844 -1.0772  0.5031
  117OSM   H12A12251   4.478   2.353  11.060  0.2668 -2.6911 -1.9093
  117OSM   H12B12252   4.482   2.519  11.004 -1.4174  0.2070 -0.7726
  117OSM    C1112253   4.384   2.384  10.873  0.0837  0.0462  0.0834
  117OSM   H11A12254   4.455   2.424  10.797  1.1158 -2.3164 -0.2976
  117OSM   H11B12255   4.281   2.420  10.856  0.5607  2.3120  1.5637
  117OSM      P12256   4.285   2.153  10.824 -0.2875  0.0019  0.3619
  117OSM    O1312257   4.311   2.011  10.863 -1.2193 -0.3042 -0.1572
  117OSM    O1412258   4.154   2.209  10.866 -0.5135 -0.0518  0.1309
  117OSM    O1112259   4.306   2.173  10.666 -0.5516  0.2176  0.1795
  117OSM    O1212260   4.402   2.243  10.880 -0.0837  0.4175  0.2183
  117OSM    C1S12261   4.444   2.152  10.627 -0.3334 -0.0544  0.0652
  117OSM    H1S12262   4.496   2.066  10.674  2.4337  1.7676  0.5607
  117OSM    H1T12263   4.509   2.238  10.653 -0.6996  0.5612 -1.0090
  117OSM     NF12264   4.590   2.114  10.448 -0.9908  0.3622 -0.3020
  117OSM    HNF12265   4.639   2.197  10.425  1.9080 -0.7634  1.3464
  117OSM    C2S12266   4.448   2.128  10.479 -0.0785 -0.1682  0.0649
  117OSM    H2S12267   4.405   2.029  10.453  1.7633 -1.1238  0.4329
  117OSM    C3S12268   4.380   2.240  10.403 -0.2844  0.2165  0.2542
  117OSM    H3S12269   4.451   2.325  10.404  0.5370 -0.3608 -2.2438
  117OSM     O312270   4.254   2.286  10.452  0.6013 -0.3013  0.6241
  117OSM    HO312271   4.258   2.252  10.541 -0.1042 -0.7796  0.4749
  117OSM    C4S12272   4.372   2.190  10.257  0.5428  0.0573  0.5650
  117OSM    H4S12273   4.467   2.210  10.205  0.2793  0.5286  0.2565
  117OSM    C5S12274   4.276   2.118  10.199 -0.5331  0.2640  0.6315
  117OSM    H5S12275   4.187   2.101  10.262 -1.0300  2.1421  0.4958
  117OSM    C6S12276   4.282   2.073  10.053  0.2904 -0.0727  0.6054
  117OSM    H6S12277   4.178   2.066  10.014 -0.0327 -2.3335  1.6734
  117OSM    H6T12278   4.302   1.964  10.062  1.1661  0.1911  2.1772
  117OSM    C7S12279   4.378   2.140   9.948 -0.0319 -0.9364 -0.7019
  117OSM    H7S12280   4.482   2.140   9.987 -0.9748 -3.1525  2.1787
  117OSM    H7T12281   4.359   2.249   9.945  1.6235 -0.6414 -1.9496
  117OSM    C8S12282   4.392   2.063   9.818  0.7912  0.1837  0.2416
  117OSM    H8S12283   4.442   1.967   9.839 -3.1783 -1.4337  3.8550
  117OSM    H8T12284   4.467   2.110   9.750  0.8040 -0.1428  0.0310
  117OSM    C9S12285   4.271   2.023   9.731 -0.1491 -0.3877  0.1937
  117OSM    H9S12286   4.209   2.116   9.733  0.2704 -0.1031  0.0698
  117OSM    H9T12287   4.222   1.941   9.789  1.9492 -1.6353  0.3039
  117OSM   C10S12288   4.302   1.986   9.588 -0.2263  0.2275 -0.5049
  117OSM   H10S12289   4.397   1.930   9.572  0.8433  1.6969  0.3698
  117OSM   H10T12290   4.316   2.083   9.535  2.0439 -0.1800 -0.7390
  117OSM   C11S12291   4.187   1.911   9.528 -0.8489 -0.3616 -0.0078
  117OSM   H11S12292   4.099   1.977   9.544 -1.2499 -0.4294 -1.7424
  117OSM   H11T12293   4.191   1.808   9.569  0.5197  0.2391  1.4788
  117OSM   C12S12294   4.225   1.890   9.381  0.2579  0.2832  0.1582
  117OSM   H12S12295   4.155   1.814   9.341 -0.4834  0.8037  0.4484
  117OSM   H12T12296   4.328   1.852   9.364  0.3341  1.6030 -3.1707
  117OSM   C13S12297   4.204   2.020   9.309 -0.5051  0.1255 -0.0674
  117OSM   H13S12298   4.284   2.096   9.320 -1.4948  1.1200  0.5543
  117OSM   H13T12299   4.108   2.063   9.346 -0.0767 -0.2668  1.5959
  117OSM   C14S12300   4.199   2.003   9.162  0.8004  0.3512 -0.8154
  117OSM   H14S12301   4.104   1.949   9.143  0.2528  0.4637  1.3480
  117OSM   H14T12302   4.273   1.927   9.128  1.9965  2.0103 -2.1095
  117OSM   C15S12303   4.204   2.139   9.079  0.1298  0.4165 -0.0163
  117OSM   H15S12304   4.300   2.187   9.105  0.2797  1.7274 -2.6353
  117OSM   H15T12305   4.120   2.206   9.109 -0.8356 -1.3050  1.3121
  117OSM   C16S12306   4.185   2.106   8.926 -0.4846  0.1977  0.2098
  117OSM   H16S12307   4.082   2.068   8.907 -0.6537  0.9599 -0.4639
  117OSM   H16T12308   4.254   2.020   8.912 -0.8210 -0.5027  2.4009
  117OSM   C17S12309   4.221   2.227   8.837  0.7697 -0.1789  0.0383
  117OSM   H17S12310   4.322   2.265   8.863  0.6778  0.0938 -0.0018
  117OSM   H17T12311   4.145   2.306   8.855  0.2915 -0.6283  0.0088
  117OSM   C18S12312   4.226   2.198   8.686 -0.0143  0.3254  0.6626
  117OSM   H18S12313   4.298   2.265   8.634 -4.0455  2.9250 -2.1735
  117OSM   H18T12314   4.125   2.202   8.640  0.2425 -0.5201 -0.0191
  117OSM   H18U12315   4.269   2.096   8.674 -0.4456  0.1760  0.3908
  117OSM    C1F12316   4.674   2.009  10.475  0.3285 -0.7678 -0.3423
  117OSM     OF12317   4.628   1.904  10.514  0.3074  0.1643  0.2629
  117OSM    C2F12318   4.821   2.016  10.445 -0.0429  0.4444  0.2528
  117OSM    H2F12319   4.875   1.981  10.535 -0.6558 -2.7390 -0.5019
  117OSM    H2G12320   4.837   2.123  10.421  0.5662  0.2309 -0.3230
  117OSM    C3F12321   4.846   1.925  10.316 -0.1840  0.1805 -0.2447
  117OSM    H3F12322   4.814   1.821  10.338  0.3506  0.3585  1.5755
  117OSM    H3G12323   4.957   1.920  10.316 -0.0862  0.8117  2.1946
  117OSM    C4F12324   4.788   1.994  10.192 -0.1187  0.0322 -0.2538
  117OSM    H4F12325   4.800   2.105  10.199  3.2738 -0.2613  0.6049
  117OSM    H4G12326   4.681   1.970  10.207 -0.2718 -0.7994 -2.3369
  117OSM    C5F12327   4.853   1.929  10.067 -0.1642  0.2944  1.0177
  117OSM    H5F12328   4.828   1.820  10.063  2.8227 -0.5293  1.8927
  117OSM    H5G12329   4.961   1.922  10.093 -0.4612 -0.0624  2.2431
  117OSM    C6F12330   4.820   2.000   9.935 -0.2343 -0.4295 -0.8346
  117OSM    H6F12331   4.881   2.092   9.939 -0.6599 -0.1947  0.6841
  117OSM    H6G12332   4.711   2.025   9.938 -0.5613 -1.8521 -0.1182
  117OSM    C7F12333   4.862   1.925   9.803 -0.2416 -0.0391  0.7628
  117OSM    H7F12334   4.808   1.828   9.801  0.1937 -0.2750 -0.1043
  117OSM    H7G12335   4.970   1.899   9.808  0.3412  1.1433 -2.7066
  117OSM    C8F12336   4.861   2.002   9.667 -0.0719 -0.2224 -0.3618
  117OSM    H8F12337   4.923   1.949   9.592  0.0844  1.2551 -1.3140
  117OSM    H8G12338   4.901   2.105   9.679 -1.7412  0.7066 -2.1817
  117OSM    C9F12339   4.725   2.027   9.609 -0.0963  0.5205 -0.3708
  117OSM    H9F12340   4.657   2.040   9.694  0.0824  0.6841 -0.2510
  117OSM   C10F12341   4.689   2.058   9.483 -0.9838  0.9314 -0.2118
  117OSM   H10F12342   4.583   2.062   9.451 -0.9196  1.2210 -0.3959
  117OSM   C11F12343   4.772   2.061   9.355  0.1214  0.4215 -1.0005
  117OSM   H11F12344   4.771   1.966   9.297  1.1885  0.6647 -1.4445
  117OSM   H11G12345   4.879   2.062   9.387 -0.5044  0.0460  1.2035
  117OSM   C12F12346   4.749   2.176   9.266  0.0922  0.1857 -0.4802
  117OSM   H12F12347   4.758   2.277   9.310 -2.5874 -0.3544  1.5003
  117OSM   H12G12348   4.640   2.179   9.245 -0.4084  0.6412  1.9546
  117OSM   C13F12349   4.832   2.169   9.136 -0.2891 -0.0042  0.2578
  117OSM   H13F12350   4.938   2.186   9.163 -0.5384  0.6538  0.8204
  117OSM   H13G12351   4.810   2.258   9.074 -0.9479 -0.0375  0.4374
  117OSM   C14F12352   4.806   2.041   9.054 -0.0540 -0.2470  0.0280
  117OSM   H14F12353   4.697   2.024   9.067  0.1638 -1.4272  0.3904
  117OSM   H14G12354   4.872   1.957   9.086 -1.9954 -1.4885  0.9234
  117OSM   C15F12355   4.846   2.060   8.908  0.5733  0.6588 -0.1347
  117OSM   H15F12356   4.949   2.103   8.905  0.7113  0.2957 -2.3156
  117OSM   H15G12357   4.774   2.124   8.852 -1.8981 -2.9193 -1.3399
  117OSM   C16F12358   4.846   1.930   8.823  0.5818  0.3676  0.7949
  117OSM   H16F12359   4.899   1.844   8.869  1.5787  0.1417 -0.6949
  117OSM   H16G12360   4.892   1.957   8.725 -0.1941  0.2865  0.3994
  117OSM   C17F12361   4.705   1.864   8.786 -0.3612  0.7853  0.1592
  117OSM   H17F12362   4.649   1.951   8.746 -1.1496  0.5552  0.7324
  117OSM   H17G12363   4.653   1.842   8.882 -0.3062  4.2358  1.1000
  117OSM   C18F12364   4.708   1.755   8.681 -0.4797 -0.0330  0.3170
  117OSM   H18F12365   4.743   1.657   8.721  0.3752  0.6210  1.2278
  117OSM   H18G12366   4.768   1.789   8.595 -1.2458 -0.9636 -0.6186
  117OSM   H18H12367   4.607   1.738   8.638 -0.6386  1.6651 -0.0425
  118OSM      N12368   4.949   3.070  11.156 -0.8865  0.2558  0.2706
  118OSM    C1512369   4.805   3.051  11.183  0.4414 -0.2943  0.1033
  118OSM   H15A12370   4.754   3.146  11.193  1.0277  0.5793 -3.5669
  118OSM   H15B12371   4.789   3.003  11.278 -1.8622 -1.7587 -0.9325
  118OSM   H15C12372   4.750   2.987  11.116 -1.4351  0.5521  0.7557
  118OSM    C1412373   5.005   3.169  11.246 -1.0038 -0.4304 -0.9583
  118OSM   H14A12374   4.971   3.144  11.345  0.6681 -0.9771 -0.4781
  118OSM   H14B12375   4.990   3.275  11.232 -0.7157 -0.3451 -0.6403
  118OSM   H14C12376   5.111   3.147  11.245 -1.2378 -1.6483 -1.7441
  118OSM    C1312377   5.017   2.938  11.188  0.2973  0.9539  0.5513
  118OSM   H13A12378   5.015   2.922  11.295  0.7388 -2.1268  0.1888
  118OSM   H13B12379   5.123   2.945  11.169  0.4845 -0.8461  0.8041
  118OSM   H13C12380   4.986   2.852  11.131  0.8770  0.4439  1.0030
  118OSM    C1212381   4.982   3.113  11.013  0.0307 -0.4013  0.3127
  118OSM   H12A12382   4.961   3.030  10.948  1.9803 -0.2664 -0.5677
  118OSM   H12B12383   5.088   3.132  11.003 -0.0659  0.4772  0.8282
  118OSM    C1112384   4.908   3.235  10.952 -0.0403 -0.0647  0.4296
  118OSM   H11A12385   4.812   3.259  11.002  0.6390  1.6780  1.0125
  118OSM   H11B12386   4.883   3.214  10.846 -1.6660  2.1564  0.2856
  118OSM      P12387   5.115   3.358  10.850 -0.3357  0.2690 -0.1141
  118OSM    O1312388   5.158   3.495  10.831  0.1263  0.3074 -1.1353
  118OSM    O1412389   5.221   3.258  10.878 -0.2635  0.0643  0.1377
  118OSM    O1112390   5.031   3.316  10.726 -0.5743  0.4859  0.3600
  118OSM    O1212391   5.003   3.345  10.966  0.5234  0.8356  0.1424
  118OSM    C1S12392   5.059   3.350  10.595 -0.0591 -0.6076 -0.2630
  118OSM    H1S12393   5.115   3.270  10.542  3.5475 -0.8397  3.3999
  118OSM    H1T12394   5.126   3.438  10.583  0.7894 -1.0455  1.0775
  118OSM     NF12395   4.957   3.420  10.377 -0.3541 -0.2214  1.2819
  118OSM    HNF12396   4.946   3.513  10.343 -1.5829 -0.2575  1.5210
  118OSM    C2S12397   4.926   3.370  10.510 -0.3998 -0.4532 -0.5953
  118OSM    H2S12398   4.877   3.273  10.486 -1.7414 -0.3698  1.5962
  118OSM    C3S12399   4.818   3.458  10.581 -1.3443  0.3365 -0.3997
  118OSM    H3S12400   4.863   3.560  10.587  0.5586 -0.4966  0.0418
  118OSM     O312401   4.795   3.426  10.720  0.7314 -0.4100 -0.6690
  118OSM    HO312402   4.881   3.384  10.734  1.0896  0.5647  0.1815
  118OSM    C4S12403   4.682   3.464  10.508 -0.7255  0.3228 -0.7762
  118OSM    H4S12404   4.681   3.539  10.428 -1.4899 -0.6524 -1.7039
  118OSM    C5S12405   4.574   3.394  10.540 -0.3712 -0.0591  0.7333
  118OSM    H5S12406   4.580   3.330  10.630 -1.2035  1.3484  1.8379
  118OSM    C6S12407   4.447   3.385  10.471  0.9346  0.3521  0.5706
  118OSM    H6S12408   4.373   3.434  10.539  0.0214  2.1447 -1.5766
  118OSM    H6T12409   4.427   3.275  10.469 -0.4421  0.4855 -3.6649
  118OSM    C7S12410   4.430   3.449  10.333 -0.1971  0.3518 -0.2723
  118OSM    H7S12411   4.468   3.553  10.340  2.1031 -0.4348 -0.0770
  118OSM    H7T12412   4.324   3.441  10.299  0.2814 -1.9351 -1.4177
  118OSM    C8S12413   4.512   3.368  10.224  0.5093  0.2027  0.2645
  118OSM    H8S12414   4.499   3.258  10.231  2.0506 -0.0972 -0.9962
  118OSM    H8T12415   4.621   3.385  10.238  1.1637 -1.2742 -2.4074
  118OSM    C9S12416   4.472   3.418  10.087  0.3654  0.2184 -0.3085
  118OSM    H9S12417   4.477   3.529  10.091  3.0107  0.3268 -3.0916
  118OSM    H9T12418   4.368   3.381  10.077  1.0123 -1.8376  0.2650
  118OSM   C10S12419   4.557   3.357   9.974  0.0639  0.1501 -0.3423
  118OSM   H10S12420   4.530   3.249   9.977 -0.8503  0.2812 -2.3836
  118OSM   H10T12421   4.662   3.379  10.002 -0.1349 -1.1333  1.6232
  118OSM   C11S12422   4.527   3.425   9.835 -0.2323  0.1290  0.1207
  118OSM   H11S12423   4.555   3.533   9.832 -1.8181  0.5515 -1.5329
  118OSM   H11T12424   4.417   3.423   9.815 -0.4983  0.1793  1.5149
  118OSM   C12S12425   4.595   3.355   9.716  0.7915  0.7150 -0.1672
  118OSM   H12S12426   4.551   3.254   9.709  0.2592  0.7111  2.3083
  118OSM   H12T12427   4.700   3.325   9.734 -0.2131 -2.4189  1.2248
  118OSM   C13S12428   4.585   3.428   9.580  0.4661  0.2351  0.0938
  118OSM   H13S12429   4.615   3.534   9.597  0.5463  0.4343 -1.1662
  118OSM   H13T12430   4.485   3.432   9.531 -0.6237  3.0326  2.2606
  118OSM   C14S12431   4.678   3.376   9.469 -0.5446  0.0098  0.4035
  118OSM   H14S12432   4.678   3.266   9.481  0.4241  0.1247  1.7117
  118OSM   H14T12433   4.777   3.424   9.486 -0.7657  1.0353 -0.9998
  118OSM   C15S12434   4.628   3.408   9.328 -0.2675 -0.5019 -0.6122
  118OSM   H15S12435   4.631   3.518   9.314 -0.5036 -0.9194 -5.8876
  118OSM   H15T12436   4.520   3.380   9.322 -0.8992  1.4164  0.7649
  118OSM   C16S12437   4.713   3.335   9.225  0.7828 -0.6913  0.2749
  118OSM   H16S12438   4.727   3.227   9.244  1.2840 -0.5866  0.5245
  118OSM   H16T12439   4.819   3.367   9.232  0.3893  0.5769  0.7592
  118OSM   C17S12440   4.673   3.379   9.082 -0.3385  0.1452 -0.4474
  118OSM   H17S12441   4.566   3.370   9.053 -0.6753  1.8469  0.1186
  118OSM   H17T12442   4.736   3.317   9.015  1.2760  0.8844  0.3363
  118OSM   C18S12443   4.734   3.518   9.064  0.4077 -0.1204  0.4052
  118OSM   H18S12444   4.725   3.542   8.956 -1.0346 -3.4219 -0.3361
  118OSM   H18T12445   4.840   3.524   9.097 -0.4996  0.4719  3.4941
  118OSM   H18U12446   4.675   3.595   9.118  0.5820 -2.1343  3.7316
  118OSM    C1F12447   5.012   3.335  10.285 -0.2255  0.2677  0.2689
  118OSM     OF12448   5.049   3.223  10.321 -0.2122  0.9158 -0.1988
  118OSM    C2F12449   5.020   3.379  10.143 -0.4249 -0.7822 -0.2105
  118OSM    H2F12450   5.072   3.477  10.148  1.2234 -1.6719  3.4680
  118OSM    H2G12451   4.919   3.392  10.098  0.1128  0.7788 -1.0522
  118OSM    C3F12452   5.103   3.289  10.051  0.1408  0.3780 -0.2582
  118OSM    H3F12453   5.058   3.188  10.057  1.4059 -0.3808 -2.4939
  118OSM    H3G12454   5.200   3.275  10.103 -0.0658  1.3948  0.4290
  118OSM    C4F12455   5.125   3.341   9.912 -0.2010 -0.0612  0.5204
  118OSM    H4F12456   5.231   3.309   9.895  0.5108  0.6347  3.1735
  118OSM    H4G12457   5.120   3.449   9.890 -0.5168 -0.6106 -2.5387
  118OSM    C5F12458   5.028   3.284   9.810  0.5103  0.0143  0.8006
  118OSM    H5F12459   4.924   3.323   9.808  0.2938 -0.5620 -0.2167
  118OSM    H5G12460   5.019   3.173   9.822 -3.0010 -0.5787 -4.0959
  118OSM    C6F12461   5.085   3.306   9.670  0.7644  0.2117  0.6323
  118OSM    H6F12462   5.196   3.299   9.668  0.8460  1.4687 -0.6061
  118OSM    H6G12463   5.063   3.411   9.644 -3.2211 -0.9002 -1.4120
  118OSM    C7F12464   5.031   3.214   9.558 -0.6046  0.5250  0.3537
  118OSM    H7F12465   4.924   3.196   9.582 -0.8443  1.9490  0.4421
  118OSM    H7G12466   5.082   3.115   9.567 -1.0664  0.3338  0.8771
  118OSM    C8F12467   5.041   3.263   9.416  0.3379 -0.3091  0.5020
  118OSM    H8F12468   5.012   3.370   9.401  0.0749 -0.7120 -2.4489
  118OSM    H8G12469   4.961   3.220   9.352  0.1610  2.1179 -1.0668
  118OSM    C9F12470   5.170   3.234   9.345 -0.2136  0.2477 -0.2483
  118OSM    H9F12471   5.239   3.166   9.396 -0.2843  1.0140  0.8988
  118OSM   C10F12472   5.207   3.275   9.225 -0.2918  0.7329 -0.2697
  118OSM   H10F12473   5.306   3.251   9.185  0.7498 -0.8806  2.9045
  118OSM   C11F12474   5.129   3.364   9.133  0.2895 -0.1575  0.5990
  118OSM   H11F12475   5.110   3.462   9.181 -0.9819  0.2652 -0.6968
  118OSM   H11G12476   5.026   3.322   9.131  0.6228 -1.0443  1.1633
  118OSM   C12F12477   5.170   3.380   8.986  0.0306 -0.4791  0.7297
  118OSM   H12F12478   5.209   3.281   8.953 -0.2193 -1.1050  2.2027
  118OSM   H12G12479   5.250   3.456   8.985 -1.4770  1.1835  0.6690
  118OSM   C13F12480   5.056   3.440   8.902  0.4809 -0.4818 -0.2219
  118OSM   H13F12481   5.045   3.547   8.930  1.9835  0.9942 -4.5489
  118OSM   H13G12482   4.963   3.380   8.913  1.0491 -0.9823  2.8514
  118OSM   C14F12483   5.100   3.457   8.755  0.0480  0.1696 -0.6333
  118OSM   H14F12484   5.168   3.371   8.736 -0.2100 -0.0489 -0.5606
  118OSM   H14G12485   5.159   3.551   8.746  0.9963 -0.3346  0.0608
  118OSM   C15F12486   4.991   3.457   8.654 -0.6770 -0.0457 -0.0634
  118OSM   H15F12487   4.932   3.364   8.667 -1.4699  0.5762  0.8872
  118OSM   H15G12488   5.037   3.457   8.553 -0.3002  1.2087  0.0882
  118OSM   C16F12489   4.904   3.592   8.653 -0.6353 -0.2689  0.1526
  118OSM   H16F12490   4.956   3.680   8.608 -1.1254 -1.2459 -2.5052
  118OSM   H16G12491   4.877   3.608   8.759 -0.5926 -0.2487  0.1606
  118OSM   C17F12492   4.763   3.590   8.590  0.3675 -0.2756  0.6167
  118OSM   H17F12493   4.762   3.561   8.483 -2.9618 -0.2556  0.5342
  118OSM   H17G12494   4.718   3.691   8.599  1.1671  0.1592 -0.1531
  118OSM   C18F12495   4.678   3.488   8.660 -0.3669 -0.6316 -0.3058
  118OSM   H18F12496   4.674   3.492   8.771  0.2433  1.1404 -0.3178
  118OSM   H18G12497   4.712   3.386   8.630 -0.4814 -1.4845  2.2287
  118OSM   H18H12498   4.573   3.494   8.626 -0.3842  1.3735  0.0067
  119OSM      N12499   6.594   2.151  10.932 -0.6235 -0.2440  0.0733
  119OSM    C1512500   6.452   2.199  10.949  0.4303  0.1155  0.4174
  119OSM   H15A12501   6.443   2.305  10.937  3.4357  0.5969  1.3982
  119OSM   H15B12502   6.425   2.163  11.047 -0.0161  0.2010  0.3240
  119OSM   H15C12503   6.392   2.155  10.871  0.5142  2.4920 -1.0759
  119OSM    C1412504   6.648   2.235  10.820 -0.2499 -0.2908  0.8570
  119OSM   H14A12505   6.649   2.340  10.844 -1.5109 -0.4263  1.5916
  119OSM   H14B12506   6.591   2.225  10.729 -1.4342 -0.6480  1.6196
  119OSM   H14C12507   6.748   2.205  10.793 -0.0570  0.5784  0.5915
  119OSM    C1312508   6.667   2.181  11.055  0.0878 -0.4282 -0.1665
  119OSM   H13A12509   6.765   2.136  11.054 -0.3015 -1.2880 -0.0253
  119OSM   H13B12510   6.612   2.144  11.141  2.4559 -1.4676  1.0149
  119OSM   H13C12511   6.683   2.287  11.072 -2.6668 -0.1173  0.9290
  119OSM    C1212512   6.618   1.999  10.896  0.2244  0.1760  0.0415
  119OSM   H12A12513   6.600   1.943  10.987  0.8886  0.9967  0.7053
  119OSM   H12B12514   6.722   1.975  10.882 -0.4188 -2.6699 -0.4298
  119OSM    C1112515   6.546   1.943  10.777 -0.4194  0.1267  0.0945
  119OSM   H11A12516   6.585   1.849  10.732 -1.8281  0.3587 -1.7240
  119OSM   H11B12517   6.550   2.019  10.696  0.1461  1.6715  1.5073
  119OSM      P12518   6.362   1.805  10.894 -0.0588 -0.0955  0.2653
  119OSM    O1312519   6.478   1.754  10.973  0.1948  0.2193  0.0206
  119OSM    O1412520   6.226   1.826  10.952  0.0996  0.0364 -0.2428
  119OSM    O1112521   6.348   1.713  10.767  0.4378 -0.1551 -0.0784
  119OSM    O1212522   6.404   1.934  10.811 -0.2694  0.4851 -0.1475
  119OSM    C1S12523   6.252   1.752  10.671 -0.2214 -0.3653 -0.0045
  119OSM    H1S12524   6.267   1.856  10.638 -1.5603  0.6211  2.2681
  119OSM    H1T12525   6.147   1.731  10.703  0.0734 -0.8998  0.6496
  119OSM     NF12526   6.169   1.735  10.432 -0.7003 -0.5853  0.1199
  119OSM    HNF12527   6.087   1.687  10.403 -1.6486  2.4712 -2.8232
  119OSM    C2S12528   6.262   1.676  10.538  0.3102  1.0035  0.4790
  119OSM    H2S12529   6.364   1.705  10.504  0.3733 -0.2449 -0.4328
  119OSM    C3S12530   6.256   1.523  10.548  0.0257  0.2954  0.1832
  119OSM    H3S12531   6.152   1.502  10.582  0.2144 -1.0884 -0.0613
  119OSM     O312532   6.351   1.474  10.637  0.4897  0.7542  0.1002
  119OSM    HO312533   6.385   1.554  10.678 -0.2269  1.3346 -0.4076
  119OSM    C4S12534   6.278   1.463  10.413  0.0866  0.1132 -0.0663
  119OSM    H4S12535   6.378   1.465  10.368  0.5265 -0.9381  0.8179
  119OSM    C5S12536   6.182   1.389  10.355  0.0936  0.6088  0.4390
  119OSM    H5S12537   6.090   1.370  10.412 -1.5052  0.6231 -2.0100
  119OSM    C6S12538   6.193   1.322  10.218 -0.0499 -0.5342  0.4654
  119OSM    H6S12539   6.173   1.212  10.219  0.5836 -0.6535  0.4788
  119OSM    H6T12540   6.299   1.337  10.189 -0.2672 -0.9764 -0.5870
  119OSM    C7S12541   6.103   1.390  10.118  0.0528 -0.1277  0.5226
  119OSM    H7S12542   6.124   1.499  10.118  2.1799 -0.5093  0.2484
  119OSM    H7T12543   5.997   1.378  10.151  0.8356 -2.1882  2.4661
  119OSM    C8S12544   6.111   1.336   9.979  0.4900  0.1507  0.2837
  119OSM    H8S12545   6.212   1.296   9.957  1.1782  1.4724  0.9182
  119OSM    H8T12546   6.089   1.409   9.899 -2.5482 -2.3696 -1.4152
  119OSM    C9S12547   5.997   1.232   9.947  0.0091 -0.1557  0.3528
  119OSM    H9S12548   5.898   1.282   9.941 -0.0995 -0.5156 -1.2411
  119OSM    H9T12549   5.990   1.165  10.036 -1.9387  0.1748  0.5066
  119OSM   C10S12550   6.016   1.145   9.824  0.4875 -0.3506  0.2624
  119OSM   H10S12551   5.932   1.074   9.810  1.0808 -0.8020 -1.2079
  119OSM   H10T12552   6.106   1.080   9.822 -0.2025 -1.3796  1.4686
  119OSM   C11S12553   6.018   1.227   9.692 -0.2235  0.9573  0.2652
  119OSM   H11S12554   6.118   1.273   9.677  0.5938 -0.4860  1.0473
  119OSM   H11T12555   5.937   1.303   9.690  1.5778  3.0004  0.6753
  119OSM   C12S12556   6.004   1.135   9.567 -0.7623  0.1357  0.0424
  119OSM   H12S12557   5.899   1.102   9.554 -0.4447 -0.3995 -1.2784
  119OSM   H12T12558   6.065   1.043   9.578 -0.6901 -0.0591 -1.7446
  119OSM   C13S12559   6.049   1.199   9.434 -0.8664 -0.1252 -0.0020
  119OSM   H13S12560   6.072   1.124   9.354  1.3030  0.9540 -0.4793
  119OSM   H13T12561   6.143   1.253   9.456 -0.2385 -0.5401 -1.4903
  119OSM   C14S12562   5.947   1.300   9.379 -0.2617 -0.8983  1.1105
  119OSM   H14S12563   5.934   1.377   9.458  1.4876  0.2296  0.3498
  119OSM   H14T12564   5.845   1.257   9.368 -0.4719 -0.1849  0.2668
  119OSM   C15S12565   6.006   1.385   9.264  0.1594 -0.1689  0.1544
  119OSM   H15S12566   6.104   1.418   9.305  0.6925  1.0001 -1.9317
  119OSM   H15T12567   5.943   1.477   9.254 -0.2451 -0.6930 -2.8070
  119OSM   C16S12568   6.026   1.317   9.131  0.2751 -0.2067 -0.5771
  119OSM   H16S12569   6.039   1.209   9.150  0.4346  0.0967  1.2014
  119OSM   H16T12570   6.118   1.356   9.083  0.7547 -1.9125 -1.0861
  119OSM   C17S12571   5.907   1.339   9.032  0.5037  0.3955  0.6199
  119OSM   H17S12572   5.903   1.448   9.011  0.1961  0.0957 -1.0335
  119OSM   H17T12573   5.824   1.298   9.094 -0.1140 -1.5357 -1.3515
  119OSM   C18S12574   5.908   1.242   8.901 -0.2481  0.2282 -0.0908
  119OSM   H18S12575   5.931   1.136   8.927 -3.8050 -1.0702 -1.5706
  119OSM   H18T12576   5.986   1.279   8.832  1.2028 -1.3382  0.6252
  119OSM   H18U12577   5.802   1.235   8.866 -0.0194  0.5910 -0.8736
  119OSM    C1F12578   6.181   1.858  10.389 -0.1940 -0.0945 -0.6490
  119OSM     OF12579   6.258   1.949  10.435  0.2654  0.2611 -0.3244
  119OSM    C2F12580   6.090   1.894  10.278  0.6529  0.1910 -0.2028
  119OSM    H2F12581   6.000   1.945  10.317 -0.1271 -1.6862  0.5819
  119OSM    H2G12582   6.041   1.808  10.228  2.4051  0.9959 -3.6458
  119OSM    C3F12583   6.161   1.979  10.172 -0.1071 -0.1401 -0.2057
  119OSM    H3F12584   6.218   2.058  10.226 -1.3957 -0.0065  1.0141
  119OSM    H3G12585   6.082   2.027  10.110 -0.2931  0.2672  0.3346
  119OSM    C4F12586   6.259   1.915  10.077 -1.0933  0.6224 -0.5968
  119OSM    H4F12587   6.214   1.828  10.024  0.7207 -0.2735 -0.7449
  119OSM    H4G12588   6.348   1.880  10.133 -0.7485  1.7778 -0.4077
  119OSM    C5F12589   6.293   2.001   9.958  0.2183  0.2511  0.6806
  119OSM    H5F12590   6.347   2.086  10.005 -1.2835  0.9790  1.1451
  119OSM    H5G12591   6.206   2.030   9.895  0.8260 -1.4544 -1.0450
  119OSM    C6F12592   6.391   1.936   9.848  0.1194 -0.0149  0.1938
  119OSM    H6F12593   6.461   1.871   9.906 -0.3296 -1.8417 -1.2294
  119OSM    H6G12594   6.448   2.006   9.784  1.7767 -3.0988 -1.9814
  119OSM    C7F12595   6.319   1.846   9.746  0.4369  0.7096 -0.4359
  119OSM    H7F12596   6.268   1.773   9.813  0.6587  0.5646 -0.4240
  119OSM    H7G12597   6.390   1.789   9.682 -2.0709 -0.8672 -2.0015
  119OSM    C8F12598   6.208   1.907   9.655 -0.1005 -0.1701 -0.2140
  119OSM    H8F12599   6.120   1.931   9.719  1.0980 -0.5999  1.7002
  119OSM    H8G12600   6.185   1.818   9.592 -2.0849 -1.4248  2.1069
  119OSM    C9F12601   6.253   2.036   9.588  0.8305 -0.1601  0.0298
  119OSM    H9F12602   6.310   2.106   9.651 -0.9961 -0.3505  2.0393
  119OSM   C10F12603   6.231   2.077   9.463 -0.3087 -0.1415  0.4977
  119OSM   H10F12604   6.288   2.159   9.417  0.2704 -1.1717 -0.6885
  119OSM   C11F12605   6.144   2.010   9.358 -0.0163 -0.2851 -0.1043
  119OSM   H11F12606   6.052   2.065   9.329  1.0208  0.5201 -2.1166
  119OSM   H11G12607   6.106   1.914   9.397 -2.0486  0.4162 -0.2386
  119OSM   C12F12608   6.218   1.986   9.227  0.7322  0.1477  0.6733
  119OSM   H12F12609   6.151   1.936   9.153  0.7669  2.2099 -0.8399
  119OSM   H12G12610   6.305   1.918   9.241 -0.2075 -1.6112 -1.3356
  119OSM   C13F12611   6.268   2.113   9.153 -0.0054  0.5530  0.3037
  119OSM   H13F12612   6.310   2.085   9.053  0.5709  0.7729  0.4835
  119OSM   H13G12613   6.354   2.144   9.216  0.9295  0.3031 -0.8136
  119OSM   C14F12614   6.180   2.241   9.150  0.5230  0.3293  0.1315
  119OSM   H14F12615   6.223   2.326   9.093 -0.2747  1.7001  1.4846
  119OSM   H14G12616   6.157   2.275   9.254 -3.5902  3.7963 -1.6025
  119OSM   C15F12617   6.038   2.218   9.080 -0.5190 -0.4573 -0.1078
  119OSM   H15F12618   5.994   2.122   9.114  0.7058 -0.5621  1.2967
  119OSM   H15G12619   6.068   2.214   8.974  4.4147  1.1058  0.9721
  119OSM   C16F12620   5.940   2.322   9.116  0.8095  0.1487  0.4727
  119OSM   H16F12621   5.961   2.421   9.069 -3.5374  0.8543 -0.4487
  119OSM   H16G12622   5.935   2.336   9.226 -1.7021 -0.5499  0.5101
  119OSM   C17F12623   5.800   2.292   9.071  0.8680  0.6599  0.1685
  119OSM   H17F12624   5.765   2.210   9.137  0.3003  0.5349 -0.2803
  119OSM   H17G12625   5.788   2.264   8.964 -0.4440 -3.2549  1.1934
  119OSM   C18F12626   5.693   2.402   9.084 -0.3053 -0.2570  0.2640
  119OSM   H18F12627   5.593   2.354   9.070  0.4385 -1.4312 -1.3844
  119OSM   H18G12628   5.699   2.478   9.003 -0.5706 -0.3300  0.1754
  119OSM   H18H12629   5.694   2.453   9.183 -2.0660 -0.3745  0.3788
  120OSM      N12630   4.684   0.141  10.689  0.2873 -0.7499 -0.4711
  120OSM    C1512631   4.633   0.248  10.599  0.6250  0.0594  0.1367
  120OSM   H15A12632   4.530   0.230  10.572  0.0518  1.9924  0.8746
  120OSM   H15B12633   4.693   0.253  10.510  0.6062 -2.2750 -0.0774
  120OSM   H15C12634   4.641   0.342  10.651 -0.4336 -0.5781  1.5358
  120OSM    C1412635   4.591   0.110  10.799  0.1140 -0.5163  0.5455
  120OSM   H14A12636   4.578   0.182  10.878  1.2094 -1.0463  1.2319
  120OSM   H14B12637   4.636   0.025  10.849 -0.2955 -0.2601  1.3646
  120OSM   H14C12638   4.491   0.086  10.764  0.3637 -0.0536 -0.5013
  120OSM    C1312639   4.690   0.019  10.605  0.3704  0.0288 -0.5253
  120OSM   H13A12640   4.772   0.028  10.535 -0.1999  2.4670 -0.9633
  120OSM   H13B12641   4.597   0.002  10.554 -0.6285 -0.3745  1.3483
  120OSM   H13C12642   4.703  -0.065  10.672 -0.8077 -0.5861 -1.0441
  120OSM    C1212643   4.817   0.186  10.736 -0.6130  0.2601 -0.0110
  120OSM   H12A12644   4.871   0.105  10.782 -0.4412 -0.1220 -0.8574
  120OSM   H12B12645   4.789   0.252  10.817 -0.9927 -0.6983  0.6603
  120OSM    C1112646   4.912   0.260  10.640  0.0802  0.1962  0.0246
  120OSM   H11A12647   4.999   0.292  10.702  1.6259 -3.4435 -0.0131
  120OSM   H11B12648   4.866   0.354  10.601 -0.4228  0.0038  0.1463
  120OSM      P12649   5.061   0.062  10.556 -0.3956  0.8257 -0.3394
  120OSM    O1312650   5.171   0.113  10.647  0.9164  1.0645  0.7109
  120OSM    O1412651   4.984  -0.056  10.602 -0.0465 -0.1664 -0.5521
  120OSM    O1112652   5.114   0.035  10.415  0.0781  0.2173 -0.2556
  120OSM    O1212653   4.964   0.174  10.539  0.7174 -0.0288 -0.4148
  120OSM    C1S12654   5.024  -0.039  10.330  0.1028  0.2976  0.0429
  120OSM    H1S12655   4.925   0.009  10.316 -0.0517 -0.2949 -1.0376
  120OSM    H1T12656   5.005  -0.143  10.365  0.7137 -0.1107 -0.7975
  120OSM     NF12657   4.988  -0.077  10.077 -0.5583 -0.2331  0.2348
  120OSM    HNF12658   4.982  -0.175  10.059  2.0066 -1.1034  3.1837
  120OSM    C2S12659   5.081  -0.037  10.182  0.5485 -0.7076 -0.2096
  120OSM    H2S12660   5.114   0.067  10.160 -0.3446 -0.2942  0.3883
  120OSM    C3S12661   5.220  -0.115  10.171 -0.1297  0.8476  0.3701
  120OSM    H3S12662   5.206  -0.225  10.177 -0.5168  0.8561 -0.2469
  120OSM     O312663   5.307  -0.096  10.275 -0.2233 -0.4216 -0.4507
  120OSM    HO312664   5.254  -0.036  10.327 -1.9318 -1.2204 -1.2098
  120OSM    C4S12665   5.275  -0.090  10.036 -0.0925  0.9958 -0.0545
  120OSM    H4S12666   5.244  -0.168   9.966 -0.8561  1.1464  0.1069
  120OSM    C5S12667   5.357   0.008   9.995 -0.2446 -0.1706  0.0940
  120OSM    H5S12668   5.393   0.080  10.070 -0.1036  0.0864 -0.2199
  120OSM    C6S12669   5.418   0.027   9.862 -0.1393  0.1501  0.0881
  120OSM    H6S12670   5.489   0.113   9.865 -1.0106  0.8842  0.1030
  120OSM    H6T12671   5.343   0.054   9.785  0.7036 -0.9625 -1.1670
  120OSM    C7S12672   5.504  -0.090   9.809  0.4932  0.0603  0.4687
  120OSM    H7S12673   5.446  -0.184   9.798  0.9835 -0.0159 -2.2932
  120OSM    H7T12674   5.582  -0.101   9.888  0.7171  0.1348  0.2601
  120OSM    C8S12675   5.572  -0.062   9.677  1.0341 -0.3591 -0.1106
  120OSM    H8S12676   5.645  -0.145   9.675  0.1976 -1.1600  1.3082
  120OSM    H8T12677   5.612   0.042   9.678 -0.9056  0.4838  2.3971
  120OSM    C9S12678   5.490  -0.078   9.547  0.3861  0.0236  0.5378
  120OSM    H9S12679   5.415   0.004   9.542  1.7508  1.2453 -3.8982
  120OSM    H9T12680   5.435  -0.174   9.559  1.2735 -0.4658  0.7466
  120OSM   C10S12681   5.577  -0.076   9.420 -0.5001 -0.3693 -0.4003
  120OSM   H10S12682   5.645  -0.163   9.435 -1.0175 -0.3616  2.6089
  120OSM   H10T12683   5.639   0.015   9.430 -0.1515 -0.4325 -1.7560
  120OSM   C11S12684   5.501  -0.067   9.286  0.4107  0.3140  0.5610
  120OSM   H11S12685   5.431   0.020   9.283 -3.3291 -2.4830 -2.0449
  120OSM   H11T12686   5.418  -0.140   9.290  0.2666  0.4060 -0.3997
  120OSM   C12S12687   5.588  -0.070   9.159 -0.1607  0.3993  0.8921
  120OSM   H12S12688   5.638  -0.169   9.147  0.2985  0.8755 -1.6783
  120OSM   H12T12689   5.673  -0.000   9.167  0.8073 -0.0679 -2.9992
  120OSM   C13S12690   5.517  -0.042   9.022 -0.4337  0.3323 -0.2496
  120OSM   H13S12691   5.482   0.063   9.024 -0.2974  0.4397 -1.8544
  120OSM   H13T12692   5.429  -0.109   9.014  0.0142 -0.2050 -0.8880
  120OSM   C14S12693   5.607  -0.055   8.902  0.0039 -0.7110  0.5961
  120OSM   H14S12694   5.546  -0.084   8.813  0.7470 -0.6250  0.0523
  120OSM   H14T12695   5.684  -0.134   8.914  0.2758 -1.3916 -3.8440
  120OSM   C15S12696   5.675   0.074   8.868  0.3627 -0.1740  0.8275
  120OSM   H15S12697   5.761   0.097   8.934  0.1795  1.3565  0.5725
  120OSM   H15T12698   5.602   0.158   8.873 -1.6212 -1.8847  2.4818
  120OSM   C16S12699   5.747   0.088   8.728  0.5522 -0.5939  0.3901
  120OSM   H16S12700   5.675   0.063   8.648 -0.0832  1.0180  0.4260
  120OSM   H16T12701   5.825   0.009   8.719  0.1684 -0.8366 -0.9766
  120OSM   C17S12702   5.814   0.224   8.706 -0.1222 -0.2217 -0.4982
  120OSM   H17S12703   5.896   0.222   8.780 -1.4070 -2.9468  0.9906
  120OSM   H17T12704   5.747   0.301   8.751 -0.1493 -0.5776  0.0693
  120OSM   C18S12705   5.870   0.246   8.568  0.2374  0.2364  0.1465
  120OSM   H18S12706   5.785   0.262   8.498 -1.1394 -1.2771  1.4043
  120OSM   H18T12707   5.931   0.159   8.537  0.0327  0.3544 -0.6015
  120OSM   H18U12708   5.936   0.336   8.568  2.1264 -1.1005  0.4505
  120OSM    C1F12709   4.881  -0.003  10.048 -0.0519 -0.1671  0.1269
  120OSM     OF12710   4.865   0.108  10.097  0.0191 -0.2216 -0.1161
  120OSM    C2F12711   4.783  -0.069   9.960  0.7532  0.0823 -0.2546
  120OSM    H2F12712   4.686  -0.087  10.013 -1.1065  2.8052 -2.4563
  120OSM    H2G12713   4.838  -0.160   9.927  2.2608  0.3389  1.3812
  120OSM    C3F12714   4.742   0.012   9.835  0.1118 -0.2061  0.3130
  120OSM    H3F12715   4.694   0.107   9.868  0.6681 -0.1125  0.8645
  120OSM    H3G12716   4.668  -0.039   9.768 -1.5060  0.8105  1.2454
  120OSM    C4F12717   4.851   0.063   9.734 -0.1482 -0.5272 -0.7970
  120OSM    H4F12718   4.930  -0.015   9.727  0.0647 -0.8238  3.0849
  120OSM    H4G12719   4.905   0.151   9.775 -1.9723 -0.8096  2.4834
  120OSM    C5F12720   4.776   0.096   9.604  0.2741 -0.5599  0.2525
  120OSM    H5F12721   4.713   0.008   9.578 -0.2162 -0.4031  0.8889
  120OSM    H5G12722   4.860   0.115   9.534 -1.1144  5.2835 -0.3359
  120OSM    C6F12723   4.700   0.229   9.608  0.3185  0.0648  0.3327
  120OSM    H6F12724   4.786   0.296   9.633  2.1476 -1.3098 -1.8740
  120OSM    H6G12725   4.638   0.238   9.699  2.3751  0.6067  1.7648
  120OSM    C7F12726   4.626   0.261   9.478  0.2007  0.1296 -0.4442
  120OSM    H7F12727   4.566   0.354   9.491 -2.0206 -1.1029 -1.2372
  120OSM    H7G12728   4.546   0.189   9.449 -1.4169  0.9128  1.7960
  120OSM    C8F12729   4.718   0.279   9.349  0.2512 -0.3916 -0.0839
  120OSM    H8F12730   4.758   0.177   9.327  1.0730 -0.1108  0.0560
  120OSM    H8G12731   4.803   0.340   9.387 -0.4604  1.6252 -1.5326
  120OSM    C9F12732   4.640   0.338   9.234  0.4523  0.1209  0.4520
  120OSM    H9F12733   4.598   0.436   9.261 -0.2935  0.2749 -1.1571
  120OSM   C10F12734   4.598   0.282   9.121  0.2235 -0.1943  1.0015
  120OSM   H10F12735   4.550   0.346   9.046  1.8295  0.0426  0.1200
  120OSM   C11F12736   4.631   0.144   9.071 -0.1486  0.2832 -0.3441
  120OSM   H11F12737   4.540   0.097   9.028  1.0511 -1.2339 -1.3306
  120OSM   H11G12738   4.672   0.079   9.151  1.4505  0.2359 -1.1619
  120OSM   C12F12739   4.736   0.128   8.959  0.0508 -0.2985 -0.3214
  120OSM   H12F12740   4.734   0.021   8.929 -2.1772 -0.6285  0.7558
  120OSM   H12G12741   4.839   0.139   8.997 -0.3854  2.7748  0.2266
  120OSM   C13F12742   4.722   0.225   8.835  0.2285  0.0708 -0.3283
  120OSM   H13F12743   4.812   0.231   8.770  1.3117  1.9371  1.2219
  120OSM   H13G12744   4.716   0.326   8.881  1.4824 -0.4935  1.1544
  120OSM   C14F12745   4.609   0.183   8.746  0.1229 -0.8683  0.1563
  120OSM   H14F12746   4.526   0.144   8.808 -0.7585  0.2393 -0.2939
  120OSM   H14G12747   4.657   0.100   8.690 -0.2053 -1.4121  0.6757
  120OSM   C15F12748   4.555   0.298   8.658  0.3469  0.0045  0.3588
  120OSM   H15F12749   4.641   0.324   8.591  1.2531 -0.7905  1.1733
  120OSM   H15G12750   4.526   0.387   8.717  1.1064  1.7481 -1.7813
  120OSM   C16F12751   4.428   0.254   8.581 -0.1929 -0.6246 -0.2653
  120OSM   H16F12752   4.389   0.342   8.525 -1.0454 -0.5588  0.4213
  120OSM   H16G12753   4.347   0.222   8.650 -0.3977 -0.6525 -0.5192
  120OSM   C17F12754   4.438   0.136   8.485 -0.1293 -0.5663 -0.4433
  120OSM   H17F12755   4.425   0.046   8.549 -1.1280  1.0129  1.7075
  120OSM   H17G12756   4.544   0.139   8.450  0.7047 -3.3375  1.4490
  120OSM   C18F12757   4.341   0.148   8.377 -0.7320  0.6050  0.1484
  120OSM   H18F12758   4.241   0.184   8.411 -2.4691 -0.6040 -3.1388
  120OSM   H18G12759   4.334   0.055   8.316  2.2843  1.6424 -2.0100
  120OSM   H18H12760   4.363   0.224   8.300 -1.1338 -0.3407 -0.9366
  121OSM      N12761   3.579   2.615  10.582 -0.0282  0.1777  0.6829
  121OSM    C1512762   3.448   2.648  10.657  0.5499 -0.5027 -0.0782
  121OSM   H15A12763   3.410   2.748  10.638  1.4048  0.3433  2.3003
  121OSM   H15B12764   3.455   2.655  10.764  0.3705  0.4073 -0.1125
  121OSM   H15C12765   3.369   2.579  10.632  0.5339 -1.5953  2.7025
  121OSM    C1412766   3.608   2.471  10.623 -0.6703  0.1134 -0.4635
  121OSM   H14A12767   3.521   2.415  10.594  0.2441 -0.6598 -1.8084
  121OSM   H14B12768   3.617   2.464  10.731 -1.7109  1.9766 -0.2161
  121OSM   H14C12769   3.692   2.427  10.571 -1.5514  1.0108 -2.7801
  121OSM    C1312770   3.543   2.605  10.440  0.3282  0.1240 -0.2034
  121OSM   H13A12771   3.614   2.531  10.404 -1.5361 -2.0056  0.2902
  121OSM   H13B12772   3.554   2.702  10.394  2.9298 -0.5019 -1.0919
  121OSM   H13C12773   3.445   2.565  10.421  0.8789  0.1257 -3.8372
  121OSM    C1212774   3.693   2.712  10.603 -0.2517 -0.4012 -0.4648
  121OSM   H12A12775   3.671   2.795  10.539 -0.4551 -0.6284 -0.6899
  121OSM   H12B12776   3.780   2.659  10.567 -0.2973 -1.3277  0.7194
  121OSM    C1112777   3.727   2.752  10.754 -0.9611  0.0119  0.4586
  121OSM   H11A12778   3.633   2.802  10.787  0.6361  1.5606  3.0400
  121OSM   H11B12779   3.809   2.827  10.755  0.0798 -1.1117  1.1217
  121OSM      P12780   3.898   2.620  10.893 -0.4443  0.0286 -0.2675
  121OSM    O1312781   3.920   2.722  10.998 -0.8298 -0.0020  0.8828
  121OSM    O1412782   3.917   2.479  10.933 -0.0568 -0.1175  0.8816
  121OSM    O1112783   3.997   2.644  10.770 -0.5519 -0.8478 -0.0362
  121OSM    O1212784   3.753   2.637  10.835 -0.0193  0.0474 -0.7052
  121OSM    C1S12785   4.006   2.540  10.669  0.3056 -0.6300  0.6288
  121OSM    H1S12786   3.902   2.512  10.644  0.4283  0.0885 -0.8209
  121OSM    H1T12787   4.055   2.446  10.703  1.2890 -0.3224  0.1091
  121OSM     NF12788   4.049   2.480  10.433 -0.6895  0.3050 -0.3301
  121OSM    HNF12789   4.124   2.417  10.416 -1.0386  0.0722 -1.0835
  121OSM    C2S12790   4.065   2.586  10.532  0.3467 -0.4832 -0.6996
  121OSM    H2S12791   4.012   2.680  10.503 -0.3005 -0.5352  0.2552
  121OSM    C3S12792   4.209   2.623  10.560  0.7437 -0.2655 -0.2501
  121OSM    H3S12793   4.265   2.530  10.582  2.3588  0.3177 -1.6733
  121OSM     O312794   4.228   2.702  10.676  0.3460  0.3377 -0.3104
  121OSM    HO312795   4.146   2.693  10.726 -0.0578 -0.2046 -1.0432
  121OSM    C4S12796   4.277   2.697  10.442  0.1310  0.1656 -0.4762
  121OSM    H4S12797   4.264   2.807  10.440  0.1755  0.1813  0.0780
  121OSM    C5S12798   4.356   2.643  10.343  0.4546 -0.4118 -0.1514
  121OSM    H5S12799   4.370   2.535  10.357  0.1670 -0.2470  1.6502
  121OSM    C6S12800   4.418   2.711  10.221 -0.7960 -0.5373  0.9483
  121OSM    H6S12801   4.528   2.715  10.231 -0.8110 -2.8415  3.1637
  121OSM    H6T12802   4.395   2.820  10.218 -0.0422 -0.3578 -2.2606
  121OSM    C7S12803   4.375   2.626  10.098 -0.2413 -0.6704 -0.0079
  121OSM    H7S12804   4.265   2.628  10.088 -0.2754 -0.6089  0.3897
  121OSM    H7T12805   4.410   2.521  10.114  0.8571 -0.3623 -0.2729
  121OSM    C8S12806   4.433   2.684   9.972 -0.5924  0.5941  0.3404
  121OSM    H8S12807   4.544   2.683   9.970 -0.5814 -1.3545 -1.3489
  121OSM    H8T12808   4.409   2.792   9.956  1.5218  1.0443 -0.0746
  121OSM    C9S12809   4.379   2.613   9.846 -0.0827 -0.1494 -0.7737
  121OSM    H9S12810   4.269   2.630   9.835  0.1506  1.2189 -1.0989
  121OSM    H9T12811   4.407   2.506   9.853  1.4700  0.3085  0.5864
  121OSM   C10S12812   4.446   2.670   9.718 -0.6658  0.3325  0.5761
  121OSM   H10S12813   4.556   2.664   9.733 -0.3368 -0.1749 -1.6973
  121OSM   H10T12814   4.424   2.777   9.696 -0.8546  0.0002 -0.9791
  121OSM   C11S12815   4.405   2.598   9.593 -0.1088  0.9404 -0.6594
  121OSM   H11S12816   4.444   2.645   9.500  0.2843 -1.2314 -1.6527
  121OSM   H11T12817   4.294   2.595   9.587 -0.1720  2.0253 -0.2864
  121OSM   C12S12818   4.455   2.454   9.567  0.8323  0.4594 -0.0911
  121OSM   H12S12819   4.428   2.403   9.662  1.6209  2.4230  1.2522
  121OSM   H12T12820   4.564   2.448   9.549  0.9597  0.0601  0.7625
  121OSM   C13S12821   4.391   2.379   9.450  0.1164  0.4961  0.1254
  121OSM   H13S12822   4.288   2.348   9.478 -0.0655  2.6627  2.1733
  121OSM   H13T12823   4.455   2.290   9.438  0.4223  0.7880 -0.4815
  121OSM   C14S12824   4.388   2.456   9.317  1.0314  0.4673  0.2273
  121OSM   H14S12825   4.305   2.531   9.321 -2.6516 -3.2301  0.0235
  121OSM   H14T12826   4.348   2.383   9.243  0.5569  0.5866  0.3635
  121OSM   C15S12827   4.517   2.516   9.265  0.1153 -0.5360 -0.2807
  121OSM   H15S12828   4.590   2.436   9.240  0.6328 -0.1567 -0.0118
  121OSM   H15T12829   4.578   2.569   9.341  1.1345  1.1558 -2.1882
  121OSM   C16S12830   4.495   2.604   9.145  0.2973  0.7937 -0.9739
  121OSM   H16S12831   4.591   2.657   9.127 -0.8429  2.5996 -2.0584
  121OSM   H16T12832   4.423   2.686   9.167 -2.5048 -1.0937 -2.5370
  121OSM   C17S12833   4.454   2.520   9.019  0.3935 -0.4759 -0.4846
  121OSM   H17S12834   4.344   2.506   9.012  0.1194 -0.0224  2.0705
  121OSM   H17T12835   4.505   2.422   9.016 -0.3121 -0.8428 -0.6736
  121OSM   C18S12836   4.496   2.589   8.891  0.2847  0.7672 -0.1119
  121OSM   H18S12837   4.588   2.650   8.901 -1.8407  3.7838  2.9573
  121OSM   H18T12838   4.417   2.663   8.864  3.0499  3.7674 -0.5507
  121OSM   H18U12839   4.493   2.516   8.806 -0.8879 -1.0293  1.4012
  121OSM    C1F12840   3.935   2.460  10.376  0.5695  0.2782 -0.3353
  121OSM     OF12841   3.839   2.538  10.398 -0.7869  0.2656  0.3542
  121OSM    C2F12842   3.921   2.332  10.299  1.0407 -0.1063 -0.3080
  121OSM    H2F12843   3.922   2.251  10.375  0.1426  0.5360  0.4071
  121OSM    H2G12844   4.014   2.320  10.239  1.7858  3.3940 -0.1172
  121OSM    C3F12845   3.805   2.327  10.194  0.1156 -0.2180 -0.6036
  121OSM    H3F12846   3.839   2.397  10.115 -0.4405  0.6203 -0.1154
  121OSM    H3G12847   3.704   2.351  10.234 -0.2822  1.0388 -2.2609
  121OSM    C4F12848   3.788   2.185  10.135  0.0232  0.4059  0.1916
  121OSM    H4F12849   3.760   2.108  10.210 -0.1265  1.4069  1.1996
  121OSM    H4G12850   3.875   2.153  10.074  0.2362  2.1653 -0.5070
  121OSM    C5F12851   3.677   2.192  10.035 -0.7515 -0.3209 -0.3109
  121OSM    H5F12852   3.588   2.245  10.076 -0.2463 -0.5138  1.0790
  121OSM    H5G12853   3.636   2.090  10.024 -1.2911  0.0560 -2.0597
  121OSM    C6F12854   3.731   2.249   9.903  0.3994 -0.0142 -0.2409
  121OSM    H6F12855   3.778   2.349   9.911 -0.7118  0.5279 -0.2174
  121OSM    H6G12856   3.634   2.275   9.855  2.0489  4.5854 -1.7112
  121OSM    C7F12857   3.799   2.148   9.807 -0.3648 -0.3031 -0.6645
  121OSM    H7F12858   3.744   2.052   9.801  1.1968 -1.3934  1.3370
  121OSM    H7G12859   3.906   2.141   9.835 -0.3025 -1.1956 -1.0878
  121OSM    C8F12860   3.800   2.215   9.674 -0.1769  0.0527  0.3722
  121OSM    H8F12861   3.868   2.302   9.682 -1.6725  1.5159 -1.8283
  121OSM    H8G12862   3.701   2.259   9.651  0.8288  1.9664 -0.5213
  121OSM    C9F12863   3.849   2.109   9.583  0.0458 -0.2792  0.3474
  121OSM    H9F12864   3.900   2.023   9.631 -2.1698 -3.6991 -2.8370
  121OSM   C10F12865   3.808   2.107   9.455  0.8390  0.9547 -0.3369
  121OSM   H10F12866   3.822   2.013   9.399 -0.7085  0.4760  0.0418
  121OSM   C11F12867   3.722   2.213   9.390 -0.1251 -0.3283 -0.4341
  121OSM   H11F12868   3.744   2.308   9.443 -1.5188 -0.0274 -0.3380
  121OSM   H11G12869   3.619   2.178   9.415 -0.6766  1.2980 -0.3239
  121OSM   C12F12870   3.732   2.224   9.237  0.2644 -0.7049  0.4175
  121OSM   H12F12871   3.674   2.310   9.198 -0.4992 -2.5282 -2.8107
  121OSM   H12G12872   3.681   2.139   9.187 -1.3324 -0.9464  2.3300
  121OSM   C13F12873   3.873   2.234   9.179 -0.3600 -0.2005 -0.2415
  121OSM   H13F12874   3.929   2.138   9.189  1.7103  0.9976  0.2050
  121OSM   H13G12875   3.926   2.301   9.249 -0.8113 -1.3936  1.2813
  121OSM   C14F12876   3.880   2.302   9.037  0.4320 -0.1198  0.4137
  121OSM   H14F12877   3.989   2.317   9.018  0.8620 -2.8112  0.4227
  121OSM   H14G12878   3.833   2.403   9.032  0.9934  0.1075 -0.6810
  121OSM   C15F12879   3.817   2.215   8.922  0.1300  0.0772 -0.2298
  121OSM   H15F12880   3.713   2.194   8.954 -0.5524 -2.1943 -3.4494
  121OSM   H15G12881   3.873   2.120   8.909 -2.2617 -1.7725  1.9328
  121OSM   C16F12882   3.809   2.285   8.784  0.1841  0.3746 -0.0907
  121OSM   H16F12883   3.819   2.210   8.703  1.7238  0.0593  0.3504
  121OSM   H16G12884   3.895   2.355   8.777  0.9243 -0.1811  2.4413
  121OSM   C17F12885   3.683   2.359   8.749 -0.2036  0.2611  0.6528
  121OSM   H17F12886   3.673   2.431   8.833 -1.0431 -0.1929  0.9519
  121OSM   H17G12887   3.592   2.295   8.747 -0.3271  0.2905 -3.5385
  121OSM   C18F12888   3.682   2.434   8.614 -0.0063  0.1520 -0.3768
  121OSM   H18F12889   3.759   2.514   8.610  0.3929 -0.1031  1.3580
  121OSM   H18G12890   3.580   2.475   8.595 -0.5796 -1.6730 -1.5256
  121OSM   H18H12891   3.702   2.364   8.530 -0.3103 -2.1894  1.3918
  122OSM      N12892   4.616   1.096  10.891 -0.0153 -1.0415  0.0180
  122OSM    C1512893   4.709   1.018  10.971 -0.5830  0.4023  0.3873
  122OSM   H15A12894   4.680   1.022  11.075  1.8105  1.2974  1.0959
  122OSM   H15B12895   4.809   1.056  10.962 -0.3208 -0.0577  1.3027
  122OSM   H15C12896   4.716   0.916  10.935 -1.4387  1.1969 -2.2900
  122OSM    C1412897   4.474   1.040  10.927 -0.5050 -0.6046  0.0137
  122OSM   H14A12898   4.461   1.041  11.034 -1.4774  0.5099 -0.0870
  122OSM   H14B12899   4.466   0.939  10.889 -2.0522  0.2742 -2.2640
  122OSM   H14C12900   4.402   1.105  10.879  0.8668  0.3133 -0.8674
  122OSM    C1312901   4.623   1.244  10.933 -0.2400  0.2855 -1.2670
  122OSM   H13A12902   4.612   1.251  11.040  0.2286  1.7914 -1.3064
  122OSM   H13B12903   4.546   1.310  10.896  0.5899  1.4557 -0.9439
  122OSM   H13C12904   4.718   1.283  10.901  0.1673  0.4478  0.1075
  122OSM    C1212905   4.641   1.079  10.739  1.1492  0.8517 -0.7144
  122OSM   H12A12906   4.747   1.091  10.723  1.4745 -0.0576  0.5897
  122OSM   H12B12907   4.605   1.169  10.691  0.1519  0.3165 -1.0017
  122OSM    C1112908   4.596   0.952  10.667 -0.3441  0.1862  0.5328
  122OSM   H11A12909   4.644   0.961  10.567  0.3722  2.5846  1.0146
  122OSM   H11B12910   4.487   0.959  10.646 -0.3918  0.5477  0.8730
  122OSM      P12911   4.760   0.750  10.711 -0.0874  0.1536  0.2404
  122OSM    O1312912   4.879   0.827  10.749 -0.3901  0.4261  0.4181
  122OSM    O1412913   4.749   0.613  10.767  0.2655  0.3216 -0.7532
  122OSM    O1112914   4.761   0.738  10.555 -0.3434  0.2274 -0.1733
  122OSM    O1212915   4.631   0.832  10.737  0.9261  0.7451  0.6255
  122OSM    C1S12916   4.699   0.634  10.483  0.1655  0.3547 -0.2368
  122OSM    H1S12917   4.589   0.645  10.492  0.2432 -0.1668  1.6518
  122OSM    H1T12918   4.735   0.536  10.520  0.4232  1.0861  1.5263
  122OSM     NF12919   4.677   0.525  10.268  0.3143  0.1335  0.1561
  122OSM    HNF12920   4.725   0.438  10.262 -0.0629  0.0018 -1.9953
  122OSM    C2S12921   4.739   0.641  10.331 -0.2938 -0.4626 -0.6002
  122OSM    H2S12922   4.696   0.735  10.291  1.1492  0.2060 -0.6676
  122OSM    C3S12923   4.895   0.660  10.306  0.4953 -0.3130 -0.9963
  122OSM    H3S12924   4.957   0.583  10.356 -1.4167 -0.3921  1.4530
  122OSM     O312925   4.921   0.789  10.357 -0.0602 -0.5187  0.0118
  122OSM    HO312926   4.857   0.799  10.427  0.1824 -0.1884  0.1871
  122OSM    C4S12927   4.919   0.658  10.163 -0.9390  1.5042  0.8775
  122OSM    H4S12928   4.877   0.745  10.110 -1.6657  0.0256 -1.0983
  122OSM    C5S12929   4.972   0.558  10.094  0.6547  0.1469 -0.0011
  122OSM    H5S12930   5.014   0.470  10.144  1.9328  1.7392  1.9148
  122OSM    C6S12931   5.002   0.559   9.944 -0.3389  0.0539  0.3623
  122OSM    H6S12932   5.029   0.458   9.905  1.5819  0.9589 -0.8031
  122OSM    H6T12933   5.093   0.619   9.923 -0.4645  0.2180  0.2893
  122OSM    C7S12934   4.898   0.630   9.846  0.5387  0.6113  0.1560
  122OSM    H7S12935   4.901   0.737   9.878 -1.4806  0.6267  0.4620
  122OSM    H7T12936   4.793   0.594   9.845  0.4683  0.8037 -1.1502
  122OSM    C8S12937   4.950   0.610   9.702 -0.1676  0.3220 -0.8705
  122OSM    H8S12938   4.959   0.500   9.689 -1.5013 -0.4870  3.3080
  122OSM    H8T12939   5.050   0.654   9.687  0.0962  0.3202  0.6571
  122OSM    C9S12940   4.852   0.672   9.606  0.4688  0.5392 -0.2903
  122OSM    H9S12941   4.867   0.781   9.594 -2.0788  0.9268 -0.4153
  122OSM    H9T12942   4.744   0.654   9.623  0.5406  1.5864  1.5364
  122OSM   C10S12943   4.891   0.620   9.468 -0.3982  0.2986 -0.7571
  122OSM   H10S12944   4.876   0.510   9.471 -2.8340  0.5467 -1.7422
  122OSM   H10T12945   4.998   0.640   9.447 -0.2770  0.5788  0.0840
  122OSM   C11S12946   4.812   0.675   9.350  0.2523 -0.1228 -0.6639
  122OSM   H11S12947   4.808   0.784   9.366 -1.7574  0.0676 -2.0557
  122OSM   H11T12948   4.707   0.640   9.364 -0.2914  1.2800 -1.0922
  122OSM   C12S12949   4.870   0.632   9.217  0.3841  0.0707  0.6497
  122OSM   H12S12950   4.871   0.521   9.214  0.1833  0.0770  0.2929
  122OSM   H12T12951   4.979   0.654   9.213  0.5411 -0.8315 -1.1022
  122OSM   C13S12952   4.798   0.685   9.088 -0.6362  0.1513  0.0336
  122OSM   H13S12953   4.803   0.796   9.079  0.2963  0.1417  0.2923
  122OSM   H13T12954   4.696   0.641   9.084  0.2132 -1.8512 -2.2072
  122OSM   C14S12955   4.875   0.623   8.967  0.1553 -0.1362 -0.2339
  122OSM   H14S12956   4.878   0.512   8.976  0.9102 -0.3335 -2.4744
  122OSM   H14T12957   4.980   0.659   8.959 -0.5906  2.3333  0.0889
  122OSM   C15S12958   4.815   0.655   8.829  0.4535 -0.3761  0.2241
  122OSM   H15S12959   4.852   0.757   8.804  2.4885 -1.2246 -0.4321
  122OSM   H15T12960   4.705   0.655   8.846  1.0006  1.6944  5.6026
  122OSM   C16S12961   4.870   0.555   8.723 -0.3641 -0.2509 -0.0338
  122OSM   H16S12962   4.802   0.467   8.719  0.2868 -0.7359 -0.8982
  122OSM   H16T12963   4.967   0.508   8.751  0.0427  1.5336  1.7132
  122OSM   C17S12964   4.888   0.617   8.581 -0.1530 -0.0883  0.0500
  122OSM   H17S12965   4.971   0.686   8.556 -0.2664 -0.6208 -2.0055
  122OSM   H17T12966   4.800   0.676   8.546  2.2240  1.9977 -2.9136
  122OSM   C18S12967   4.900   0.498   8.487  0.2438 -0.4153  0.9140
  122OSM   H18S12968   4.922   0.525   8.382 -2.3041 -1.3726  0.0658
  122OSM   H18T12969   4.798   0.455   8.481 -0.0580  0.4472 -0.6458
  122OSM   H18U12970   4.970   0.421   8.528  0.1262 -0.8974  0.2317
  122OSM    C1F12971   4.544   0.519  10.243 -0.6284  0.4370 -0.2117
  122OSM     OF12972   4.462   0.604  10.275 -0.0069 -0.2922  0.0186
  122OSM    C2F12973   4.498   0.389  10.184  0.1407 -0.7775  0.3283
  122OSM    H2F12974   4.387   0.397  10.183  0.0866 -1.3797  0.8490
  122OSM    H2G12975   4.522   0.305  10.254  2.9994 -0.1777  0.1779
  122OSM    C3F12976   4.557   0.369  10.050  0.0961  0.4368 -0.2583
  122OSM    H3F12977   4.525   0.269  10.014 -0.4644  0.5323 -0.0394
  122OSM    H3G12978   4.668   0.359  10.055  0.0911  1.0143  2.0781
  122OSM    C4F12979   4.509   0.462   9.930 -0.0139 -0.4826 -0.6131
  122OSM    H4F12980   4.553   0.430   9.833  3.5743  0.0924  0.6677
  122OSM    H4G12981   4.528   0.568   9.959  1.3820 -0.7590 -0.4489
  122OSM    C5F12982   4.357   0.459   9.908  0.1154  0.2142  0.4818
  122OSM    H5F12983   4.298   0.474  10.001 -1.1369 -1.7479  0.0509
  122OSM    H5G12984   4.327   0.356   9.878 -2.3081  0.7823  0.7781
  122OSM    C6F12985   4.309   0.557   9.814  0.3683  0.3243  0.2636
  122OSM    H6F12986   4.322   0.660   9.855  1.5540  0.0528  0.6080
  122OSM    H6G12987   4.199   0.540   9.818  0.2856  0.9762  1.9813
  122OSM    C7F12988   4.368   0.536   9.676  0.1487 -0.2471  0.0636
  122OSM    H7F12989   4.376   0.431   9.642 -0.9646 -0.0975 -0.7333
  122OSM    H7G12990   4.471   0.573   9.691  0.6279 -1.5392  0.0955
  122OSM    C8F12991   4.298   0.626   9.568 -0.0871 -0.0702  0.6379
  122OSM    H8F12992   4.245   0.713   9.613 -0.4737 -0.1640  0.3667
  122OSM    H8G12993   4.212   0.569   9.527  0.8317 -2.5267  1.9058
  122OSM    C9F12994   4.394   0.660   9.458  0.0871 -0.1318  0.1519
  122OSM    H9F12995   4.478   0.725   9.487  0.8308  0.2939 -2.6472
  122OSM   C10F12996   4.390   0.626   9.329  1.1013 -0.0049  0.0689
  122OSM   H10F12997   4.478   0.651   9.268  1.4617 -2.5592 -0.5732
  122OSM   C11F12998   4.288   0.537   9.261  0.2864 -0.3221 -0.5038
  122OSM   H11F12999   4.200   0.509   9.323  0.7293 -2.5770 -0.7847
  122OSM   H11G13000   4.336   0.437   9.252  1.2484 -0.1468  2.0387
  122OSM   C12F13001   4.246   0.585   9.122 -0.4031  0.1628 -0.6432
  122OSM   H12F13002   4.199   0.681   9.152  0.9856 -0.1287  2.8433
  122OSM   H12G13003   4.167   0.514   9.089 -0.3636  0.6576 -1.8628
  122OSM   C13F13004   4.353   0.615   9.016 -0.2390  0.6385 -0.2029
  122OSM   H13F13005   4.424   0.530   9.008  1.8232  2.2057  0.6473
  122OSM   H13G13006   4.421   0.695   9.053  0.9247 -0.7582  0.7444
  122OSM   C14F13007   4.286   0.646   8.880 -0.4303 -0.1790 -0.7022
  122OSM   H14F13008   4.226   0.739   8.888 -3.4700 -2.1078  0.7145
  122OSM   H14G13009   4.215   0.565   8.852  0.3011 -0.8254 -0.7152
  122OSM   C15F13010   4.397   0.665   8.774  1.0591  0.3638 -0.4615
  122OSM   H15F13011   4.477   0.591   8.796 -0.3822 -0.6432  1.6970
  122OSM   H15G13012   4.430   0.767   8.804 -0.5683  0.7394  0.1756
  122OSM   C16F13013   4.345   0.647   8.635  0.2370 -0.5899  0.4202
  122OSM   H16F13014   4.300   0.545   8.630  0.9550 -0.9428  1.0891
  122OSM   H16G13015   4.428   0.653   8.561 -1.5401  0.4934 -1.6150
  122OSM   C17F13016   4.225   0.735   8.591  0.1570 -0.3985  0.2433
  122OSM   H17F13017   4.270   0.837   8.587 -1.2028  0.2518  0.8431
  122OSM   H17G13018   4.151   0.722   8.673 -0.0575 -1.3699 -0.0907
  122OSM   C18F13019   4.166   0.704   8.453  0.3275 -0.1775 -0.1102
  122OSM   H18F13020   4.101   0.615   8.453 -1.1305  0.8082  1.9768
  122OSM   H18G13021   4.244   0.695   8.374 -1.4689  1.6683 -2.2225
  122OSM   H18H13022   4.092   0.779   8.420 -0.1916 -0.2702  0.8174
  123OSM      N13023   2.728   5.277   5.662 -0.4701 -0.9339  0.0336
  123OSM    C1513024   2.711   5.138   5.700 -0.0444  0.3132  0.1211
  123OSM   H15A13025   2.803   5.081   5.695  0.2432  0.8970 -1.9606
  123OSM   H15B13026   2.637   5.097   5.633 -1.6383 -0.5011  2.2485
  123OSM   H15C13027   2.658   5.131   5.794 -1.6622  1.2488 -0.6832
  123OSM    C1413028   2.765   5.275   5.511 -0.5404  0.2424  1.3158
  123OSM   H14A13029   2.797   5.372   5.475 -1.7496 -0.4584 -1.9082
  123OSM   H14B13030   2.680   5.255   5.449  1.5389 -1.2276 -1.2349
  123OSM   H14C13031   2.852   5.214   5.494  0.5482  2.0732 -0.0562
  123OSM    C1313032   2.596   5.353   5.675  0.1433 -0.2092  0.2242
  123OSM   H13A13033   2.569   5.359   5.779 -0.5315  0.1441  0.0293
  123OSM   H13B13034   2.518   5.295   5.628 -0.3871 -0.0304  0.8730
  123OSM   H13C13035   2.610   5.451   5.633 -1.1504 -0.3247 -0.5093
  123OSM    C1213036   2.837   5.348   5.742 -0.0097  0.6899  0.4774
  123OSM   H12A13037   2.841   5.450   5.706 -0.0659  0.2359 -0.8631
  123OSM   H12B13038   2.935   5.307   5.723  0.1623  1.6598 -0.9448
  123OSM    C1113039   2.819   5.362   5.897  0.0904 -0.5594  0.0328
  123OSM   H11A13040   2.922   5.382   5.936  1.3223 -4.6813 -0.6445
  123OSM   H11B13041   2.786   5.259   5.924 -0.9558  0.0374  1.1248
  123OSM      P13042   2.730   5.608   5.946 -0.1133 -0.0910 -0.2648
  123OSM    O1313043   2.801   5.657   5.823  0.7210  0.8141 -0.1368
  123OSM    O1413044   2.604   5.675   5.979  0.0946 -0.6563 -0.0888
  123OSM    O1113045   2.832   5.634   6.070 -0.4513  0.4649 -0.0168
  123OSM    O1213046   2.717   5.452   5.936  0.0708  0.1154 -0.0409
  123OSM    C1S13047   2.834   5.555   6.182  0.0770 -0.2022 -0.4134
  123OSM    H1S13048   2.883   5.457   6.163 -0.9893 -0.5276 -1.6433
  123OSM    H1T13049   2.734   5.532   6.225  0.5845 -0.7551  0.5039
  123OSM     NF13050   2.966   5.534   6.395 -0.3437  0.8583  0.4399
  123OSM    HNF13051   2.912   5.516   6.477 -3.0043  0.6168 -1.2395
  123OSM    C2S13052   2.916   5.628   6.296  0.0756 -0.1630 -0.3748
  123OSM    H2S13053   2.997   5.675   6.237  0.0973  0.4936  0.1596
  123OSM    C3S13054   2.831   5.741   6.359 -0.1358  0.1916 -0.7354
  123OSM    H3S13055   2.749   5.699   6.421 -0.9501 -0.0990 -1.9651
  123OSM     O313056   2.760   5.833   6.267  0.2896  0.9462  0.2401
  123OSM    HO313057   2.763   5.789   6.182  0.5878  2.0059 -0.3236
  123OSM    C4S13058   2.910   5.811   6.467 -0.3420 -0.2132  0.0714
  123OSM    H4S13059   2.919   5.753   6.560 -1.2557  0.0078  0.2999
  123OSM    C5S13060   2.975   5.930   6.459 -0.3886 -0.2718 -0.3486
  123OSM    H5S13061   2.949   5.993   6.373 -0.3601 -1.7447 -1.4705
  123OSM    C6S13062   3.047   5.998   6.580  0.2906  1.0428 -0.0758
  123OSM    H6S13063   3.027   6.108   6.576  1.9076  1.3459 -0.2679
  123OSM    H6T13064   3.154   5.988   6.554  0.2790  2.1674 -0.6126
  123OSM    C7S13065   3.037   5.934   6.719  0.2250 -0.6305  0.2981
  123OSM    H7S13066   3.090   5.837   6.708 -0.6630 -1.0666 -0.2596
  123OSM    H7T13067   2.930   5.912   6.743 -0.7583  2.6609 -0.5294
  123OSM    C8S13068   3.090   6.040   6.811 -0.0039  0.3258 -0.4745
  123OSM    H8S13069   3.025   6.130   6.810 -0.1209  0.2780 -2.7267
  123OSM    H8T13070   3.186   6.075   6.769  0.1795 -0.2339 -0.5218
  123OSM    C9S13071   3.142   5.986   6.939  0.5476 -0.5005  0.1908
  123OSM    H9S13072   3.184   5.886   6.911 -2.8330 -1.5562 -1.7228
  123OSM    H9T13073   3.062   5.970   7.015 -1.1935  0.7187 -1.2886
  123OSM   C10S13074   3.246   6.072   7.021 -0.1698 -0.3787  0.1633
  123OSM   H10S13075   3.202   6.169   7.054 -0.4014  0.1902 -1.7075
  123OSM   H10T13076   3.331   6.100   6.955 -0.4726  1.3261  0.4561
  123OSM   C11S13077   3.284   5.989   7.143  0.2494 -0.1567  0.0402
  123OSM   H11S13078   3.348   5.905   7.109 -1.7153 -2.4820  1.7712
  123OSM   H11T13079   3.189   5.964   7.195  0.6830  1.8360  1.8842
  123OSM   C12S13080   3.377   6.084   7.227 -0.0546 -0.0690  0.2443
  123OSM   H12S13081   3.322   6.177   7.252  1.1236  0.4175  1.1285
  123OSM   H12T13082   3.465   6.115   7.166  0.1249 -1.3139 -0.1615
  123OSM   C13S13083   3.419   6.037   7.367  0.3315 -0.4198 -0.8948
  123OSM   H13S13084   3.450   6.132   7.417  1.2461 -0.6718 -0.9583
  123OSM   H13T13085   3.507   5.969   7.363 -0.1217 -1.2135  1.2902
  123OSM   C14S13086   3.307   5.990   7.458  0.7577  0.0507  0.6544
  123OSM   H14S13087   3.276   5.886   7.434  1.7293 -0.0709 -0.1714
  123OSM   H14T13088   3.212   6.044   7.442  1.3176  0.8584 -0.0422
  123OSM   C15S13089   3.332   5.985   7.604 -0.3792 -0.3261 -0.1525
  123OSM   H15S13090   3.383   6.079   7.633  0.2488 -0.5752 -0.4175
  123OSM   H15T13091   3.395   5.894   7.618  1.3104  0.5314 -1.7289
  123OSM   C16S13092   3.203   5.980   7.682  0.8014 -0.1895 -0.4023
  123OSM   H16S13093   3.143   5.891   7.653  0.5964 -0.6379  1.2354
  123OSM   H16T13094   3.143   6.069   7.655 -0.7702 -1.2724 -0.6797
  123OSM   C17S13095   3.222   5.964   7.833  0.8461 -1.1662  0.9578
  123OSM   H17S13096   3.131   5.993   7.889  1.3629 -0.7339  1.5806
  123OSM   H17T13097   3.305   6.035   7.852 -1.4127  2.1764 -0.7145
  123OSM   C18S13098   3.267   5.827   7.880  0.2586 -0.4012  1.5374
  123OSM   H18S13099   3.280   5.820   7.990  0.1918 -1.6006  1.4755
  123OSM   H18T13100   3.367   5.803   7.839 -0.8637  0.4497 -2.0985
  123OSM   H18U13101   3.197   5.751   7.838 -0.5087  1.0061  0.1118
  123OSM    C1F13102   3.068   5.449   6.375 -0.1124  0.3636 -0.0484
  123OSM     OF13103   3.125   5.452   6.265  0.1257 -0.2889 -0.3262
  123OSM    C2F13104   3.112   5.359   6.487  0.1762 -0.0274  0.2348
  123OSM    H2F13105   3.096   5.254   6.454 -0.4244  0.7066 -1.9647
  123OSM    H2G13106   3.051   5.383   6.577 -2.0974  0.8953 -1.4592
  123OSM    C3F13107   3.264   5.363   6.515  0.7326  0.4378 -0.1281
  123OSM    H3F13108   3.326   5.349   6.423 -1.7515 -1.6925 -1.6285
  123OSM    H3G13109   3.298   5.275   6.573 -2.7298 -1.3911 -0.5976
  123OSM    C4F13110   3.304   5.486   6.589 -0.1290  0.0962  0.2352
  123OSM    H4F13111   3.265   5.572   6.530 -1.3685 -1.3374 -1.1474
  123OSM    H4G13112   3.415   5.490   6.587 -0.0316 -0.8961  2.0210
  123OSM    C5F13113   3.264   5.499   6.736  0.4151  0.0429  0.8187
  123OSM    H5F13114   3.161   5.464   6.759  0.4152 -0.0551  0.6675
  123OSM    H5G13115   3.259   5.607   6.760 -3.6272 -0.3258  2.5765
  123OSM    C6F13116   3.360   5.443   6.834  0.1646  0.5315 -0.5888
  123OSM    H6F13117   3.465   5.478   6.826  0.7543 -0.6479  1.3186
  123OSM    H6G13118   3.372   5.335   6.811  0.3014  0.8174 -1.9620
  123OSM    C7F13119   3.309   5.456   6.981  0.8399  0.0503  0.1775
  123OSM    H7F13120   3.199   5.439   6.990  0.8905 -1.5619 -1.6544
  123OSM    H7G13121   3.313   5.567   6.995 -0.5127  0.0559  0.7571
  123OSM    C8F13122   3.388   5.385   7.088 -0.3408  0.4370  0.4497
  123OSM    H8F13123   3.416   5.281   7.060  2.6525  1.5742 -1.3003
  123OSM    H8G13124   3.326   5.382   7.180 -0.0212  0.3771  0.6662
  123OSM    C9F13125   3.513   5.453   7.123  0.4061  1.1678  0.1020
  123OSM    H9F13126   3.578   5.459   7.034 -2.1684 -2.7211 -2.3587
  123OSM   C10F13127   3.546   5.493   7.245 -0.5440  0.5050  0.4861
  123OSM   H10F13128   3.637   5.550   7.268 -1.0122  2.6945 -2.4212
  123OSM   C11F13129   3.462   5.486   7.365  1.0360 -0.0484 -0.2298
  123OSM   H11F13130   3.406   5.390   7.375  1.1553 -0.4148 -2.6779
  123OSM   H11G13131   3.390   5.567   7.340  2.1316  0.5029 -1.7399
  123OSM   C12F13132   3.542   5.515   7.489  0.0658 -0.0418 -0.7413
  123OSM   H12F13133   3.589   5.615   7.474  0.5148 -0.4011 -1.8348
  123OSM   H12G13134   3.615   5.442   7.530 -1.1306 -0.7702  0.1455
  123OSM   C13F13135   3.446   5.560   7.607  0.1243 -0.1325 -0.0802
  123OSM   H13F13136   3.356   5.617   7.573  0.0133 -0.9877 -1.2929
  123OSM   H13G13137   3.496   5.632   7.675 -0.3131 -1.5609  1.8114
  123OSM   C14F13138   3.407   5.437   7.691 -0.3664 -0.8529 -0.1169
  123OSM   H14F13139   3.358   5.360   7.627  0.7527 -1.3411 -0.3985
  123OSM   H14G13140   3.322   5.469   7.755 -0.2683 -0.0349 -0.3838
  123OSM   C15F13141   3.509   5.383   7.793 -0.5638  0.3234 -0.9080
  123OSM   H15F13142   3.600   5.354   7.737 -0.0947 -0.5234  0.2545
  123OSM   H15G13143   3.477   5.283   7.828  0.3397  0.4818  0.4396
  123OSM   C16F13144   3.533   5.478   7.912 -0.2909  0.9008  0.3882
  123OSM   H16F13145   3.436   5.475   7.967 -1.0055 -0.0885 -0.8782
  123OSM   H16G13146   3.568   5.578   7.880 -1.0434  0.8353 -0.6940
  123OSM   C17F13147   3.641   5.415   7.999  0.3301 -0.4238  0.6286
  123OSM   H17F13148   3.627   5.309   8.029 -1.9369 -0.3710 -0.1151
  123OSM   H17G13149   3.647   5.480   8.089 -0.7838  1.9947 -0.9533
  123OSM   C18F13150   3.790   5.410   7.946  0.6812  0.4090  0.2615
  123OSM   H18F13151   3.852   5.361   8.025  2.0738 -0.3144 -1.2131
  123OSM   H18G13152   3.837   5.509   7.930  1.6160 -0.0260  0.2149
  123OSM   H18H13153   3.802   5.354   7.850  2.7964 -0.0511  0.7244
  124OSM      N13154   6.198   3.952   6.289 -0.0240 -0.2322 -0.4418
  124OSM    C1513155   6.188   3.816   6.222 -0.2664 -0.2368  0.2545
  124OSM   H15A13156   6.272   3.755   6.250 -0.3633 -0.3721  0.2525
  124OSM   H15B13157   6.183   3.835   6.116  2.0491 -0.3959  0.0668
  124OSM   H15C13158   6.097   3.772   6.260  0.8746 -1.6777  1.4372
  124OSM    C1413159   6.328   4.011   6.251  0.4589 -0.6565 -0.1932
  124OSM   H14A13160   6.342   4.010   6.144  0.1718  0.2740 -0.2460
  124OSM   H14B13161   6.407   3.957   6.303 -0.8414 -0.4459  2.1007
  124OSM   H14C13162   6.330   4.116   6.275  0.0260  0.1537 -3.2379
  124OSM    C1313163   6.088   4.029   6.229  0.3472 -0.4947 -0.5538
  124OSM   H13A13164   6.103   4.131   6.260 -0.1579 -0.8217  0.8096
  124OSM   H13B13165   5.989   3.995   6.256  0.3454  0.2690  0.4640
  124OSM   H13C13166   6.107   4.048   6.124  0.0386  2.5811 -0.1511
  124OSM    C1213167   6.192   3.945   6.438 -0.4418  0.1663  0.3203
  124OSM   H12A13168   6.093   3.936   6.479 -0.8506 -1.3482 -0.9396
  124OSM   H12B13169   6.229   4.039   6.478  0.5620 -0.2810  0.4578
  124OSM    C1113170   6.271   3.835   6.509  0.7248  0.1838  0.0623
  124OSM   H11A13171   6.233   3.739   6.468  1.7755  0.3637 -1.4152
  124OSM   H11B13172   6.241   3.854   6.614  2.6477  3.4054  0.1653
  124OSM      P13173   6.500   3.714   6.445 -0.2374  0.4464 -0.4140
  124OSM    O1313174   6.437   3.652   6.328 -0.2328  0.2736  0.1633
  124OSM    O1413175   6.642   3.765   6.433 -0.1814 -0.8026 -0.1525
  124OSM    O1113176   6.494   3.622   6.570 -0.3246  0.0078 -0.4665
  124OSM    O1213177   6.415   3.844   6.486  0.0044  0.3030 -0.7613
  124OSM    C1S13178   6.506   3.678   6.705  0.6975 -0.8697 -0.4379
  124OSM    H1S13179   6.404   3.679   6.749  0.6386  1.1125 -0.5457
  124OSM    H1T13180   6.536   3.784   6.714 -1.9039 -0.1613  0.7475
  124OSM     NF13181   6.595   3.648   6.937  0.3997  0.5711 -0.2665
  124OSM    HNF13182   6.675   3.705   6.953  0.0106  2.6409 -4.5311
  124OSM    C2S13183   6.590   3.589   6.800  0.1270  0.3901 -0.3420
  124OSM    H2S13184   6.532   3.494   6.797 -1.3633  1.2194  0.7007
  124OSM    C3S13185   6.734   3.556   6.739 -0.1696 -0.0088 -0.3654
  124OSM    H3S13186   6.790   3.652   6.735 -1.1092  0.5813  0.1775
  124OSM     O313187   6.729   3.506   6.606  0.4556 -0.0042 -0.3250
  124OSM    HO313188   6.638   3.482   6.591  0.4059  1.3092 -2.3984
  124OSM    C4S13189   6.807   3.470   6.839  0.0281  0.5279 -0.0664
  124OSM    H4S13190   6.881   3.527   6.898 -0.8715 -0.8160  2.5279
  124OSM    C5S13191   6.793   3.333   6.859 -0.5063  0.1519 -0.2911
  124OSM    H5S13192   6.721   3.282   6.794 -0.5452  1.2586 -1.1575
  124OSM    C6S13193   6.868   3.247   6.952 -0.2186  0.4338  1.1162
  124OSM    H6S13194   6.929   3.173   6.896  0.6231  0.5634  1.8379
  124OSM    H6T13195   6.796   3.185   7.009  0.3538 -0.8971  0.4436
  124OSM    C7S13196   6.972   3.310   7.052  0.0699 -0.5943  0.1468
  124OSM    H7S13197   6.926   3.398   7.102  2.1017  0.9561 -0.5290
  124OSM    H7T13198   7.067   3.329   6.997  1.2021  1.0846  2.4819
  124OSM    C8S13199   7.007   3.217   7.170 -0.5719 -0.4829 -0.0615
  124OSM    H8S13200   7.041   3.126   7.115  0.2340  1.0219 -2.1999
  124OSM    H8T13201   6.918   3.188   7.230  0.2193 -0.5160  1.1209
  124OSM    C9S13202   7.120   3.264   7.267  0.3734  0.1086 -0.1708
  124OSM    H9S13203   7.078   3.317   7.355 -0.5682 -1.0616  0.1095
  124OSM    H9T13204   7.177   3.335   7.204 -1.0837 -0.9828 -2.9183
  124OSM   C10S13205   7.212   3.155   7.316 -0.8624  0.6750  0.4875
  124OSM   H10S13206   7.269   3.109   7.232 -0.2695 -0.0473  1.2581
  124OSM   H10T13207   7.155   3.075   7.368  0.3061 -0.8442 -0.4714
  124OSM   C11S13208   7.321   3.200   7.420  0.7947  0.2072  0.1811
  124OSM   H11S13209   7.274   3.284   7.475  1.3572 -0.9786  2.6309
  124OSM   H11T13210   7.408   3.243   7.367 -0.4924  3.1765  0.2979
  124OSM   C12S13211   7.359   3.091   7.526 -0.3945  0.2564 -0.1978
  124OSM   H12S13212   7.431   3.019   7.481 -0.5059 -0.1248  0.2226
  124OSM   H12T13213   7.272   3.029   7.556 -1.3933  1.0897 -1.2748
  124OSM   C13S13214   7.419   3.159   7.646 -0.3759 -0.0595  0.2745
  124OSM   H13S13215   7.346   3.227   7.695  0.2830  0.7176  0.1975
  124OSM   H13T13216   7.507   3.212   7.605  0.5872 -0.9180  1.1830
  124OSM   C14S13217   7.478   3.056   7.749  0.2031 -0.7766 -0.2268
  124OSM   H14S13218   7.550   3.112   7.812 -2.1198  0.1372  1.7744
  124OSM   H14T13219   7.541   2.973   7.710  0.6443 -0.4551 -0.2067
  124OSM   C15S13220   7.370   3.004   7.853 -0.8772 -0.1518  1.1272
  124OSM   H15S13221   7.447   2.949   7.911  0.0301  0.3832  0.4499
  124OSM   H15T13222   7.309   2.930   7.798  0.6081 -0.9359  0.4802
  124OSM   C16S13223   7.284   3.110   7.920 -0.4100  0.0042 -0.0773
  124OSM   H16S13224   7.214   3.151   7.845 -1.6559 -1.2020  0.3876
  124OSM   H16T13225   7.345   3.199   7.948 -0.2531  1.2178 -3.7655
  124OSM   C17S13226   7.194   3.049   8.023  0.2378 -0.2973 -0.0585
  124OSM   H17S13227   7.256   3.014   8.109 -1.0785 -0.8823  0.6748
  124OSM   H17T13228   7.132   2.966   7.984 -0.2923  0.8914 -1.8580
  124OSM   C18S13229   7.091   3.145   8.071  0.2356 -0.7891  0.0468
  124OSM   H18S13230   7.132   3.240   8.112  1.0552 -0.6943 -0.9624
  124OSM   H18T13231   7.034   3.105   8.158 -1.1196 -0.6438 -0.7425
  124OSM   H18U13232   7.016   3.173   7.994  0.1962  0.7090  0.5931
  124OSM    C1F13233   6.486   3.652   7.016 -0.4649  0.2538  0.1120
  124OSM     OF13234   6.384   3.592   6.980 -0.4874  0.1980 -0.1051
  124OSM    C2F13235   6.490   3.746   7.134  0.1167  0.1566 -0.8194
  124OSM    H2F13236   6.501   3.849   7.093 -0.8645  0.5514 -0.1369
  124OSM    H2G13237   6.567   3.712   7.205 -1.9703  0.2826  1.6409
  124OSM    C3F13238   6.350   3.737   7.211 -0.1448 -0.0520 -0.1512
  124OSM    H3F13239   6.308   3.635   7.226 -0.5133  0.1235  0.0131
  124OSM    H3G13240   6.271   3.784   7.149  1.7057  2.3144 -0.8343
  124OSM    C4F13241   6.346   3.821   7.342  0.1042 -0.2526  0.1176
  124OSM    H4F13242   6.368   3.926   7.312 -0.4485 -0.7167 -2.0541
  124OSM    H4G13243   6.427   3.786   7.409 -0.3847  1.5558  1.7496
  124OSM    C5F13244   6.205   3.805   7.402 -0.1253  0.1568  0.4326
  124OSM    H5F13245   6.196   3.699   7.434  0.0436 -0.8531 -2.5849
  124OSM    H5G13246   6.139   3.831   7.316  0.4480  1.8284  0.4689
  124OSM    C6F13247   6.172   3.913   7.513  0.1581 -0.3867  0.1746
  124OSM    H6F13248   6.268   3.918   7.569  0.3554 -0.3301 -0.1654
  124OSM    H6G13249   6.093   3.880   7.584 -0.8070 -0.0380 -0.7124
  124OSM    C7F13250   6.134   4.049   7.462 -0.5997 -0.5054  0.1534
  124OSM    H7F13251   6.033   4.046   7.415 -1.0652  0.3148  1.0780
  124OSM    H7G13252   6.199   4.099   7.388  0.4966 -2.3691 -0.2190
  124OSM    C8F13253   6.110   4.142   7.582  1.4937  0.2898  0.3564
  124OSM    H8F13254   6.036   4.090   7.647 -0.7203  1.6706 -0.9571
  124OSM    H8G13255   6.051   4.227   7.542  1.3325 -1.4442 -3.4614
  124OSM    C9F13256   6.230   4.170   7.658 -0.3171 -0.2392 -0.1958
  124OSM    H9F13257   6.307   4.216   7.594 -2.7716  2.2069 -1.5955
  124OSM   C10F13258   6.258   4.148   7.783 -0.4760 -0.3530  0.4665
  124OSM   H10F13259   6.360   4.178   7.810 -1.4178  1.9441  1.7631
  124OSM   C11F13260   6.171   4.093   7.894  0.9372 -0.1041 -0.5256
  124OSM   H11F13261   6.229   4.061   7.983 -0.6996 -1.8006  0.0101
  124OSM   H11G13262   6.106   4.005   7.869 -1.2896  1.4210 -0.4377
  124OSM   C12F13263   6.083   4.203   7.941  0.2493 -0.1276  0.0258
  124OSM   H12F13264   6.042   4.256   7.852  0.7746  1.7575  0.8436
  124OSM   H12G13265   6.143   4.275   8.001 -1.4368  2.1109 -0.7900
  124OSM   C13F13266   5.963   4.159   8.026  0.2954  0.3840 -0.2666
  124OSM   H13F13267   5.888   4.108   7.962 -0.5255  0.8986  0.2677
  124OSM   H13G13268   5.926   4.257   8.064  2.1629  1.1237 -0.2206
  124OSM   C14F13269   6.007   4.072   8.142 -0.0995  0.5199 -0.1162
  124OSM   H14F13270   6.093   4.118   8.195 -0.9077  1.7911  0.1575
  124OSM   H14G13271   6.049   3.971   8.128 -2.8350 -0.6087 -0.9316
  124OSM   C15F13272   5.903   4.070   8.263 -0.7424 -0.7731 -0.9716
  124OSM   H15F13273   5.864   4.172   8.286  2.9974  0.4052  1.0171
  124OSM   H15G13274   5.962   4.037   8.351 -0.3392 -1.5445 -1.5147
  124OSM   C16F13275   5.790   3.959   8.252  0.4004 -0.3153  0.2241
  124OSM   H16F13276   5.738   3.955   8.350  1.8354 -0.5607  1.0007
  124OSM   H16G13277   5.825   3.854   8.240  0.8086 -0.0478 -1.0384
  124OSM   C17F13278   5.694   3.974   8.125  0.2220 -0.4310 -0.3471
  124OSM   H17F13279   5.755   3.944   8.037  2.0912 -0.1366  0.8099
  124OSM   H17G13280   5.673   4.083   8.112 -1.5320 -0.8675 -1.6506
  124OSM   C18F13281   5.572   3.883   8.131 -0.0982 -0.0480  0.1473
  124OSM   H18F13282   5.596   3.776   8.149 -0.4118  0.3436  3.8236
  124OSM   H18G13283   5.515   3.896   8.037 -0.1564  0.1869  0.2151
  124OSM   H18H13284   5.508   3.918   8.215 -1.9878 -0.3703 -1.1028
  125OSM      N13285   5.762   4.705   6.376 -0.1208  0.0519 -0.5889
  125OSM    C1513286   5.890   4.780   6.393  0.1167 -0.5229 -0.1634
  125OSM   H15A13287   5.956   4.768   6.308  0.5845  2.2091 -0.2484
  125OSM   H15B13288   5.942   4.742   6.480  0.1564  1.0034  0.5038
  125OSM   H15C13289   5.874   4.886   6.403  1.1453 -0.3281 -0.4567
  125OSM    C1413290   5.664   4.740   6.483  0.2274 -0.1520  0.1018
  125OSM   H14A13291   5.569   4.714   6.440 -0.5433  3.4875 -0.8032
  125OSM   H14B13292   5.654   4.846   6.505 -0.9273 -0.3948  0.7777
  125OSM   H14C13293   5.687   4.687   6.574  0.4606  1.3951  0.9902
  125OSM    C1313294   5.707   4.755   6.245 -0.8061  0.5016  1.0213
  125OSM   H13A13295   5.703   4.863   6.240  1.3235  0.6457  1.1730
  125OSM   H13B13296   5.608   4.717   6.227 -0.8251  0.4573  1.2151
  125OSM   H13C13297   5.763   4.713   6.163  3.3157  1.0782  3.2208
  125OSM    C1213298   5.774   4.548   6.371 -0.9204 -0.0267  0.8979
  125OSM   H12A13299   5.824   4.526   6.277 -2.5736  1.3098 -0.3683
  125OSM   H12B13300   5.674   4.508   6.356  0.2418 -2.7803 -0.2586
  125OSM    C1113301   5.848   4.462   6.480  0.5704  0.2482 -0.1436
  125OSM   H11A13302   5.828   4.355   6.462 -1.4588  0.5016  0.2888
  125OSM   H11B13303   5.810   4.480   6.583  2.5785  0.6069  0.5795
  125OSM      P13304   6.082   4.384   6.400  0.5039 -0.0969 -0.2029
  125OSM    O1313305   6.009   4.314   6.285 -0.4692 -0.0806 -0.1097
  125OSM    O1413306   6.208   4.450   6.369  0.2289 -0.4612  0.4912
  125OSM    O1113307   6.110   4.269   6.501 -0.1750  0.2638  0.1548
  125OSM    O1213308   5.989   4.483   6.486 -0.0785 -0.0938 -0.1039
  125OSM    C1S13309   6.163   4.296   6.634 -0.3702 -0.3839 -0.5085
  125OSM    H1S13310   6.212   4.391   6.662  0.3732 -1.4608  2.1038
  125OSM    H1T13311   6.256   4.237   6.651  0.8560  1.4622 -0.5669
  125OSM     NF13312   6.096   4.292   6.885 -0.0672 -0.6924  0.5559
  125OSM    HNF13313   6.105   4.216   6.948 -0.4477  0.5195  2.1533
  125OSM    C2S13314   6.053   4.262   6.745 -0.1789 -0.0309 -0.4749
  125OSM    H2S13315   5.961   4.319   6.723 -1.8031 -1.4528  2.0522
  125OSM    C3S13316   6.013   4.116   6.718  0.7279  0.1323  0.5881
  125OSM    H3S13317   6.108   4.059   6.722  0.9995  0.5423  0.1446
  125OSM     O313318   5.965   4.082   6.585 -0.6572 -0.6033  0.0928
  125OSM    HO313319   6.015   4.138   6.525  0.8743 -2.4644 -0.4757
  125OSM    C4S13320   5.925   4.065   6.830  0.0075  0.1274  0.1427
  125OSM    H4S13321   5.991   4.040   6.915 -0.7972 -1.9746  0.2108
  125OSM    C5S13322   5.790   4.058   6.846 -0.2382  0.1988 -0.5059
  125OSM    H5S13323   5.721   4.091   6.767 -1.5085  1.1850  0.9755
  125OSM    C6S13324   5.712   4.002   6.966  0.3918 -0.0583 -0.2449
  125OSM    H6S13325   5.637   3.933   6.922  1.0301  0.7054 -2.6975
  125OSM    H6T13326   5.668   4.096   7.007  1.1002 -0.3583  1.2557
  125OSM    C7S13327   5.788   3.931   7.077 -0.2497 -0.6677 -0.6537
  125OSM    H7S13328   5.884   3.974   7.112 -0.3996 -1.8021  1.2999
  125OSM    H7T13329   5.804   3.827   7.043  0.6387 -1.3177  1.5849
  125OSM    C8S13330   5.703   3.902   7.205 -0.0401  0.7267  0.4351
  125OSM    H8S13331   5.624   3.827   7.181  0.6516 -0.0101  0.4357
  125OSM    H8T13332   5.642   3.991   7.233 -0.2892  0.8003 -0.3070
  125OSM    C9S13333   5.790   3.851   7.316  0.4413 -0.4608  0.1292
  125OSM    H9S13334   5.873   3.923   7.338 -0.0169  0.1369 -0.0746
  125OSM    H9T13335   5.841   3.757   7.285 -1.5720 -2.7976  3.2711
  125OSM   C10S13336   5.720   3.837   7.452 -0.1682  0.2800 -0.0201
  125OSM   H10S13337   5.612   3.808   7.448  0.2989 -1.4484 -3.3420
  125OSM   H10T13338   5.711   3.937   7.500  2.0772  1.1626 -1.3274
  125OSM   C11S13339   5.794   3.745   7.554  0.5469  0.2288 -0.4833
  125OSM   H11S13340   5.861   3.808   7.617 -1.8012  2.6477 -0.1853
  125OSM   H11T13341   5.858   3.664   7.513  1.0987  0.1936  0.4209
  125OSM   C12S13342   5.700   3.689   7.660  0.3495  1.1025  0.1271
  125OSM   H12S13343   5.612   3.636   7.619 -0.3642  1.3384  1.2827
  125OSM   H12T13344   5.660   3.768   7.728  0.3731  1.5936 -0.4233
  125OSM   C13S13345   5.773   3.594   7.758 -0.3992  0.0453 -0.2302
  125OSM   H13S13346   5.867   3.651   7.775 -0.9447  0.6450  0.8570
  125OSM   H13T13347   5.803   3.497   7.713  0.7535 -1.5423  3.5711
  125OSM   C14S13348   5.688   3.578   7.886 -0.6960  0.0880  0.8558
  125OSM   H14S13349   5.586   3.549   7.854  0.2070 -1.4245 -0.8779
  125OSM   H14T13350   5.703   3.681   7.925  1.2760  0.4909 -0.7342
  125OSM   C15S13351   5.737   3.470   7.986 -1.0779 -0.0950 -0.3633
  125OSM   H15S13352   5.840   3.502   8.014  0.1002 -1.8143 -2.4095
  125OSM   H15T13353   5.757   3.369   7.944  2.4976  0.3387 -0.0230
  125OSM   C16S13354   5.657   3.473   8.116  0.7331 -0.4630  0.5034
  125OSM   H16S13355   5.554   3.447   8.081  1.3656 -1.7398 -0.4989
  125OSM   H16T13356   5.654   3.573   8.163 -1.3511  0.9244 -2.2669
  125OSM   C17S13357   5.690   3.355   8.217 -0.0613  0.1530  0.7592
  125OSM   H17S13358   5.689   3.253   8.172 -0.5626  0.9582 -1.1357
  125OSM   H17T13359   5.615   3.364   8.299  2.0962  1.8066  2.6662
  125OSM   C18S13360   5.830   3.372   8.280 -0.2764 -0.6638 -0.1895
  125OSM   H18S13361   5.911   3.357   8.205 -0.9999 -0.6642 -0.9869
  125OSM   H18T13362   5.853   3.302   8.363 -0.2830 -0.6379 -0.1658
  125OSM   H18U13363   5.846   3.473   8.323  1.1913  0.1697 -2.5137
  125OSM    C1F13364   6.102   4.426   6.926 -0.1681 -0.2593 -0.5844
  125OSM     OF13365   6.069   4.517   6.852 -0.0510 -0.0314 -0.2750
  125OSM    C2F13366   6.142   4.454   7.072 -0.1353 -0.3139 -0.1511
  125OSM    H2F13367   6.245   4.416   7.090 -0.5882 -1.3300  0.4184
  125OSM    H2G13368   6.078   4.403   7.148 -0.4376  0.6839  0.2762
  125OSM    C3F13369   6.133   4.608   7.102  0.2938  0.0960 -0.5981
  125OSM    H3F13370   6.029   4.638   7.076  0.3636  0.4697 -0.4531
  125OSM    H3G13371   6.202   4.660   7.032  0.0606  0.0755 -0.8466
  125OSM    C4F13372   6.163   4.639   7.249  0.0277  0.4718  0.0163
  125OSM    H4F13373   6.182   4.747   7.266 -0.8769  0.3953  1.7573
  125OSM    H4G13374   6.258   4.596   7.286 -0.3121  1.4230  2.1245
  125OSM    C5F13375   6.052   4.599   7.343 -0.2828  0.1507 -0.7807
  125OSM    H5F13376   6.058   4.489   7.357  0.5993  0.1700 -0.9647
  125OSM    H5G13377   5.950   4.618   7.301 -0.0711 -1.1950 -1.9782
  125OSM    C6F13378   6.046   4.663   7.478 -0.7774 -0.1081 -0.4278
  125OSM    H6F13379   6.013   4.769   7.468  0.5812  0.4397  0.5937
  125OSM    H6G13380   6.148   4.669   7.520 -0.0582  0.7398 -2.2142
  125OSM    C7F13381   5.960   4.597   7.576  0.5373  0.6301 -0.8271
  125OSM    H7F13382   6.017   4.503   7.592  0.0890  0.4781 -0.0715
  125OSM    H7G13383   5.857   4.573   7.544  0.4579 -0.2079 -0.0000
  125OSM    C8F13384   5.943   4.666   7.715  0.6651  0.0362 -0.4714
  125OSM    H8F13385   5.854   4.636   7.775  1.9450  0.4683  1.7423
  125OSM    H8G13386   5.924   4.773   7.690 -0.7278  0.4358  1.9301
  125OSM    C9F13387   6.073   4.663   7.791 -0.4339  0.2602  0.4892
  125OSM    H9F13388   6.159   4.693   7.730 -1.6282 -1.1641 -2.0945
  125OSM   C10F13389   6.082   4.618   7.917 -0.4053 -0.0326 -0.0015
  125OSM   H10F13390   6.181   4.584   7.952 -1.9036 -1.6997  2.9397
  125OSM   C11F13391   5.972   4.574   8.009 -0.1803  0.6428  0.4324
  125OSM   H11F13392   5.985   4.463   8.007 -0.0570  0.6608  0.2559
  125OSM   H11G13393   5.872   4.607   7.976 -0.1332 -1.9976 -2.8959
  125OSM   C12F13394   6.007   4.609   8.156  0.1483  0.2035  0.3892
  125OSM   H12F13395   5.935   4.688   8.185 -0.4493 -0.4865  0.8372
  125OSM   H12G13396   6.112   4.645   8.159 -0.0347  0.8024 -0.1916
  125OSM   C13F13397   5.988   4.489   8.250 -0.2415 -0.0808  0.2048
  125OSM   H13F13398   6.065   4.416   8.216 -0.9522  0.0062 -1.7666
  125OSM   H13G13399   5.891   4.435   8.240 -0.3189  0.3294 -1.6016
  125OSM   C14F13400   6.005   4.512   8.394  0.5852  1.0214  0.6606
  125OSM   H14F13401   6.106   4.558   8.402  0.8360  0.5159  0.4547
  125OSM   H14G13402   6.000   4.418   8.453 -2.2936 -0.7185 -2.0352
  125OSM   C15F13403   5.894   4.605   8.445  0.2814  0.5315 -0.3531
  125OSM   H15F13404   5.792   4.561   8.439 -1.1416  3.3473  1.1611
  125OSM   H15G13405   5.906   4.696   8.383 -1.2789  1.6203  0.8338
  125OSM   C16F13406   5.917   4.631   8.595 -0.1235 -0.0658  0.4318
  125OSM   H16F13407   6.012   4.687   8.608 -1.1723  1.4545  1.8585
  125OSM   H16G13408   5.925   4.538   8.656 -2.4082 -1.1123 -0.7179
  125OSM   C17F13409   5.817   4.729   8.660  0.3114  0.3510  0.3070
  125OSM   H17F13410   5.714   4.693   8.645  1.5946 -3.1305 -1.1853
  125OSM   H17G13411   5.824   4.823   8.601  2.4432 -1.2912 -2.3230
  125OSM   C18F13412   5.845   4.766   8.805 -0.2361 -0.6797 -0.4062
  125OSM   H18F13413   5.927   4.840   8.816  0.0816 -1.4237  3.9147
  125OSM   H18G13414   5.869   4.677   8.867 -1.2679 -0.5438  0.2055
  125OSM   H18H13415   5.763   4.832   8.841  1.8418  0.5225  2.4612
  126OSM      N13416   2.948   4.616   6.409 -0.1285 -0.8239 -0.5039
  126OSM    C1513417   3.089   4.578   6.391 -0.1799  0.0535  0.4125
  126OSM   H15A13418   3.140   4.658   6.338 -0.5096 -0.8360 -1.3150
  126OSM   H15B13419   3.102   4.504   6.314 -0.1429  0.7987 -0.3224
  126OSM   H15C13420   3.136   4.571   6.488 -2.1685 -1.2974  1.3323
  126OSM    C1413421   2.941   4.720   6.512 -0.2729  0.1074  0.4326
  126OSM   H14A13422   2.838   4.752   6.527 -0.3707 -0.9394  2.2579
  126OSM   H14B13423   2.993   4.810   6.481 -0.6335  0.7062  1.5009
  126OSM   H14C13424   2.967   4.681   6.609  2.2700  1.5450  0.4251
  126OSM    C1313425   2.885   4.669   6.284  0.5675  0.4213  0.6519
  126OSM   H13A13426   2.962   4.718   6.225  2.2971 -1.1185  1.5422
  126OSM   H13B13427   2.807   4.739   6.311  0.8485  0.3519  1.6705
  126OSM   H13C13428   2.827   4.593   6.234 -0.2545 -0.0247  2.2275
  126OSM    C1213429   2.869   4.495   6.451  0.5175  0.2526 -1.1050
  126OSM   H12A13430   2.766   4.525   6.466  1.0000  1.8181 -0.7761
  126OSM   H12B13431   2.904   4.469   6.550 -1.4856  0.6102 -0.2433
  126OSM    C1113432   2.870   4.369   6.366  0.5128 -0.4268 -0.2229
  126OSM   H11A13433   2.847   4.406   6.264  2.8779  0.2070 -0.5968
  126OSM   H11B13434   2.787   4.300   6.393  0.5117 -0.3063  0.0893
  126OSM      P13435   3.038   4.201   6.478  0.2328 -0.0258 -0.1244
  126OSM    O1313436   2.995   4.062   6.443 -0.2481  0.3959  0.9131
  126OSM    O1413437   3.180   4.210   6.483 -0.0442  0.0420  0.1856
  126OSM    O1113438   2.965   4.255   6.610  0.4843 -0.3655 -0.3050
  126OSM    O1213439   2.995   4.295   6.359  0.4598  0.2698 -0.3326
  126OSM    C1S13440   3.022   4.219   6.737  0.5841 -0.3335  0.0862
  126OSM    H1S13441   3.087   4.300   6.778 -0.3357 -0.6666  2.3071
  126OSM    H1T13442   3.084   4.127   6.740  0.9077 -0.1104  0.3033
  126OSM     NF13443   2.961   4.191   6.974  0.2982 -0.0733 -0.3407
  126OSM    HNF13444   3.019   4.114   7.000  0.2179 -0.3685 -1.0052
  126OSM    C2S13445   2.907   4.186   6.839  0.6524  0.0083  0.5496
  126OSM    H2S13446   2.824   4.259   6.832  0.9024  0.4794  2.1315
  126OSM    C3S13447   2.853   4.048   6.795  0.4009 -0.1903 -0.0935
  126OSM    H3S13448   2.924   3.963   6.793 -0.6585 -1.0934 -1.5505
  126OSM     O313449   2.787   4.041   6.668 -0.2186 -1.1260 -0.1241
  126OSM    HO313450   2.799   4.132   6.639  2.2595 -2.3417 -3.7065
  126OSM    C4S13451   2.762   4.008   6.904 -0.2206  0.4811 -0.1067
  126OSM    H4S13452   2.685   4.084   6.924 -1.0019 -0.5369  0.9011
  126OSM    C5S13453   2.751   3.889   6.976 -1.0244 -0.4848 -0.0511
  126OSM    H5S13454   2.822   3.808   6.955  0.4487  0.2124  1.8750
  126OSM    C6S13455   2.650   3.875   7.083  0.2174  0.4137 -0.3762
  126OSM    H6S13456   2.636   3.769   7.116  0.5556  1.2007  2.6066
  126OSM    H6T13457   2.552   3.921   7.056  1.0289  2.1877 -0.4014
  126OSM    C7S13458   2.683   3.931   7.220  0.2871  0.5510 -0.5188
  126OSM    H7S13459   2.705   4.040   7.220  1.4224  0.3355 -1.2469
  126OSM    H7T13460   2.779   3.883   7.247 -0.7228 -0.4580  1.5611
  126OSM    C8S13461   2.581   3.890   7.334 -0.1294 -0.3143  0.7009
  126OSM    H8S13462   2.579   3.779   7.337  0.5453 -0.3272  0.8360
  126OSM    H8T13463   2.481   3.936   7.321 -1.1416 -2.2739  1.1909
  126OSM    C9S13464   2.630   3.950   7.461 -0.0999 -0.1397 -0.5041
  126OSM    H9S13465   2.606   4.058   7.452  1.9777  0.2390 -2.4289
  126OSM    H9T13466   2.738   3.932   7.478  0.0068 -0.1991 -1.2389
  126OSM   C10S13467   2.547   3.902   7.583 -0.4988  0.4113  0.0930
  126OSM   H10S13468   2.568   3.795   7.604 -1.3616  0.4903  1.4734
  126OSM   H10T13469   2.437   3.911   7.569 -1.2904 -2.0232  3.4437
  126OSM   C11S13470   2.578   3.981   7.712 -0.1560  0.2535  0.8202
  126OSM   H11S13471   2.543   4.085   7.695  1.5507  0.5359 -1.5899
  126OSM   H11T13472   2.688   3.981   7.727  0.1558  0.4894 -1.1524
  126OSM   C12S13473   2.526   3.914   7.831  0.0017 -0.5183 -0.6385
  126OSM   H12S13474   2.562   3.809   7.825 -3.2402 -1.8395  1.0697
  126OSM   H12T13475   2.416   3.917   7.842  0.0984  0.4009  0.1774
  126OSM   C13S13476   2.580   3.996   7.951  1.1784  0.3242  0.0515
  126OSM   H13S13477   2.562   4.103   7.929 -0.8957  0.5119  2.2148
  126OSM   H13T13478   2.690   3.985   7.954  1.0212 -1.6260  1.0367
  126OSM   C14S13479   2.517   3.949   8.087 -0.1171  0.0533 -0.6736
  126OSM   H14S13480   2.411   3.922   8.070 -0.0509 -0.7699  0.1419
  126OSM   H14T13481   2.520   4.034   8.158  0.8425 -0.0701 -0.5493
  126OSM   C15S13482   2.585   3.824   8.145 -0.2855  0.3647  0.2186
  126OSM   H15S13483   2.693   3.847   8.161  0.1557 -2.2489  1.7085
  126OSM   H15T13484   2.571   3.739   8.075  2.6278  0.9664 -1.2685
  126OSM   C16S13485   2.529   3.800   8.293  0.0307  0.5664 -1.0743
  126OSM   H16S13486   2.579   3.865   8.368 -1.2098  2.2489 -1.6392
  126OSM   H16T13487   2.536   3.693   8.324 -0.6820  0.3552 -1.6314
  126OSM   C17S13488   2.376   3.822   8.315  0.4137 -0.2091 -0.2012
  126OSM   H17S13489   2.326   3.743   8.255  1.0073  0.4270 -1.5571
  126OSM   H17T13490   2.362   3.928   8.284 -1.4209 -0.4728 -0.3962
  126OSM   C18S13491   2.341   3.822   8.461 -0.4536  0.0978 -0.5418
  126OSM   H18S13492   2.387   3.912   8.510 -0.9662  0.7451 -1.2338
  126OSM   H18T13493   2.378   3.726   8.504 -1.6758 -0.2454 -0.2404
  126OSM   H18U13494   2.231   3.822   8.473 -0.4127 -0.7488 -0.1060
  126OSM    C1F13495   2.974   4.306   7.036  0.2156 -0.2644 -0.5564
  126OSM     OF13496   2.920   4.411   7.009  0.2506 -0.0174 -0.3912
  126OSM    C2F13497   3.061   4.289   7.162  0.0857  1.1205  0.8855
  126OSM    H2F13498   3.163   4.279   7.118 -0.3300 -0.2284  0.1810
  126OSM    H2G13499   3.031   4.196   7.214  1.9471 -0.5102 -0.7664
  126OSM    C3F13500   3.078   4.406   7.259 -0.2515 -0.0215 -0.1566
  126OSM    H3F13501   2.977   4.438   7.293  1.6882  2.1902  4.2650
  126OSM    H3G13502   3.119   4.500   7.217 -1.0457  0.0298 -0.8395
  126OSM    C4F13503   3.155   4.355   7.380 -0.2887  0.1262  0.0507
  126OSM    H4F13504   3.116   4.258   7.415 -2.7420  0.6934 -0.9238
  126OSM    H4G13505   3.146   4.428   7.463 -1.6357  0.7567 -0.6253
  126OSM    C5F13506   3.308   4.337   7.367 -0.0378 -0.0827 -0.2691
  126OSM    H5F13507   3.349   4.440   7.367  0.5808 -0.3185  0.8531
  126OSM    H5G13508   3.320   4.292   7.266  0.9901  0.3855 -0.3697
  126OSM    C6F13509   3.359   4.261   7.494 -0.3379  0.0930 -0.1120
  126OSM    H6F13510   3.462   4.234   7.463  1.0476  2.0102  2.4639
  126OSM    H6G13511   3.305   4.164   7.502 -0.1108 -0.0942 -0.7421
  126OSM    C7F13512   3.366   4.346   7.625 -0.1848  0.4416  0.5991
  126OSM    H7F13513   3.270   4.387   7.662 -1.0560 -1.0082 -0.0067
  126OSM    H7G13514   3.426   4.428   7.578 -2.4364  0.9833 -1.5394
  126OSM    C8F13515   3.435   4.281   7.746 -0.3228  0.0225  0.2979
  126OSM    H8F13516   3.527   4.236   7.702 -0.0744  1.7941 -1.1068
  126OSM    H8G13517   3.359   4.206   7.777 -0.6846  0.0517 -0.4998
  126OSM    C9F13518   3.478   4.392   7.844 -0.0076 -0.4101  0.4672
  126OSM    H9F13519   3.424   4.488   7.840  2.0076  0.7839  0.8684
  126OSM   C10F13520   3.550   4.378   7.950 -0.6583  0.5004 -0.4696
  126OSM   H10F13521   3.561   4.457   8.025  0.0678  1.5141 -1.6034
  126OSM   C11F13522   3.614   4.245   7.983  0.4067  0.0556  0.6250
  126OSM   H11F13523   3.698   4.259   8.054 -1.7266  2.3973  2.8862
  126OSM   H11G13524   3.661   4.208   7.889  0.2427 -0.1359  0.6174
  126OSM   C12F13525   3.521   4.133   8.058 -0.4802 -0.3720  0.3018
  126OSM   H12F13526   3.577   4.037   8.070 -0.4551 -0.3551  0.3184
  126OSM   H12G13527   3.429   4.126   7.997 -1.4408  2.2790  1.3134
  126OSM   C13F13528   3.474   4.161   8.198 -0.2737 -0.0296 -1.7176
  126OSM   H13F13529   3.374   4.114   8.209  0.2098 -0.6222  0.8798
  126OSM   H13G13530   3.454   4.270   8.212 -0.0333  0.0088 -1.6708
  126OSM   C14F13531   3.564   4.105   8.313  0.7003 -0.3019  0.1955
  126OSM   H14F13532   3.667   4.145   8.303  0.1290  1.1543 -0.0124
  126OSM   H14G13533   3.563   3.995   8.294 -1.5546 -0.6195  1.7465
  126OSM   C15F13534   3.505   4.120   8.453  0.7576 -0.4010  0.2274
  126OSM   H15F13535   3.398   4.094   8.448  0.2952  1.0754  1.5066
  126OSM   H15G13536   3.517   4.227   8.479  1.2092  0.0853 -1.8175
  126OSM   C16F13537   3.577   4.035   8.562  0.5575 -0.0034  0.3387
  126OSM   H16F13538   3.687   4.045   8.553  0.5030  0.0876 -0.3214
  126OSM   H16G13539   3.556   3.931   8.529 -1.8525  1.1454 -2.1999
  126OSM   C17F13540   3.520   4.042   8.705  0.6262 -0.6004  0.2599
  126OSM   H17F13541   3.426   3.984   8.709 -1.6920  2.9651  1.3287
  126OSM   H17G13542   3.498   4.149   8.720  0.8885 -0.3459 -1.0359
  126OSM   C18F13543   3.620   3.999   8.812  0.2293  0.4031  1.0171
  126OSM   H18F13544   3.717   4.051   8.795 -0.1581  1.3625  1.6213
  126OSM   H18G13545   3.628   3.889   8.800  0.3031  0.4887  0.2690
  126OSM   H18H13546   3.585   4.013   8.917  1.7903  0.9210  1.5021
  127OSM      N13547   4.137   4.340   6.321  0.3620  0.4441 -0.4415
  127OSM    C1513548   4.231   4.444   6.268 -0.6829  0.7254 -0.0292
  127OSM   H15A13549   4.323   4.396   6.238 -1.7562 -2.0836  0.8282
  127OSM   H15B13550   4.260   4.509   6.349 -1.3228  1.9759 -0.7731
  127OSM   H15C13551   4.185   4.503   6.191 -0.0331  0.4457 -0.6364
  127OSM    C1413552   4.004   4.408   6.353 -0.0869  0.5443 -0.3421
  127OSM   H14A13553   3.941   4.341   6.411  0.8742  1.3841  1.7916
  127OSM   H14B13554   3.962   4.451   6.264 -0.7532  1.6314  0.4672
  127OSM   H14C13555   4.013   4.487   6.426  1.1968  0.0442  0.0876
  127OSM    C1313556   4.101   4.239   6.221 -0.1170 -0.4053  0.6606
  127OSM   H13A13557   4.004   4.196   6.242  0.3236 -1.1291  1.2797
  127OSM   H13B13558   4.170   4.156   6.216 -1.2501 -1.3890  0.8052
  127OSM   H13C13559   4.087   4.279   6.121 -2.1013  0.6881  1.3183
  127OSM    C1213560   4.191   4.265   6.442  0.0343 -0.8913 -0.4578
  127OSM   H12A13561   4.123   4.189   6.478 -1.3403  1.0483  1.2592
  127OSM   H12B13562   4.186   4.343   6.516  0.2400  0.6073 -1.9519
  127OSM    C1113563   4.336   4.208   6.442 -0.1791  0.1122  0.3345
  127OSM   H11A13564   4.367   4.158   6.536  3.1994  1.7713  0.2926
  127OSM   H11B13565   4.400   4.299   6.428 -1.4355  1.2357  1.6107
  127OSM      P13566   4.320   3.972   6.330 -0.2900  0.1792  0.2813
  127OSM    O1313567   4.190   3.962   6.260  0.0627  0.0672 -0.1949
  127OSM    O1413568   4.438   3.896   6.284  0.4068 -0.5827  0.0092
  127OSM    O1113569   4.305   3.943   6.479 -0.3397  0.3509 -0.6191
  127OSM    O1213570   4.365   4.123   6.332  0.3683 -0.2517 -0.2782
  127OSM    C1S13571   4.235   3.823   6.520 -0.1544  0.3836  0.3359
  127OSM    H1S13572   4.284   3.726   6.498 -0.2581  0.0882  1.3694
  127OSM    H1T13573   4.135   3.808   6.473  0.9812 -1.5089 -1.7091
  127OSM     NF13574   4.145   3.680   6.693 -0.5935 -0.5019  0.2652
  127OSM    HNF13575   4.047   3.664   6.698 -0.7555  0.4646  0.5093
  127OSM    C2S13576   4.193   3.817   6.669 -0.6788  0.2409  0.2219
  127OSM    H2S13577   4.287   3.828   6.728 -1.0957  0.5025  0.8407
  127OSM    C3S13578   4.105   3.936   6.708  0.2503  0.1553  0.8846
  127OSM    H3S13579   4.011   3.940   6.648  0.3892 -0.2123  0.6439
  127OSM     O313580   4.161   4.071   6.682  0.5960  0.6285 -0.2893
  127OSM    HO313581   4.245   4.048   6.642 -0.1634 -2.6226 -0.3098
  127OSM    C4S13582   4.066   3.923   6.851  0.4746 -0.3091  1.0136
  127OSM    H4S13583   4.156   3.915   6.915  1.3625  3.0003  0.3343
  127OSM    C5S13584   3.946   3.932   6.913  0.6901  0.1998  0.2011
  127OSM    H5S13585   3.862   3.974   6.856  0.5324  0.6538  0.7594
  127OSM    C6S13586   3.908   3.914   7.057  0.6355 -0.0946  0.4740
  127OSM    H6S13587   3.817   3.851   7.064 -0.7387  1.8346  0.9720
  127OSM    H6T13588   3.888   4.007   7.114 -2.0202  0.0648 -0.5734
  127OSM    C7S13589   4.016   3.859   7.144 -0.0355  0.2978  0.0933
  127OSM    H7S13590   4.097   3.934   7.143  0.3210  0.0043  1.9056
  127OSM    H7T13591   4.050   3.765   7.096  3.4374  1.1519  0.6226
  127OSM    C8S13592   3.976   3.837   7.290 -0.1674 -0.8744  0.1304
  127OSM    H8S13593   3.883   3.778   7.303 -0.3651 -0.3730  1.0972
  127OSM    H8T13594   3.945   3.937   7.329  0.0869 -0.9705  0.5921
  127OSM    C9S13595   4.094   3.805   7.384  0.0180  0.3268  0.9905
  127OSM    H9S13596   4.173   3.878   7.359  1.0540 -0.3310  2.2213
  127OSM    H9T13597   4.137   3.709   7.349  1.8510  1.3947  0.1749
  127OSM   C10S13598   4.054   3.806   7.533  0.3213 -0.4998 -0.1347
  127OSM   H10S13599   3.985   3.720   7.542  2.5181 -2.4704 -1.0920
  127OSM   H10T13600   4.012   3.905   7.562 -1.8672 -1.4678  0.2460
  127OSM   C11S13601   4.165   3.775   7.634 -0.4592 -0.0937 -0.5335
  127OSM   H11S13602   4.259   3.835   7.630 -0.0457 -0.7808 -2.7450
  127OSM   H11T13603   4.202   3.673   7.608  0.9220  0.2032  0.1503
  127OSM   C12S13604   4.116   3.773   7.775 -0.0796 -0.0716  1.0091
  127OSM   H12S13605   4.038   3.697   7.796 -2.8690  1.3851 -2.9697
  127OSM   H12T13606   4.075   3.874   7.794  0.7015  0.8327 -1.6705
  127OSM   C13S13607   4.235   3.762   7.877 -0.1971  0.3927  0.6100
  127OSM   H13S13608   4.316   3.838   7.867  0.4414 -0.2773  0.5874
  127OSM   H13T13609   4.293   3.668   7.864  0.3782  0.5409  1.9898
  127OSM   C14S13610   4.192   3.751   8.020  0.7091 -0.2858  0.3078
  127OSM   H14S13611   4.096   3.806   8.032 -0.2597 -1.8370 -0.0134
  127OSM   H14T13612   4.261   3.797   8.095  1.2590  0.8330 -0.8518
  127OSM   C15S13613   4.189   3.607   8.066 -0.1077  0.2549 -0.2384
  127OSM   H15S13614   4.283   3.557   8.035  0.1175 -0.3782  1.3492
  127OSM   H15T13615   4.117   3.559   7.997 -1.1191  1.2893  0.0800
  127OSM   C16S13616   4.147   3.582   8.214  0.1335 -0.1209  0.0590
  127OSM   H16S13617   4.123   3.475   8.231  0.5409 -0.0206  1.4280
  127OSM   H16T13618   4.063   3.651   8.236  3.0317  3.1784  2.0604
  127OSM   C17S13619   4.260   3.611   8.325  0.8823 -0.4840  0.6435
  127OSM   H17S13620   4.207   3.616   8.422  0.0604  1.2962  0.1574
  127OSM   H17T13621   4.305   3.709   8.296  0.6532 -0.3389  0.7711
  127OSM   C18S13622   4.372   3.513   8.327 -0.5223 -0.3850  0.0603
  127OSM   H18S13623   4.447   3.534   8.405 -0.3265 -2.3854  0.4448
  127OSM   H18T13624   4.418   3.510   8.226 -0.1433 -0.8933  0.2450
  127OSM   H18U13625   4.331   3.414   8.354  0.1213 -0.8518 -0.6284
  127OSM    C1F13626   4.229   3.575   6.700 -0.2373 -1.0623  0.5248
  127OSM     OF13627   4.352   3.589   6.677 -0.3388 -0.3946  0.0684
  127OSM    C2F13628   4.173   3.433   6.729  0.2762 -0.0213  0.3980
  127OSM    H2F13629   4.206   3.376   6.639  1.3845  1.0025  0.1387
  127OSM    H2G13630   4.063   3.447   6.723  0.1659 -1.2999 -1.2649
  127OSM    C3F13631   4.239   3.384   6.856  0.5387 -0.5172  0.0266
  127OSM    H3F13632   4.214   3.446   6.945  0.3033  0.1529 -0.4964
  127OSM    H3G13633   4.349   3.390   6.844  0.4253  0.2283 -0.7141
  127OSM    C4F13634   4.212   3.235   6.879  0.0116  0.2437  0.2493
  127OSM    H4F13635   4.259   3.164   6.808 -0.1196  0.4485 -0.0454
  127OSM    H4G13636   4.104   3.209   6.874  0.3083 -0.8244 -1.0641
  127OSM    C5F13637   4.252   3.196   7.026  0.3548 -0.2552  0.3101
  127OSM    H5F13638   4.257   3.293   7.080  0.4593 -0.3999  0.5642
  127OSM    H5G13639   4.352   3.149   7.018  0.1331 -0.6447 -0.1849
  127OSM    C6F13640   4.171   3.098   7.108  0.0359  0.4533 -0.1436
  127OSM    H6F13641   4.147   3.010   7.044  1.7664 -0.7121  0.7119
  127OSM    H6G13642   4.075   3.144   7.139  1.6762  2.8327  1.8183
  127OSM    C7F13643   4.253   3.059   7.231  0.1504  0.4275 -0.2555
  127OSM    H7F13644   4.260   3.148   7.298  0.9046 -1.2786  2.0519
  127OSM    H7G13645   4.356   3.043   7.194  0.8663  2.9502  0.4100
  127OSM    C8F13646   4.207   2.932   7.304 -0.2577  0.2669 -0.3519
  127OSM    H8F13647   4.253   2.849   7.245 -1.2714  1.0584 -2.3351
  127OSM    H8G13648   4.099   2.907   7.310  0.1505 -1.6617 -0.4066
  127OSM    C9F13649   4.258   2.939   7.450  0.4305  0.5813  0.2999
  127OSM    H9F13650   4.251   3.040   7.493 -2.3312  0.5400  0.1180
  127OSM   C10F13651   4.295   2.851   7.543 -0.4135 -0.9400 -0.1996
  127OSM   H10F13652   4.322   2.880   7.646 -3.3085  1.7408 -0.0722
  127OSM   C11F13653   4.296   2.708   7.521 -0.2314  0.9428  0.1180
  127OSM   H11F13654   4.390   2.657   7.489 -1.3119 -0.9372 -0.1979
  127OSM   H11G13655   4.225   2.683   7.440  0.3131 -1.1439  0.2286
  127OSM   C12F13656   4.247   2.629   7.644 -0.1612 -0.4076  0.0929
  127OSM   H12F13657   4.214   2.527   7.613 -3.3346  0.2923  0.8031
  127OSM   H12G13658   4.150   2.676   7.670 -0.6155 -1.4330  0.3185
  127OSM   C13F13659   4.337   2.639   7.768 -0.5635 -0.0070 -0.2330
  127OSM   H13F13660   4.266   2.630   7.853 -0.3839 -0.8151 -0.1596
  127OSM   H13G13661   4.397   2.733   7.772  1.1436 -0.9966 -1.2213
  127OSM   C14F13662   4.438   2.522   7.771 -0.4712  0.1742 -0.0533
  127OSM   H14F13663   4.522   2.514   7.699  1.1360  0.4421  1.6959
  127OSM   H14G13664   4.386   2.424   7.777  0.7482 -0.5792 -1.1138
  127OSM   C15F13665   4.525   2.536   7.892  0.1575  0.5305 -0.1028
  127OSM   H15F13666   4.466   2.579   7.976  0.0968 -2.3765  1.5003
  127OSM   H15G13667   4.617   2.592   7.866  1.2662 -1.7992 -1.5462
  127OSM   C16F13668   4.567   2.399   7.954  0.2131  0.0538  0.0012
  127OSM   H16F13669   4.629   2.346   7.878  0.0803 -1.1095  0.6853
  127OSM   H16G13670   4.470   2.347   7.969  0.0712 -0.0473 -1.1628
  127OSM   C17F13671   4.650   2.413   8.082  0.8331 -0.1929  0.0221
  127OSM   H17F13672   4.576   2.421   8.164 -0.7143  0.6557 -1.3764
  127OSM   H17G13673   4.723   2.495   8.070 -0.3922  1.1045  1.1086
  127OSM   C18F13674   4.719   2.281   8.116 -0.1810  0.2284  0.4277
  127OSM   H18F13675   4.642   2.202   8.107  0.7903 -0.6097 -0.8009
  127OSM   H18G13676   4.772   2.293   8.212  1.7663 -1.1403 -0.4074
  127OSM   H18H13677   4.798   2.265   8.039 -0.2215  0.4357  0.3400
  128OSM      N13678   6.590   5.453   5.938  0.4282  0.3739 -0.4569
  128OSM    C1513679   6.495   5.530   6.031 -1.3949  0.7241  0.4052
  128OSM   H15A13680   6.433   5.602   5.981 -1.3195  0.2712 -0.3562
  128OSM   H15B13681   6.554   5.587   6.100 -1.1771  1.2756 -0.2313
  128OSM   H15C13682   6.428   5.468   6.089 -0.1441 -1.0199  0.0858
  128OSM    C1413683   6.676   5.353   6.013  0.7261 -0.4396 -0.2040
  128OSM   H14A13684   6.744   5.405   6.078  0.4858  2.1544 -1.8965
  128OSM   H14B13685   6.721   5.289   5.939 -0.4098  0.6322 -1.8876
  128OSM   H14C13686   6.620   5.290   6.080  0.7121  0.8130  0.9992
  128OSM    C1313687   6.501   5.372   5.845 -0.6963 -0.0832 -0.1911
  128OSM   H13A13688   6.429   5.428   5.788 -0.9741 -0.4219 -0.1768
  128OSM   H13B13689   6.441   5.302   5.902  2.5453 -0.6918  2.8246
  128OSM   H13C13690   6.565   5.319   5.777  0.8987 -0.7482  1.7219
  128OSM    C1213691   6.685   5.536   5.858  0.6404 -0.2568 -0.1965
  128OSM   H12A13692   6.718   5.484   5.769 -0.7410 -1.8847  0.2006
  128OSM   H12B13693   6.779   5.547   5.911 -0.0901 -0.5200  1.1915
  128OSM    C1113694   6.645   5.684   5.829 -0.4884 -0.3850 -0.1720
  128OSM   H11A13695   6.541   5.687   5.789 -1.3261  1.2003  1.9905
  128OSM   H11B13696   6.719   5.727   5.758  0.8347  0.8026  1.8481
  128OSM      P13697   6.770   5.794   6.031 -0.2866 -0.0887 -0.2956
  128OSM    O1313698   6.795   5.688   6.137  0.1119 -0.1646 -0.1502
  128OSM    O1413699   6.880   5.823   5.938  0.0833 -0.4987 -0.5492
  128OSM    O1113700   6.723   5.921   6.106  0.1532  0.4142  0.0259
  128OSM    O1213701   6.643   5.764   5.950 -0.2675  0.1303 -1.0502
  128OSM    C1S13702   6.630   5.920   6.214  0.0999  0.4437 -0.2244
  128OSM    H1S13703   6.599   5.818   6.243  1.8071 -0.2905 -0.8188
  128OSM    H1T13704   6.535   5.971   6.190 -1.6917 -0.9763  3.1543
  128OSM     NF13705   6.576   5.951   6.451  0.2299  0.0966  0.1717
  128OSM    HNF13706   6.528   6.036   6.471  0.9922  1.1144 -2.0311
  128OSM    C2S13707   6.692   5.957   6.356 -0.0416  1.1788 -0.5531
  128OSM    H2S13708   6.764   5.875   6.376 -1.0199 -0.0589 -1.9016
  128OSM    C3S13709   6.770   6.093   6.345 -0.1581 -0.1227 -0.0611
  128OSM    H3S13710   6.709   6.167   6.288  0.1414 -1.2625 -1.9414
  128OSM     O313711   6.884   6.086   6.257 -0.0631 -0.3058  0.5878
  128OSM    HO313712   6.849   6.031   6.187  0.9245  0.5996 -0.6614
  128OSM    C4S13713   6.807   6.129   6.484 -0.4859 -0.6534 -0.0721
  128OSM    H4S13714   6.740   6.196   6.541  0.6529 -0.3341  0.9270
  128OSM    C5S13715   6.913   6.091   6.558 -0.2684  0.6433  0.0024
  128OSM    H5S13716   6.985   6.023   6.512  0.0071 -0.6852  2.2308
  128OSM    C6S13717   6.920   6.117   6.707  0.1146 -0.4264  0.3318
  128OSM    H6S13718   6.888   6.218   6.740  0.8856  0.6083 -1.8457
  128OSM    H6T13719   7.031   6.115   6.718  0.0398 -1.2484  1.0150
  128OSM    C7S13720   6.849   6.012   6.786 -0.3699 -0.0417 -0.5721
  128OSM    H7S13721   6.904   5.916   6.789  1.4944  0.9604  3.5490
  128OSM    H7T13722   6.743   6.002   6.755 -0.5894 -0.2741  0.2417
  128OSM    C8S13723   6.872   6.045   6.934  0.0712  0.2505 -0.9338
  128OSM    H8S13724   6.840   6.151   6.944 -0.4908 -0.0922  1.8845
  128OSM    H8T13725   6.980   6.051   6.958  0.2494 -1.4627 -1.1820
  128OSM    C9S13726   6.792   5.971   7.042  0.5817 -0.1131  0.0086
  128OSM    H9S13727   6.830   5.867   7.051  1.7715  0.2465 -0.5824
  128OSM    H9T13728   6.687   5.962   7.007  1.2233 -0.2822 -2.0430
  128OSM   C10S13729   6.793   6.053   7.169  0.2095  0.0554 -0.5457
  128OSM   H10S13730   6.719   6.135   7.156 -1.0652 -1.1421 -1.0806
  128OSM   H10T13731   6.893   6.100   7.185  0.3083 -0.3434  0.0110
  128OSM   C11S13732   6.763   5.966   7.296 -0.0079  0.4148 -0.5166
  128OSM   H11S13733   6.836   5.882   7.297  0.9612  1.2347 -0.6990
  128OSM   H11T13734   6.667   5.914   7.276 -0.4501  1.9400 -2.8587
  128OSM   C12S13735   6.758   6.045   7.427 -0.1041  0.0684 -0.7027
  128OSM   H12S13736   6.672   6.116   7.434  0.4101  0.7474 -1.0675
  128OSM   H12T13737   6.848   6.109   7.436  0.5509 -0.7277 -1.4605
  128OSM   C13S13738   6.736   5.949   7.546 -0.4331 -0.1344 -0.2579
  128OSM   H13S13739   6.814   5.874   7.523 -0.4103  0.5736 -2.8379
  128OSM   H13T13740   6.640   5.893   7.538 -0.8029  0.1360  1.7590
  128OSM   C14S13741   6.759   6.008   7.690 -0.5105  1.0122 -0.2479
  128OSM   H14S13742   6.682   6.084   7.716 -0.3262  1.1238 -0.0336
  128OSM   H14T13743   6.858   6.051   7.715 -1.1643  1.1423  2.3970
  128OSM   C15S13744   6.724   5.891   7.787  0.0396  1.3133 -0.3281
  128OSM   H15S13745   6.791   5.807   7.758 -0.1361 -0.3748  3.6019
  128OSM   H15T13746   6.622   5.847   7.782  1.1346 -1.8965  1.8826
  128OSM   C16S13747   6.774   5.931   7.930  0.0547  0.5209 -0.1196
  128OSM   H16S13748   6.746   6.036   7.955  0.3692  0.4259  0.6323
  128OSM   H16T13749   6.884   5.942   7.921 -0.2068  1.4528 -3.8009
  128OSM   C17S13750   6.728   5.825   8.031  0.2453 -1.1047  0.8507
  128OSM   H17S13751   6.750   5.719   8.008  1.0320 -1.2200  2.0900
  128OSM   H17T13752   6.617   5.817   8.031  0.1192 -0.4055 -1.9733
  128OSM   C18S13753   6.785   5.857   8.165 -0.1234  0.0473  0.1458
  128OSM   H18S13754   6.778   5.965   8.189 -1.0296  0.1094 -0.3446
  128OSM   H18T13755   6.893   5.829   8.167 -0.2955 -0.6094  0.4928
  128OSM   H18U13756   6.724   5.793   8.232 -2.6670 -0.1170 -2.1221
  128OSM    C1F13757   6.518   5.841   6.506 -0.0329  0.0693 -0.3612
  128OSM     OF13758   6.532   5.728   6.455 -0.3362 -0.2954  0.1028
  128OSM    C2F13759   6.443   5.868   6.635  0.5047  0.0096 -0.3607
  128OSM    H2F13760   6.337   5.893   6.612  0.1798  2.1595  2.8083
  128OSM    H2G13761   6.481   5.953   6.695  0.1191 -1.7245  2.5269
  128OSM    C3F13762   6.444   5.742   6.731 -0.0410  0.0211 -0.1539
  128OSM    H3F13763   6.414   5.653   6.673 -0.4903 -0.5830  0.9921
  128OSM    H3G13764   6.367   5.761   6.808  0.2210 -0.1485  0.1541
  128OSM    C4F13765   6.587   5.727   6.803  0.4336  0.2080 -0.1290
  128OSM    H4F13766   6.607   5.825   6.853 -0.8666  0.5186 -0.1764
  128OSM    H4G13767   6.672   5.718   6.733 -1.0460  3.0192 -2.5181
  128OSM    C5F13768   6.606   5.616   6.905 -0.3259  1.1011 -0.7268
  128OSM    H5F13769   6.716   5.604   6.920 -0.2957  1.9501 -0.2192
  128OSM    H5G13770   6.584   5.516   6.863  3.1344  0.5944 -1.6770
  128OSM    C6F13771   6.545   5.648   7.045  0.4517 -0.3009  0.4194
  128OSM    H6F13772   6.436   5.671   7.042  0.4359 -0.4990 -0.7244
  128OSM    H6G13773   6.601   5.738   7.080  1.9646 -0.9876 -0.1572
  128OSM    C7F13774   6.567   5.532   7.142 -0.3198 -0.0068 -0.3772
  128OSM    H7F13775   6.676   5.518   7.160 -0.6285  0.7125  2.7744
  128OSM    H7G13776   6.535   5.437   7.094  0.1108  0.6701 -2.0369
  128OSM    C8F13777   6.489   5.560   7.274  0.3946 -0.3298  0.1714
  128OSM    H8F13778   6.379   5.547   7.263  0.4380 -0.7759  0.2521
  128OSM    H8G13779   6.499   5.668   7.299  1.4289  0.2751 -2.5552
  128OSM    C9F13780   6.533   5.470   7.389  0.1993 -0.2874  0.3686
  128OSM    H9F13781   6.553   5.364   7.365  1.1395 -0.6509  2.4679
  128OSM   C10F13782   6.547   5.499   7.520  0.4116  0.4501  0.1480
  128OSM   H10F13783   6.599   5.422   7.579  0.7886  1.6569  1.4679
  128OSM   C11F13784   6.525   5.631   7.585  0.1897 -0.4260 -0.2811
  128OSM   H11F13785   6.461   5.693   7.519 -1.1066  0.2558  1.5362
  128OSM   H11G13786   6.618   5.681   7.621 -1.4384  0.7085  2.7772
  128OSM   C12F13787   6.441   5.616   7.716 -0.0626 -0.5272 -0.3183
  128OSM   H12F13788   6.351   5.552   7.700  0.2297 -0.7150 -1.2222
  128OSM   H12G13789   6.417   5.718   7.755  2.7711  0.6244 -1.3716
  128OSM   C13F13790   6.531   5.552   7.826  0.6217 -0.4550  0.4188
  128OSM   H13F13791   6.617   5.614   7.858  0.3257 -0.1927  0.7143
  128OSM   H13G13792   6.563   5.449   7.800  0.0188 -0.8679  1.2657
  128OSM   C14F13793   6.444   5.527   7.944 -0.4581 -0.2217 -0.3076
  128OSM   H14F13794   6.350   5.472   7.920 -1.8200  2.4304 -1.4122
  128OSM   H14G13795   6.413   5.623   7.990  0.7538  0.3819 -0.7049
  128OSM   C15F13796   6.507   5.440   8.065  0.4220 -0.3072 -0.1130
  128OSM   H15F13797   6.609   5.476   8.090 -1.0205  1.6983  3.7087
  128OSM   H15G13798   6.516   5.337   8.025  1.5674  0.2378 -1.3258
  128OSM   C16F13799   6.434   5.435   8.196 -0.3042  0.0460  0.4146
  128OSM   H16F13800   6.340   5.379   8.178  0.1287 -0.5319 -0.0992
  128OSM   H16G13801   6.415   5.534   8.242  1.0690  1.0654 -1.1146
  128OSM   C17F13802   6.520   5.359   8.291 -0.0781  0.2009  0.6064
  128OSM   H17F13803   6.621   5.404   8.296  0.1561 -0.4488  3.6626
  128OSM   H17G13804   6.541   5.263   8.239 -0.8680  0.6475 -0.5536
  128OSM   C18F13805   6.473   5.333   8.433 -0.3096  0.0135 -0.4988
  128OSM   H18F13806   6.539   5.276   8.501  0.6553  1.1414 -0.4513
  128OSM   H18G13807   6.379   5.274   8.438 -1.1254  1.2404 -0.9130
  128OSM   H18H13808   6.438   5.423   8.488 -0.6755  0.5375 -1.5603
  129OSM      N13809   4.311   2.993   5.768 -0.3355  0.3054 -0.2229
  129OSM    C1513810   4.396   3.040   5.654  0.8555 -0.0304 -0.0864
  129OSM   H15A13811   4.379   3.146   5.638 -1.1396 -0.3017 -0.0691
  129OSM   H15B13812   4.367   2.994   5.560 -0.3660 -0.4131  0.4527
  129OSM   H15C13813   4.499   3.011   5.668  1.2416  0.7532 -1.1349
  129OSM    C1413814   4.174   3.054   5.755  0.2900 -0.4371  0.6748
  129OSM   H14A13815   4.136   3.027   5.658  0.4783 -0.7053  0.6747
  129OSM   H14B13816   4.181   3.161   5.763  3.0895 -0.3882 -1.1174
  129OSM   H14C13817   4.100   3.008   5.819  1.6877 -3.6522  0.1738
  129OSM    C1313818   4.293   2.847   5.765 -0.2170 -0.6938  0.8729
  129OSM   H13A13819   4.236   2.815   5.851 -1.0544  0.6467  0.8519
  129OSM   H13B13820   4.385   2.790   5.767 -0.4183 -1.1930 -1.4386
  129OSM   H13C13821   4.242   2.812   5.676  1.7549  1.5425 -1.2796
  129OSM    C1213822   4.363   3.031   5.912 -0.3762 -0.2996  0.2808
  129OSM   H12A13823   4.292   3.000   5.987  0.0206 -1.8409  0.0656
  129OSM   H12B13824   4.376   3.136   5.931  0.6055 -0.5782  1.2183
  129OSM    C1113825   4.505   2.973   5.951 -0.3163 -0.1192  0.6062
  129OSM   H11A13826   4.552   3.035   6.031 -0.3938 -0.9387  1.3040
  129OSM   H11B13827   4.564   2.984   5.858 -0.1838 -1.8463  0.4526
  129OSM      P13828   4.416   2.783   6.115 -0.1488  0.4573  0.0658
  129OSM    O1313829   4.271   2.759   6.076  0.0900 -0.5293 -0.7170
  129OSM    O1413830   4.494   2.670   6.169  0.4517  0.2844  0.4690
  129OSM    O1113831   4.424   2.915   6.205  0.1190  0.1293  0.3280
  129OSM    O1213832   4.499   2.838   5.994  0.4029 -0.4803  0.2498
  129OSM    C1S13833   4.370   2.918   6.337 -0.2580 -0.1055 -0.5000
  129OSM    H1S13834   4.390   2.817   6.379  0.5540  0.0970 -0.3751
  129OSM    H1T13835   4.265   2.953   6.345  0.1783  0.7999  2.0917
  129OSM     NF13836   4.401   3.009   6.561  0.9098  0.5567 -0.0700
  129OSM    HNF13837   4.348   3.081   6.606  0.3557 -1.7559  3.3586
  129OSM    C2S13838   4.455   3.017   6.427 -0.5444  0.1219 -0.4517
  129OSM    H2S13839   4.560   2.982   6.418 -0.7102 -0.1421 -1.5755
  129OSM    C3S13840   4.450   3.159   6.371 -0.0704 -0.2317  0.4969
  129OSM    H3S13841   4.343   3.187   6.359  0.1737  0.3807 -0.2833
  129OSM     O313842   4.521   3.174   6.246  1.2791  0.3462  0.3186
  129OSM    HO313843   4.514   3.090   6.201  0.9611  0.8239 -0.5299
  129OSM    C4S13844   4.494   3.254   6.485  0.2711  0.2899 -0.3739
  129OSM    H4S13845   4.414   3.317   6.527 -0.0908 -0.2552 -0.2389
  129OSM    C5S13846   4.618   3.257   6.538 -0.0005  0.9189 -0.3407
  129OSM    H5S13847   4.692   3.182   6.508 -0.2325  0.4740  0.1826
  129OSM    C6S13848   4.661   3.343   6.655  0.3429  0.1821  0.4644
  129OSM    H6S13849   4.612   3.442   6.669  2.7029  1.7797 -1.6002
  129OSM    H6T13850   4.769   3.367   6.649  0.0388  1.4140 -0.5255
  129OSM    C7S13851   4.657   3.249   6.776  0.6082  1.1704 -0.4162
  129OSM    H7S13852   4.553   3.218   6.803  1.7706 -3.1445 -0.2156
  129OSM    H7T13853   4.689   3.300   6.869 -0.5318 -1.2462  1.4346
  129OSM    C8S13854   4.746   3.119   6.761  0.1860 -0.1745  0.3832
  129OSM    H8S13855   4.841   3.149   6.711 -0.3248 -0.8521 -1.0391
  129OSM    H8T13856   4.696   3.047   6.693  0.4316 -0.9088  0.9770
  129OSM    C9S13857   4.781   3.059   6.898  0.2907  0.1270  0.1774
  129OSM    H9S13858   4.828   3.143   6.954  2.4562  0.5407 -2.0600
  129OSM    H9T13859   4.863   2.986   6.882  1.2247  1.6764 -2.8392
  129OSM   C10S13860   4.666   3.003   6.977  0.3834 -0.8911  0.1431
  129OSM   H10S13861   4.616   2.919   6.924  1.1598 -0.2987 -1.6078
  129OSM   H10T13862   4.596   3.087   6.995 -0.5268 -1.3816 -1.0014
  129OSM   C11S13863   4.711   2.946   7.116  0.0337 -0.4229  0.1525
  129OSM   H11S13864   4.740   3.028   7.185 -2.2336  0.9073 -0.3580
  129OSM   H11T13865   4.802   2.885   7.101  0.4517  0.4865 -1.1943
  129OSM   C12S13866   4.602   2.863   7.194  0.6980  0.0297 -0.5913
  129OSM   H12S13867   4.552   2.793   7.124 -0.8903 -1.3598  1.7726
  129OSM   H12T13868   4.519   2.932   7.224  0.0430 -0.2030 -1.8129
  129OSM   C13S13869   4.649   2.797   7.325  0.0549 -0.9012 -0.1699
  129OSM   H13S13870   4.737   2.733   7.302  0.9872  0.1735  0.3315
  129OSM   H13T13871   4.567   2.728   7.356 -1.3258  0.6543 -0.2263
  129OSM   C14S13872   4.687   2.893   7.442 -0.2961  0.6284  0.4872
  129OSM   H14S13873   4.631   2.988   7.435  1.4140  1.5443 -3.4436
  129OSM   H14T13874   4.796   2.912   7.429 -0.3461  0.2006 -0.6202
  129OSM   C15S13875   4.676   2.830   7.583 -0.2724 -0.5620  0.9700
  129OSM   H15S13876   4.771   2.777   7.603  0.1743  0.1781  0.8294
  129OSM   H15T13877   4.597   2.751   7.588  0.8241 -1.6351  1.9396
  129OSM   C16S13878   4.655   2.950   7.684  0.4937 -0.7143 -0.0656
  129OSM   H16S13879   4.556   3.000   7.681  1.0203  0.4390  0.7917
  129OSM   H16T13880   4.722   3.039   7.672 -2.2925  1.6848  0.9174
  129OSM   C17S13881   4.670   2.911   7.830 -0.5074 -0.2055 -0.2115
  129OSM   H17S13882   4.745   2.831   7.846 -0.9046 -0.4788  0.2974
  129OSM   H17T13883   4.577   2.853   7.848  0.1222 -1.5626 -1.1642
  129OSM   C18S13884   4.689   3.019   7.927 -0.1110 -0.1504 -0.4938
  129OSM   H18S13885   4.609   3.096   7.922 -0.3099 -0.3776 -0.8437
  129OSM   H18T13886   4.785   3.070   7.905 -0.1462  0.0900 -0.1042
  129OSM   H18U13887   4.700   2.985   8.032 -1.9415  2.7719  0.7825
  129OSM    C1F13888   4.422   2.903   6.639  0.0497 -0.1917  0.0533
  129OSM     OF13889   4.507   2.821   6.612  0.1666 -0.5967  0.5355
  129OSM    C2F13890   4.357   2.891   6.771 -0.3018 -0.0367  0.3799
  129OSM    H2F13891   4.247   2.897   6.767 -0.3908 -0.7214  1.4309
  129OSM    H2G13892   4.400   2.973   6.833 -1.3853  0.8088  0.0423
  129OSM    C3F13893   4.391   2.765   6.847 -0.5684  0.2906  0.6680
  129OSM    H3F13894   4.350   2.772   6.950 -0.7207 -1.5283  0.7610
  129OSM    H3G13895   4.501   2.746   6.851  0.4003  4.2807 -1.0954
  129OSM    C4F13896   4.317   2.635   6.806 -0.7791  0.2258  0.1626
  129OSM    H4F13897   4.357   2.591   6.712  0.8367  1.5540  0.1660
  129OSM    H4G13898   4.214   2.661   6.772 -1.2918  0.2582  1.6823
  129OSM    C5F13899   4.319   2.527   6.919  0.2121  0.3307  0.1384
  129OSM    H5F13900   4.422   2.523   6.961  1.0225  0.8752 -1.6962
  129OSM    H5G13901   4.311   2.425   6.876  0.8508  0.3252  0.0267
  129OSM    C6F13902   4.200   2.542   7.011 -0.0018 -0.4741 -0.0492
  129OSM    H6F13903   4.105   2.526   6.956  0.0290  0.5608 -0.4321
  129OSM    H6G13904   4.178   2.644   7.049 -2.0643 -1.0297  0.3746
  129OSM    C7F13905   4.207   2.442   7.131 -0.1515  0.1012  0.5178
  129OSM    H7F13906   4.120   2.443   7.200 -0.8091 -2.0251 -0.1838
  129OSM    H7G13907   4.290   2.484   7.192  0.0606 -1.7354  1.5863
  129OSM    C8F13908   4.241   2.300   7.077 -0.2339 -0.0395 -0.0013
  129OSM    H8F13909   4.351   2.294   7.064  0.1848  1.5158  2.2607
  129OSM    H8G13910   4.207   2.286   6.972  0.9189 -0.6522 -0.3083
  129OSM    C9F13911   4.190   2.195   7.173 -0.2136  0.4696 -0.1675
  129OSM    H9F13912   4.085   2.162   7.181 -0.0634  0.4062  3.1014
  129OSM   C10F13913   4.266   2.139   7.276 -0.3073 -0.8387 -0.6583
  129OSM   H10F13914   4.218   2.057   7.332 -0.7125  0.4805  1.0021
  129OSM   C11F13915   4.411   2.167   7.295  0.3239 -0.0840 -0.0714
  129OSM   H11F13916   4.452   2.250   7.232  1.1137 -1.6154 -1.6678
  129OSM   H11G13917   4.473   2.082   7.259  1.1326  1.0371 -1.4492
  129OSM   C12F13918   4.452   2.197   7.433 -0.0454  1.1151 -0.2029
  129OSM   H12F13919   4.391   2.267   7.495  0.4848  1.5324 -0.1484
  129OSM   H12G13920   4.555   2.237   7.436  0.2055  0.5036  2.6105
  129OSM   C13F13921   4.469   2.067   7.522 -0.4124 -0.1164 -0.6966
  129OSM   H13F13922   4.532   1.993   7.469 -0.7622  0.3786 -1.8196
  129OSM   H13G13923   4.374   2.011   7.533 -1.1826  1.1806 -0.4740
  129OSM   C14F13924   4.536   2.100   7.664 -0.0874 -0.5690  0.3481
  129OSM   H14F13925   4.479   2.167   7.732  1.8018  0.6783  0.7795
  129OSM   H14G13926   4.624   2.163   7.638  0.6187 -1.5944  0.1745
  129OSM   C15F13927   4.581   1.980   7.746  0.4369  0.8155  0.4394
  129OSM   H15F13928   4.619   1.905   7.674  1.2863  1.4075  0.2522
  129OSM   H15G13929   4.497   1.925   7.793 -2.0130  2.7906 -1.4054
  129OSM   C16F13930   4.682   2.019   7.861 -0.1338  0.9449 -0.3441
  129OSM   H16F13931   4.626   2.090   7.926 -2.1298 -1.7850  1.1503
  129OSM   H16G13932   4.770   2.068   7.815  1.7570 -0.1425  1.8818
  129OSM   C17F13933   4.730   1.895   7.933  0.4893  0.1022  0.0287
  129OSM   H17F13934   4.764   1.816   7.861 -0.2207  0.3735 -0.6099
  129OSM   H17G13935   4.646   1.853   7.991  0.6490 -1.6340 -0.9181
  129OSM   C18F13936   4.840   1.934   8.036 -0.0109  0.5099  0.1528
  129OSM   H18F13937   4.941   1.946   7.991  0.0309 -2.7389 -0.9175
  129OSM   H18G13938   4.855   1.860   8.118 -0.3875  1.1139  0.7815
  129OSM   H18H13939   4.809   2.034   8.072 -1.4935  0.4848 -0.9806
  130OSM      N13940   0.834   5.119   6.019  0.3776  0.4359  0.1866
  130OSM    C1513941   0.735   5.024   5.959 -0.3716  0.1101  0.1261
  130OSM   H15A13942   0.666   5.078   5.896 -0.8687 -1.5343 -0.7888
  130OSM   H15B13943   0.662   4.981   6.026 -0.5351  0.4955  0.1994
  130OSM   H15C13944   0.776   4.937   5.910 -1.1518 -1.4105  2.0296
  130OSM    C1413945   0.919   5.050   6.119  0.1284 -0.7104  0.6382
  130OSM   H14A13946   0.970   4.962   6.083  1.5484  0.1054  0.5930
  130OSM   H14B13947   0.862   5.015   6.204  1.4079  0.3331  1.9679
  130OSM   H14C13948   0.987   5.128   6.150  0.3195 -1.0808  1.1713
  130OSM    C1313949   0.925   5.167   5.912  0.5127 -0.7386  0.4345
  130OSM   H13A13950   1.000   5.229   5.957 -2.1679  0.1502  4.1611
  130OSM   H13B13951   0.867   5.211   5.832 -1.7519 -1.6347  1.5077
  130OSM   H13C13952   0.971   5.090   5.851  2.5570  1.3885 -0.9029
  130OSM    C1213953   0.763   5.235   6.096 -0.4037  0.0121 -0.3958
  130OSM   H12A13954   0.827   5.290   6.164 -0.9685 -0.0991  0.2292
  130OSM   H12B13955   0.692   5.196   6.166  0.5565 -0.3470  0.4010
  130OSM    C1113956   0.693   5.342   6.016 -0.0242  0.2219  0.4936
  130OSM   H11A13957   0.765   5.373   5.938 -0.5782  0.6547  0.1490
  130OSM   H11B13958   0.674   5.432   6.079  0.4946 -0.0737  1.0733
  130OSM      P13959   0.431   5.294   6.004  0.2292 -0.1092 -0.5614
  130OSM    O1313960   0.398   5.435   6.040 -0.2526  0.4704 -0.1990
  130OSM    O1413961   0.352   5.220   5.904  0.7292  0.6448 -0.3158
  130OSM    O1113962   0.442   5.207   6.134 -0.1327 -0.3452  0.4240
  130OSM    O1213963   0.574   5.298   5.952  0.2489  0.2571 -0.5896
  130OSM    C1S13964   0.422   5.262   6.261 -0.6167  0.0526 -0.1483
  130OSM    H1S13965   0.324   5.316   6.261  0.4010  1.9982 -0.6158
  130OSM    H1T13966   0.497   5.343   6.277 -2.0532  1.1646  1.3005
  130OSM     NF13967   0.426   5.251   6.503  0.2981  0.3472 -0.5880
  130OSM    HNF13968   0.512   5.264   6.551 -1.0026  1.4683  1.5907
  130OSM    C2S13969   0.431   5.165   6.380 -0.3453  0.5268 -0.1644
  130OSM    H2S13970   0.343   5.097   6.391  0.1742  0.0543  1.4614
  130OSM    C3S13971   0.563   5.082   6.365  0.3805  0.5912 -0.2717
  130OSM    H3S13972   0.650   5.146   6.340  1.6364 -1.3691 -1.1458
  130OSM     O313973   0.563   4.990   6.252 -0.1775 -0.4970  0.2397
  130OSM    HO313974   0.496   5.019   6.190  1.2705  0.2526 -1.0445
  130OSM    C4S13975   0.588   5.006   6.494  0.1060  0.0693  0.3598
  130OSM    H4S13976   0.662   5.053   6.561  1.9760 -0.2889 -1.3734
  130OSM    C5S13977   0.538   4.891   6.540 -0.0474 -0.0565  0.4363
  130OSM    H5S13978   0.471   4.835   6.472  1.1137 -2.5467  1.2426
  130OSM    C6S13979   0.569   4.833   6.676  0.4064 -0.4919  1.0334
  130OSM    H6S13980   0.593   4.725   6.672 -2.1541 -1.0994  0.0514
  130OSM    H6T13981   0.470   4.824   6.726  1.2782 -0.2780  2.8703
  130OSM    C7S13982   0.657   4.907   6.775  0.1384  0.5645  0.6824
  130OSM    H7S13983   0.601   5.002   6.790  0.9713  1.6779 -2.5772
  130OSM    H7T13984   0.763   4.928   6.748  0.8536 -1.3148  1.8011
  130OSM    C8S13985   0.651   4.841   6.917 -0.5255  0.3983 -0.3683
  130OSM    H8S13986   0.683   4.738   6.893 -0.2346  0.1921  0.8487
  130OSM    H8T13987   0.549   4.836   6.961 -0.9825 -0.0939 -1.4517
  130OSM    C9S13988   0.746   4.904   7.010 -0.5352  0.7038 -0.4403
  130OSM    H9S13989   0.766   5.009   6.979  0.6488  0.5998 -0.0833
  130OSM    H9T13990   0.843   4.851   7.002 -0.1240  0.9654  2.2108
  130OSM   C10S13991   0.706   4.889   7.163 -0.5913  0.3952 -0.3400
  130OSM   H10S13992   0.711   4.780   7.183 -1.1639  0.7914  2.3418
  130OSM   H10T13993   0.610   4.941   7.180  0.5533  2.2697  0.8484
  130OSM   C11S13994   0.814   4.943   7.257  0.3851  0.1103 -0.4620
  130OSM   H11S13995   0.822   5.052   7.235 -0.3650  0.0410 -1.1621
  130OSM   H11T13996   0.911   4.894   7.233 -0.8063 -2.5478 -0.2334
  130OSM   C12S13997   0.770   4.919   7.403 -0.1252 -0.9267 -0.7035
  130OSM   H12S13998   0.793   4.813   7.425 -0.7632 -0.7526  0.9621
  130OSM   H12T13999   0.664   4.948   7.414  0.8161  3.1342 -0.7518
  130OSM   C13S14000   0.847   5.001   7.509  0.1162  0.5142  0.3296
  130OSM   H13S14001   0.852   5.111   7.498  2.4773  0.3076 -1.4987
  130OSM   H13T14002   0.954   4.972   7.504  0.0216  0.1737  0.2521
  130OSM   C14S14003   0.794   4.972   7.657 -0.2271 -0.1519  0.4443
  130OSM   H14S14004   0.686   4.998   7.659 -0.4579 -1.0943  0.5243
  130OSM   H14T14005   0.853   5.022   7.737  3.1541 -1.6228 -0.9628
  130OSM   C15S14006   0.806   4.828   7.689  0.0439 -0.1607  0.2592
  130OSM   H15S14007   0.907   4.794   7.658 -0.6184 -1.0092 -1.0495
  130OSM   H15T14008   0.726   4.773   7.634  1.6136 -2.7993  0.4715
  130OSM   C16S14009   0.805   4.791   7.837 -0.5134 -0.6319 -0.2523
  130OSM   H16S14010   0.891   4.846   7.882 -0.5834 -0.2694 -0.5530
  130OSM   H16T14011   0.843   4.688   7.854  2.8535  0.6410  0.8612
  130OSM   C17S14012   0.673   4.814   7.912 -0.7133 -0.2628  0.2116
  130OSM   H17S14013   0.603   4.731   7.892 -2.4222  0.8985  1.0849
  130OSM   H17T14014   0.626   4.908   7.875 -0.3383  0.4112  1.3792
  130OSM   C18S14015   0.703   4.820   8.057  0.0136  0.4232 -0.0594
  130OSM   H18S14016   0.625   4.794   8.132  0.4008  0.7565  0.4717
  130OSM   H18T14017   0.736   4.924   8.079  1.6001  0.0486 -0.5529
  130OSM   H18U14018   0.793   4.757   8.076 -1.6680 -2.2434 -0.3827
  130OSM    C1F14019   0.319   5.312   6.557 -0.2025  0.4695  0.8596
  130OSM     OF14020   0.205   5.264   6.527 -0.4357  0.0315 -0.2082
  130OSM    C2F14021   0.340   5.417   6.668  1.1201  0.3041  0.1891
  130OSM    H2F14022   0.403   5.500   6.629  2.7370 -0.9354  0.0525
  130OSM    H2G14023   0.396   5.373   6.753  0.3976 -0.0283  0.4945
  130OSM    C3F14024   0.200   5.458   6.720  0.5828 -0.7312 -0.3264
  130OSM    H3F14025   0.148   5.370   6.764 -0.8227 -0.6409 -1.7385
  130OSM    H3G14026   0.128   5.484   6.640  0.4239  0.9888  0.3260
  130OSM    C4F14027   0.210   5.576   6.810  0.7750 -0.3396  0.4162
  130OSM    H4F14028   0.106   5.609   6.830 -0.0781 -3.0791  0.8388
  130OSM    H4G14029   0.285   5.652   6.777 -0.0573  0.5124  0.4430
  130OSM    C5F14030   0.268   5.542   6.951 -0.2519 -0.0104  0.4692
  130OSM    H5F14031   0.369   5.497   6.939 -0.4260  0.0317 -1.3834
  130OSM    H5G14032   0.201   5.465   6.993  0.1416 -0.9483 -0.5843
  130OSM    C6F14033   0.286   5.658   7.038 -0.3380 -0.4873  0.6181
  130OSM    H6F14034   0.188   5.709   7.054 -0.5318 -0.2719 -1.0691
  130OSM    H6G14035   0.362   5.725   6.994 -1.0065 -0.3873 -0.4247
  130OSM    C7F14036   0.354   5.625   7.177  0.1248  0.1603  0.7681
  130OSM    H7F14037   0.358   5.709   7.250  3.2178 -0.9878  2.0657
  130OSM    H7G14038   0.461   5.598   7.164  0.6542  2.3268  0.2253
  130OSM    C8F14039   0.294   5.501   7.249 -0.0648 -0.1376 -0.2714
  130OSM    H8F14040   0.362   5.475   7.332  0.7520 -0.1207 -0.9278
  130OSM    H8G14041   0.299   5.406   7.191  0.3240  0.5097 -1.3187
  130OSM    C9F14042   0.159   5.546   7.291  0.0442 -0.3479  1.0733
  130OSM    H9F14043   0.089   5.570   7.210  1.6535  0.6399 -0.0805
  130OSM   C10F14044   0.119   5.566   7.413  0.0683 -0.0359 -0.1111
  130OSM   H10F14045   0.014   5.592   7.434 -0.0851  0.2952 -1.2332
  130OSM   C11F14046   0.194   5.530   7.541 -0.1891  0.2942 -0.0254
  130OSM   H11F14047   0.266   5.608   7.575  1.2649 -0.0890 -1.9947
  130OSM   H11G14048   0.259   5.443   7.515 -1.1978 -0.6008  0.4008
  130OSM   C12F14049   0.094   5.486   7.656 -0.8187  0.0951 -0.0502
  130OSM   H12F14050   0.063   5.384   7.624  1.1780 -0.1822 -1.3120
  130OSM   H12G14051   0.006   5.553   7.659 -1.1039 -0.2764  2.2896
  130OSM   C13F14052   0.159   5.471   7.794 -0.0353 -0.1055  0.0357
  130OSM   H13F14053   0.203   5.569   7.824 -0.8838  0.1551  0.4457
  130OSM   H13G14054   0.235   5.394   7.768 -1.5723 -1.1036 -1.7637
  130OSM   C14F14055   0.060   5.415   7.894 -0.3796 -0.0828 -0.2732
  130OSM   H14F14056  -0.027   5.364   7.848 -0.1564 -0.1145 -0.6646
  130OSM   H14G14057   0.033   5.503   7.956  0.0895  0.7699 -1.2364
  130OSM   C15F14058   0.122   5.297   7.975  0.0747 -0.9894  0.1210
  130OSM   H15F14059   0.226   5.320   8.006  0.8570 -1.6062 -1.8540
  130OSM   H15G14060   0.134   5.213   7.902 -0.8169 -0.1921 -0.9759
  130OSM   C16F14061   0.028   5.259   8.087 -0.3266  0.3643 -0.2878
  130OSM   H16F14062  -0.071   5.224   8.051 -0.1868 -1.3490  0.8521
  130OSM   H16G14063   0.008   5.347   8.151 -0.6692 -0.3980  0.6781
  130OSM   C17F14064   0.093   5.157   8.180 -0.7639 -0.2161 -0.8048
  130OSM   H17F14065   0.194   5.195   8.208 -0.5559 -1.2593 -0.0774
  130OSM   H17G14066   0.098   5.067   8.114 -0.8901 -0.7387 -0.1147
  130OSM   C18F14067   0.016   5.117   8.302 -0.1939  0.3948 -0.2247
  130OSM   H18F14068  -0.082   5.078   8.267 -0.1263 -0.5094  0.5803
  130OSM   H18G14069   0.010   5.206   8.368  0.7335  1.0875 -1.0254
  130OSM   H18H14070   0.065   5.033   8.355 -1.7356 -0.0120  0.6104
  131OSM      N14071   4.170   1.031   6.003 -0.5513  0.2313 -0.1750
  131OSM    C1514072   4.097   1.152   6.057  0.2523  0.6256 -0.3133
  131OSM   H15A14073   4.053   1.128   6.153  1.0430  2.4508  0.5621
  131OSM   H15B14074   4.017   1.184   5.992  0.8628  0.2733 -1.2448
  131OSM   H15C14075   4.159   1.240   6.066 -1.8204  2.1007  0.4371
  131OSM    C1414076   4.229   1.063   5.868 -0.0366  0.4320 -0.3358
  131OSM   H14A14077   4.275   1.160   5.870  2.6135 -0.7038  3.2164
  131OSM   H14B14078   4.154   1.063   5.789  0.4827 -0.6221 -0.8593
  131OSM   H14C14079   4.309   0.996   5.838  2.8141  4.2846 -2.1640
  131OSM    C1314080   4.287   1.025   6.098  0.6838  1.1227 -0.2179
  131OSM   H13A14081   4.247   1.022   6.199 -0.2600 -1.0480 -0.6050
  131OSM   H13B14082   4.359   1.106   6.091  1.4802  0.3665 -1.0521
  131OSM   H13C14083   4.347   0.936   6.089  0.3268  0.7670  0.8137
  131OSM    C1214084   4.097   0.900   6.001  0.2442  0.2759 -0.8266
  131OSM   H12A14085   4.068   0.877   6.102 -2.4407  0.4199 -1.4978
  131OSM   H12B14086   4.161   0.824   5.957  2.6778  1.5438  0.3445
  131OSM    C1114087   3.962   0.891   5.921 -0.2792 -0.0637 -0.1917
  131OSM   H11A14088   3.923   0.788   5.937  0.4770 -0.2466  0.5349
  131OSM   H11B14089   3.979   0.903   5.812  0.6299  0.0677 -0.0406
  131OSM      P14090   3.726   0.955   6.002 -0.4498 -0.0964 -0.4632
  131OSM    O1314091   3.646   1.080   5.998  0.2919  0.0456  0.0148
  131OSM    O1414092   3.682   0.835   5.925 -0.0571  0.1118 -0.0981
  131OSM    O1114093   3.735   0.921   6.155 -0.3086 -0.0035  0.2641
  131OSM    O1214094   3.874   0.991   5.968  0.3730 -0.7486 -0.1915
  131OSM    C1S14095   3.764   1.013   6.266  0.2306  0.3121  0.8258
  131OSM    H1S14096   3.680   1.084   6.279 -0.2323  0.0340 -0.4342
  131OSM    H1T14097   3.851   1.077   6.241 -0.0547  2.0402  3.8016
  131OSM     NF14098   3.787   1.029   6.506  0.2199  0.0329 -1.3065
  131OSM    HNF14099   3.869   1.081   6.528 -0.7023  1.4445 -1.0616
  131OSM    C2S14100   3.799   0.938   6.393 -0.4501 -0.0967 -0.7018
  131OSM    H2S14101   3.720   0.860   6.402 -0.0728 -0.4783 -0.6573
  131OSM    C3S14102   3.928   0.857   6.375  0.2353 -0.1237 -0.5886
  131OSM    H3S14103   4.012   0.929   6.387  0.6453 -1.0054  3.1890
  131OSM     O314104   3.933   0.785   6.258 -0.2127 -0.4172  0.1814
  131OSM    HO314105   3.844   0.806   6.228 -0.4182  1.8064  2.1014
  131OSM    C4S14106   3.963   0.764   6.500  0.5367 -0.0213  0.1626
  131OSM    H4S14107   4.009   0.815   6.586  2.2803  0.0168 -0.7611
  131OSM    C5S14108   3.963   0.626   6.503  0.3774  0.6227 -0.6032
  131OSM    H5S14109   3.931   0.564   6.418 -1.9387 -2.3039  2.1255
  131OSM    C6S14110   3.987   0.535   6.620  0.0090 -0.0010  0.0494
  131OSM    H6S14111   4.043   0.453   6.570 -0.7679 -0.0637 -0.7507
  131OSM    H6T14112   3.887   0.490   6.640  0.3296 -0.3529  0.9438
  131OSM    C7S14113   4.046   0.586   6.752  0.3958 -0.1253 -0.5646
  131OSM    H7S14114   4.018   0.694   6.757 -0.2170 -0.3050  0.4172
  131OSM    H7T14115   4.155   0.575   6.764  0.6647  1.7433 -0.9533
  131OSM    C8S14116   3.979   0.520   6.870  0.4124 -0.0047  0.8282
  131OSM    H8S14117   3.876   0.488   6.845  0.8967  0.0415 -1.4827
  131OSM    H8T14118   3.966   0.591   6.955 -2.2765  1.0081 -0.3108
  131OSM    C9S14119   4.058   0.396   6.918  0.0125  0.3953  0.2466
  131OSM    H9S14120   4.167   0.416   6.903 -0.3154  1.0575 -1.5133
  131OSM    H9T14121   4.043   0.312   6.847  0.7602  0.0452  0.4959
  131OSM   C10S14122   4.029   0.353   7.066  0.6696  0.1046 -0.3789
  131OSM   H10S14123   3.923   0.321   7.077  0.7213  0.3477  1.0234
  131OSM   H10T14124   4.042   0.450   7.119 -1.5435 -0.3942  1.2197
  131OSM   C11S14125   4.142   0.264   7.113  0.7477  0.5102 -1.2790
  131OSM   H11S14126   4.244   0.295   7.084  1.2013  0.1458 -0.1392
  131OSM   H11T14127   4.123   0.164   7.068 -0.6114 -1.1725  2.5862
  131OSM   C12S14128   4.133   0.227   7.260 -0.3505  0.6737 -0.2850
  131OSM   H12S14129   4.038   0.173   7.281  1.4329 -3.0564 -0.9866
  131OSM   H12T14130   4.136   0.322   7.318  1.2942  0.7726 -0.4977
  131OSM   C13S14131   4.244   0.131   7.312 -0.3687  0.1156 -0.3043
  131OSM   H13S14132   4.338   0.187   7.328  0.0887 -0.5313 -0.6703
  131OSM   H13T14133   4.271   0.049   7.242 -1.0661 -0.2078 -0.1994
  131OSM   C14S14134   4.210   0.059   7.445  0.0587 -0.0225  0.3126
  131OSM   H14S14135   4.273  -0.031   7.460 -2.9392 -2.2568  0.5446
  131OSM   H14T14136   4.103   0.029   7.435 -0.1270  0.5159  0.6426
  131OSM   C15S14137   4.212   0.146   7.574 -0.8732 -0.6853  0.0159
  131OSM   H15S14138   4.148   0.234   7.551 -2.0222 -1.1896  1.1795
  131OSM   H15T14139   4.318   0.172   7.597 -1.2537 -0.6342  1.8609
  131OSM   C16S14140   4.135   0.091   7.695  0.1801 -0.5084 -0.1414
  131OSM   H16S14141   4.183   0.007   7.750 -0.2991 -0.8119 -0.1792
  131OSM   H16T14142   4.038   0.052   7.658  0.0402 -1.5539  1.2276
  131OSM   C17S14143   4.128   0.202   7.802 -0.2165 -1.1898 -0.4562
  131OSM   H17S14144   4.055   0.170   7.880 -1.1802  0.3379 -0.6850
  131OSM   H17T14145   4.091   0.295   7.753  2.1230  1.3362  2.1405
  131OSM   C18S14146   4.258   0.244   7.864 -0.7698 -0.0010 -0.0851
  131OSM   H18S14147   4.228   0.325   7.934 -0.8269 -1.9290  2.2485
  131OSM   H18T14148   4.330   0.283   7.789 -1.6316  1.1469 -0.3468
  131OSM   H18U14149   4.308   0.163   7.920  0.6701  0.1448 -1.1107
  131OSM    C1F14150   3.671   1.068   6.554  0.2214  0.5154  0.3482
  131OSM     OF14151   3.563   1.037   6.497 -0.4655  0.1125  0.0632
  131OSM    C2F14152   3.677   1.158   6.672 -0.7041  0.0442 -0.2564
  131OSM    H2F14153   3.632   1.100   6.755 -1.0051  0.3219 -0.2252
  131OSM    H2G14154   3.611   1.243   6.643 -0.7381 -0.1311 -0.6897
  131OSM    C3F14155   3.815   1.202   6.740  0.0108 -0.4079  0.1730
  131OSM    H3F14156   3.872   1.270   6.672 -1.2775  1.6971  1.1005
  131OSM    H3G14157   3.873   1.109   6.754  0.4492  0.1521  2.5025
  131OSM    C4F14158   3.792   1.262   6.877 -0.0381 -0.1678 -0.4811
  131OSM    H4F14159   3.724   1.188   6.926  0.1481 -0.7389 -1.0722
  131OSM    H4G14160   3.743   1.361   6.869  1.0954  0.5093  0.5610
  131OSM    C5F14161   3.919   1.281   6.959  0.2945 -0.1796  0.2477
  131OSM    H5F14162   3.971   1.340   6.881 -0.8505  1.5177  0.6928
  131OSM    H5G14163   3.966   1.183   6.982 -0.2570 -0.5020  0.0145
  131OSM    C6F14164   3.895   1.361   7.089  0.7525  0.0631 -0.6450
  131OSM    H6F14165   3.821   1.442   7.073 -1.9254 -2.1254 -0.1771
  131OSM    H6G14166   3.990   1.410   7.117  1.6278 -1.9649  0.0884
  131OSM    C7F14167   3.851   1.286   7.205  0.2580  0.3235  0.6319
  131OSM    H7F14168   3.765   1.220   7.182  0.8087  0.4169 -1.9338
  131OSM    H7G14169   3.820   1.355   7.287 -0.4589 -1.2180  1.7053
  131OSM    C8F14170   3.953   1.180   7.264  0.2328 -0.2536 -0.7389
  131OSM    H8F14171   3.979   1.089   7.205 -1.4769 -1.2320 -0.0435
  131OSM    H8G14172   3.902   1.144   7.355 -0.4855 -1.0628 -1.4396
  131OSM    C9F14173   4.076   1.255   7.300  0.7531  0.2055 -0.5091
  131OSM    H9F14174   4.095   1.353   7.254 -0.7610  0.6794 -0.1587
  131OSM   C10F14175   4.166   1.217   7.396  0.3515 -0.1456  0.3998
  131OSM   H10F14176   4.252   1.277   7.429 -0.4370 -0.5530  3.4605
  131OSM   C11F14177   4.153   1.085   7.471  0.4738  0.0908 -0.5327
  131OSM   H11F14178   4.255   1.042   7.468  1.2270  1.1895  3.5541
  131OSM   H11G14179   4.083   1.020   7.414 -0.4809  0.3277  0.3408
  131OSM   C12F14180   4.114   1.085   7.618  0.2753  0.3212 -0.0569
  131OSM   H12F14181   4.081   0.983   7.645  2.5036 -0.3070  0.4682
  131OSM   H12G14182   4.019   1.141   7.634 -0.4221 -0.3776 -1.5672
  131OSM   C13F14183   4.226   1.129   7.714  0.9701 -0.2469  0.6620
  131OSM   H13F14184   4.249   1.229   7.672 -1.3673  0.1503  0.1604
  131OSM   H13G14185   4.314   1.062   7.709  0.3198 -1.0990  0.3830
  131OSM   C14F14186   4.174   1.141   7.858  0.2582 -0.1928 -0.5779
  131OSM   H14F14187   4.152   1.037   7.889  0.5375 -0.2079 -0.4302
  131OSM   H14G14188   4.079   1.199   7.858  0.5233  0.2414  0.0655
  131OSM   C15F14189   4.277   1.205   7.944  0.1327  0.6347 -0.0006
  131OSM   H15F14190   4.236   1.250   8.037  1.3001 -2.2480  2.0232
  131OSM   H15G14191   4.318   1.289   7.883 -0.6340 -0.1535 -1.6957
  131OSM   C16F14192   4.391   1.115   7.992 -0.1732 -0.6212  0.4461
  131OSM   H16F14193   4.470   1.171   8.046  0.4746  0.7977 -1.8187
  131OSM   H16G14194   4.452   1.069   7.911  1.2666 -0.1360  1.2251
  131OSM   C17F14195   4.344   1.015   8.092 -0.1232  0.2629 -0.8771
  131OSM   H17F14196   4.279   0.947   8.033  0.2707  0.0589 -1.0808
  131OSM   H17G14197   4.285   1.073   8.166  0.9993 -0.3259  0.5246
  131OSM   C18F14198   4.460   0.935   8.148  0.0966 -0.3557  0.1665
  131OSM   H18F14199   4.520   1.005   8.211 -1.9487 -0.5189  2.4640
  131OSM   H18G14200   4.523   0.892   8.067  0.2176 -0.3567  0.2598
  131OSM   H18H14201   4.432   0.849   8.213 -1.9527  0.6870  0.7393
  132OSM      N14202   0.029   3.272   6.164  0.1609 -0.3204  0.4332
  132OSM    C1514203  -0.091   3.294   6.079  0.8517 -0.2416 -0.6630
  132OSM   H15A14204  -0.071   3.369   6.003  0.9620  2.1079  1.5609
  132OSM   H15B14205  -0.177   3.329   6.135  0.6988  0.2428 -1.1846
  132OSM   H15C14206  -0.118   3.205   6.023  0.0762 -0.0093 -0.6801
  132OSM    C1414207   0.124   3.191   6.077 -0.1110 -0.2931  0.5601
  132OSM   H14A14208   0.164   3.252   5.998  0.2303 -0.3274  0.7024
  132OSM   H14B14209   0.079   3.103   6.035 -1.4169 -0.2419  1.7754
  132OSM   H14C14210   0.217   3.172   6.129  0.6916  2.3294  0.2092
  132OSM    C1314211   0.091   3.407   6.186  0.1784 -0.0444 -0.1368
  132OSM   H13A14212   0.018   3.457   6.248 -1.4121 -1.1280 -1.0731
  132OSM   H13B14213   0.086   3.463   6.094  0.2221 -0.9476 -0.6943
  132OSM   H13C14214   0.196   3.399   6.211  1.6628 -1.5019 -5.5941
  132OSM    C1214215  -0.005   3.203   6.295  0.1354  0.4086  0.0725
  132OSM   H12A14216   0.087   3.196   6.351  0.5070  1.8040 -0.3165
  132OSM   H12B14217  -0.045   3.107   6.266  1.2377  0.4159 -1.6492
  132OSM    C1114218  -0.121   3.249   6.384 -0.2344  0.1674 -0.5287
  132OSM   H11A14219  -0.117   3.359   6.398 -0.5286  0.1677 -0.4451
  132OSM   H11B14220  -0.104   3.206   6.485 -2.4555  1.3639  0.4153
  132OSM      P14221  -0.298   3.063   6.319 -0.6329  0.3085 -0.1618
  132OSM    O1314222  -0.398   3.065   6.218  0.0364  0.0746  0.8419
  132OSM    O1414223  -0.187   2.965   6.309 -0.6110  0.4743 -0.1881
  132OSM    O1114224  -0.349   3.030   6.460 -0.1444 -0.2802  0.1698
  132OSM    O1214225  -0.246   3.210   6.324  0.4244  0.8349  0.3463
  132OSM    C1S14226  -0.464   3.092   6.519  0.4707 -0.4247 -0.4178
  132OSM    H1S14227  -0.555   3.045   6.476  0.0474  0.1384 -0.1542
  132OSM    H1T14228  -0.470   3.199   6.491 -2.0538 -0.7950 -1.6198
  132OSM     NF14229  -0.577   3.160   6.714  0.4104 -0.2103 -0.4207
  132OSM    HNF14230  -0.555   3.248   6.754 -0.0794 -0.1381 -0.3073
  132OSM    C2S14231  -0.463   3.085   6.674 -0.2959 -0.1675  0.4479
  132OSM    H2S14232  -0.483   2.977   6.694 -2.1105  0.0002 -0.2953
  132OSM    C3S14233  -0.328   3.133   6.731 -0.7431 -0.1922 -0.0894
  132OSM    H3S14234  -0.314   3.243   6.722 -0.6713 -0.0298  1.6736
  132OSM     O314235  -0.207   3.074   6.682  0.1317 -0.5320 -0.0849
  132OSM    HO314236  -0.220   3.052   6.590  1.3254 -1.3685 -0.0836
  132OSM    C4S14237  -0.322   3.116   6.878  0.8031  0.4834  0.2278
  132OSM    H4S14238  -0.318   3.009   6.903 -4.6327 -0.0364 -0.0946
  132OSM    C5S14239  -0.353   3.209   6.970  0.5231  0.4044  0.3840
  132OSM    H5S14240  -0.403   3.304   6.945 -1.1100 -0.8709 -1.4401
  132OSM    C6S14241  -0.357   3.186   7.117  0.3966  0.1908 -0.1888
  132OSM    H6S14242  -0.292   3.098   7.135 -0.8798 -0.6972  0.1870
  132OSM    H6T14243  -0.462   3.172   7.149 -0.4512  1.4609 -2.2155
  132OSM    C7S14244  -0.293   3.302   7.184 -0.6844 -0.1569 -0.5574
  132OSM    H7S14245  -0.351   3.394   7.162 -0.7105  0.5012  1.9374
  132OSM    H7T14246  -0.193   3.321   7.138  0.1593 -2.0181  0.3884
  132OSM    C8S14247  -0.271   3.274   7.329 -0.0500  0.0090 -0.7808
  132OSM    H8S14248  -0.197   3.190   7.329 -1.2915 -1.3237  3.0872
  132OSM    H8T14249  -0.366   3.238   7.373  0.6434 -0.3419  0.4902
  132OSM    C9S14250  -0.214   3.403   7.392  0.7545  0.5117  0.3951
  132OSM    H9S14251  -0.250   3.495   7.341 -0.1801  0.5911  1.1547
  132OSM    H9T14252  -0.103   3.399   7.397  0.7890  1.7606  1.1115
  132OSM   C10S14253  -0.286   3.420   7.532  0.0990  0.6948  0.0081
  132OSM   H10S14254  -0.279   3.322   7.584  0.8233  0.5062 -0.4347
  132OSM   H10T14255  -0.391   3.446   7.506 -0.1589 -0.1417  0.1856
  132OSM   C11S14256  -0.233   3.532   7.617 -0.1330  0.1299 -1.3207
  132OSM   H11S14257  -0.242   3.629   7.564 -2.3406  0.8488  0.2297
  132OSM   H11T14258  -0.127   3.513   7.643  0.4475  2.0451 -2.1610
  132OSM   C12S14259  -0.303   3.546   7.754  0.1551  0.0139  1.2628
  132OSM   H12S14260  -0.255   3.626   7.815  0.2878  1.3456 -0.4867
  132OSM   H12T14261  -0.289   3.460   7.823  0.9843  0.9617  2.3105
  132OSM   C13S14262  -0.455   3.567   7.741 -0.0921 -0.7783 -0.3740
  132OSM   H13S14263  -0.494   3.482   7.681  2.9768 -1.9340 -0.9248
  132OSM   H13T14264  -0.479   3.653   7.674  1.9944 -0.9399 -1.4446
  132OSM   C14S14265  -0.511   3.574   7.882  0.2049  0.2495 -0.1831
  132OSM   H14S14266  -0.470   3.662   7.936  0.1849  0.4774 -0.5336
  132OSM   H14T14267  -0.491   3.483   7.943 -1.0517 -1.4366 -2.1661
  132OSM   C15S14268  -0.663   3.586   7.867  0.2380 -0.1420 -0.1208
  132OSM   H15S14269  -0.699   3.481   7.862  1.8189 -0.6547 -1.3109
  132OSM   H15T14270  -0.688   3.632   7.769  0.5958 -1.0435 -0.6438
  132OSM   C16S14271  -0.722   3.642   8.001 -0.1765 -0.2854 -0.4816
  132OSM   H16S14272  -0.830   3.665   7.985 -0.2795 -0.9447 -0.7849
  132OSM   H16T14273  -0.670   3.739   8.017  0.7177 -1.0119  1.2268
  132OSM   C17S14274  -0.705   3.556   8.124 -0.1109  0.2912 -0.0654
  132OSM   H17S14275  -0.596   3.541   8.137 -0.4226 -2.6706 -0.1905
  132OSM   H17T14276  -0.750   3.457   8.104 -0.7635  0.2330  1.5602
  132OSM   C18S14277  -0.760   3.622   8.254 -0.2623 -0.2744 -0.2100
  132OSM   H18S14278  -0.859   3.672   8.250  0.3655  1.1017  0.6033
  132OSM   H18T14279  -0.684   3.699   8.282  0.0643 -0.6641 -0.0210
  132OSM   H18U14280  -0.746   3.545   8.333  0.7209  0.5544  0.4434
  132OSM    C1F14281  -0.703   3.133   6.700  0.1264  0.2740 -0.5110
  132OSM     OF14282  -0.733   3.025   6.657  0.0323 -0.8035 -0.2580
  132OSM    C2F14283  -0.799   3.242   6.728 -0.2915  0.3637  0.4514
  132OSM    H2F14284  -0.828   3.295   6.635 -0.4785  0.0860  0.3469
  132OSM    H2G14285  -0.749   3.312   6.798 -0.4280  1.5456 -0.6109
  132OSM    C3F14286  -0.918   3.180   6.794  0.1007  0.3244 -0.0200
  132OSM    H3F14287  -0.970   3.099   6.738  0.7687 -0.0928 -0.0382
  132OSM    H3G14288  -0.996   3.258   6.810 -1.6892 -0.9158 -2.0999
  132OSM    C4F14289  -0.890   3.123   6.934  0.7060  0.2228  0.0699
  132OSM    H4F14290  -0.835   3.195   6.998 -1.2950  0.3015  1.8479
  132OSM    H4G14291  -0.817   3.039   6.935  0.7187  0.2279  1.1238
  132OSM    C5F14292  -1.022   3.089   7.014 -0.5389 -0.6400 -0.6689
  132OSM    H5F14293  -1.079   3.006   6.967 -1.1708  0.3541 -1.7196
  132OSM    H5G14294  -1.080   3.182   7.029  0.1634 -0.4988  1.4335
  132OSM    C6F14295  -0.997   3.060   7.162  0.6261  0.6686 -0.0588
  132OSM    H6F14296  -0.963   3.152   7.214 -1.4870  0.5343  1.7343
  132OSM    H6G14297  -0.913   2.988   7.163  0.0386 -0.0264  0.5145
  132OSM    C7F14298  -1.114   2.990   7.233 -1.0807 -0.0986 -0.3161
  132OSM    H7F14299  -1.135   2.906   7.164 -0.2492 -0.4868 -0.1070
  132OSM    H7G14300  -1.207   3.050   7.232 -2.1482 -1.6619  0.9298
  132OSM    C8F14301  -1.080   2.946   7.372 -0.0222 -0.3900 -0.2745
  132OSM    H8F14302  -1.043   3.021   7.445  2.9477 -1.9494 -0.0173
  132OSM    H8G14303  -1.001   2.869   7.360  1.1591  1.0085 -1.8116
  132OSM    C9F14304  -1.203   2.887   7.438 -0.5586 -0.1759  0.6670
  132OSM    H9F14305  -1.281   2.852   7.370  1.4771 -3.2251 -0.3400
  132OSM   C10F14306  -1.212   2.872   7.571 -0.2540 -0.8229 -0.3987
  132OSM   H10F14307  -1.304   2.819   7.600 -0.5941  0.7040  1.5415
  132OSM   C11F14308  -1.103   2.897   7.676 -0.1353 -0.5929  0.4091
  132OSM   H11F14309  -1.142   2.920   7.777  0.7953 -1.7139  1.0519
  132OSM   H11G14310  -1.050   2.988   7.641 -2.6960  0.7128 -0.3124
  132OSM   C12F14311  -1.012   2.772   7.707 -0.8238 -0.8733  0.2490
  132OSM   H12F14312  -1.077   2.682   7.704 -1.0356 -0.8033  1.8468
  132OSM   H12G14313  -0.974   2.781   7.811 -0.4284 -0.4544  0.0753
  132OSM   C13F14314  -0.895   2.744   7.613 -0.8346 -0.8296 -0.2350
  132OSM   H13F14315  -0.821   2.827   7.621  0.6398 -2.2214  1.4184
  132OSM   H13G14316  -0.926   2.736   7.507  0.5950 -0.0416 -0.7411
  132OSM   C14F14317  -0.830   2.610   7.651  0.6822 -0.7477 -0.1874
  132OSM   H14F14318  -0.910   2.533   7.647 -0.4899  0.4618 -4.0306
  132OSM   H14G14319  -0.793   2.607   7.756  0.6300  0.4409 -0.1250
  132OSM   C15F14320  -0.711   2.576   7.563 -0.5023  1.0883  0.4435
  132OSM   H15F14321  -0.648   2.667   7.575 -0.9655  1.4618  0.0744
  132OSM   H15G14322  -0.749   2.571   7.459  1.0878  1.0125 -0.1676
  132OSM   C16F14323  -0.638   2.450   7.604  0.4022  0.4202 -0.0896
  132OSM   H16F14324  -0.704   2.363   7.584  1.2513  0.0237 -1.2902
  132OSM   H16G14325  -0.606   2.444   7.711  1.5314 -0.7383 -0.4701
  132OSM   C17F14326  -0.522   2.433   7.512 -0.9171  0.5104  0.7397
  132OSM   H17F14327  -0.451   2.517   7.527 -0.6952  0.6960 -1.1116
  132OSM   H17G14328  -0.553   2.445   7.406  1.6999  0.2402 -0.1364
  132OSM   C18F14329  -0.439   2.304   7.540 -0.2379 -0.1402 -0.0401
  132OSM   H18F14330  -0.402   2.306   7.644 -0.1804  3.0113 -0.0181
  132OSM   H18G14331  -0.357   2.304   7.464 -1.9847  1.1617 -2.0362
  132OSM   H18H14332  -0.511   2.220   7.529 -1.5964  1.1827 -1.8806
  133OSM      N14333   6.646   1.068   5.923  0.8534 -0.3207 -0.0201
  133OSM    C1514334   6.508   1.014   5.950 -0.7420 -0.5583  0.2956
  133OSM   H15A14335   6.494   0.915   5.909 -1.1840 -0.4544  0.1920
  133OSM   H15B14336   6.434   1.081   5.909 -1.1155 -1.0765  0.1126
  133OSM   H15C14337   6.499   0.999   6.057 -0.1950  0.9993  0.5850
  133OSM    C1414338   6.743   0.961   5.954  0.7970 -0.1666  0.2796
  133OSM   H14A14339   6.737   0.890   5.873  2.4842  2.4871 -2.4061
  133OSM   H14B14340   6.726   0.935   6.057  2.1897 -1.0073  0.3251
  133OSM   H14C14341   6.844   0.998   5.942  1.4002 -1.7367  0.1713
  133OSM    C1314342   6.662   1.104   5.781  0.6691 -0.2851  0.2599
  133OSM   H13A14343   6.588   1.166   5.733  1.8057  1.0599  0.1778
  133OSM   H13B14344   6.640   1.019   5.717 -0.8573  0.6109 -0.4588
  133OSM   H13C14345   6.755   1.145   5.746  0.7918  0.4579  1.4200
  133OSM    C1214346   6.683   1.194   6.009  0.6888 -0.5902  0.3345
  133OSM   H12A14347   6.623   1.277   5.974 -1.5013 -1.1587  2.4421
  133OSM   H12B14348   6.784   1.228   5.991  0.4472 -0.3411 -0.6198
  133OSM    C1114349   6.671   1.189   6.173  0.1064  0.6136 -0.6803
  133OSM   H11A14350   6.707   1.288   6.208  4.0371 -0.8475 -0.0892
  133OSM   H11B14351   6.747   1.121   6.218 -0.0345  1.3502  0.7386
  133OSM      P14352   6.429   1.282   6.207  0.4487  0.2308 -0.2672
  133OSM    O1314353   6.453   1.364   6.085 -0.2704  0.1134  0.2998
  133OSM    O1414354   6.296   1.214   6.206 -0.7881 -0.2404 -0.1182
  133OSM    O1114355   6.453   1.366   6.334 -0.3627  0.3885 -0.3060
  133OSM    O1214356   6.538   1.163   6.225  0.2321 -0.6441  0.0593
  133OSM    C1S14357   6.460   1.310   6.469  0.4729  0.6777  0.3698
  133OSM    H1S14358   6.456   1.199   6.467 -2.3687  0.6862  1.0240
  133OSM    H1T14359   6.371   1.338   6.529 -0.3494  1.6407 -1.2372
  133OSM     NF14360   6.585   1.297   6.683  0.3880 -0.3553 -0.1772
  133OSM    HNF14361   6.588   1.363   6.758  2.0749 -1.7102  1.0165
  133OSM    C2S14362   6.586   1.352   6.544  0.5149  0.6104 -1.1413
  133OSM    H2S14363   6.672   1.299   6.498  0.2459 -1.6061  0.7805
  133OSM    C3S14364   6.615   1.508   6.544 -0.1263  0.1783  0.2091
  133OSM    H3S14365   6.544   1.566   6.606 -1.3681 -1.7429  0.6725
  133OSM     O314366   6.603   1.561   6.415  0.3653 -0.1857  0.1051
  133OSM    HO314367   6.560   1.488   6.369  1.5353 -1.8823  1.5424
  133OSM    C4S14368   6.755   1.542   6.591 -0.1900  0.1430 -0.4288
  133OSM    H4S14369   6.838   1.489   6.543 -2.0131 -1.4016 -2.0600
  133OSM    C5S14370   6.780   1.631   6.687 -0.2182  0.2540  0.6521
  133OSM    H5S14371   6.690   1.675   6.733 -0.8871  0.3532 -0.6939
  133OSM    C6S14372   6.922   1.668   6.722  0.5779  0.9555  0.1511
  133OSM    H6S14373   6.926   1.777   6.706  1.0531  0.7927 -0.8963
  133OSM    H6T14374   6.992   1.622   6.649  0.9339  0.0578  1.0217
  133OSM    C7S14375   6.966   1.621   6.862 -0.2111  0.1559  0.2604
  133OSM    H7S14376   6.940   1.515   6.884 -0.4950 -0.4083 -2.4247
  133OSM    H7T14377   6.905   1.674   6.938 -1.4836  0.5034 -0.9545
  133OSM    C8S14378   7.110   1.656   6.880  0.1134  0.3117 -1.2963
  133OSM    H8S14379   7.121   1.766   6.881 -0.4386  0.3659 -0.5166
  133OSM    H8T14380   7.170   1.612   6.797 -0.1410  1.1245 -1.9299
  133OSM    C9S14381   7.162   1.616   7.016 -0.0569  0.8019  0.4811
  133OSM    H9S14382   7.264   1.660   7.024  1.0640 -1.6486  0.5885
  133OSM    H9T14383   7.182   1.507   7.008 -0.0583  0.8892 -1.0793
  133OSM   C10S14384   7.077   1.647   7.138  0.0121 -0.1697 -0.1661
  133OSM   H10S14385   6.995   1.573   7.148 -0.6237  0.8225  3.7933
  133OSM   H10T14386   7.020   1.739   7.113 -2.4238 -1.2940  0.9153
  133OSM   C11S14387   7.152   1.657   7.267 -0.1967 -0.6163 -0.6775
  133OSM   H11S14388   7.222   1.743   7.257 -1.6354  0.5314 -1.2245
  133OSM   H11T14389   7.214   1.566   7.284  1.4391  0.5268 -0.1942
  133OSM   C12S14390   7.051   1.673   7.382 -1.1228  0.3397  0.0354
  133OSM   H12S14391   6.972   1.596   7.381  0.5452 -1.4799 -1.4667
  133OSM   H12T14392   7.001   1.772   7.379 -1.9638 -0.0960 -1.0926
  133OSM   C13S14393   7.115   1.678   7.517 -0.7055 -0.0896  0.7369
  133OSM   H13S14394   7.207   1.740   7.513  0.2474 -1.5014  0.4392
  133OSM   H13T14395   7.156   1.578   7.542 -2.5404 -0.3064  3.3787
  133OSM   C14S14396   7.028   1.718   7.638  0.0696  0.0600 -0.0301
  133OSM   H14S14397   6.954   1.635   7.645  0.5668 -0.3739  0.2430
  133OSM   H14T14398   6.973   1.813   7.625 -0.4473 -0.3476 -0.8544
  133OSM   C15S14399   7.117   1.727   7.766  0.4983 -0.1599  0.3376
  133OSM   H15S14400   7.197   1.800   7.740 -0.8399  0.3686 -2.8661
  133OSM   H15T14401   7.166   1.628   7.780  1.0443 -0.2455 -1.8169
  133OSM   C16S14402   7.039   1.773   7.887  0.1219 -0.0584  0.4018
  133OSM   H16S14403   6.951   1.705   7.880  0.9550 -1.0175 -3.0608
  133OSM   H16T14404   7.015   1.880   7.869 -0.1993 -0.1943 -0.0029
  133OSM   C17S14405   7.114   1.753   8.023  0.3113 -0.2026  0.1602
  133OSM   H17S14406   7.211   1.806   8.027  0.6539 -0.8664  0.8202
  133OSM   H17T14407   7.139   1.645   8.033  0.3664 -0.2056  0.0053
  133OSM   C18S14408   7.038   1.802   8.144  0.2593  0.1176  0.8326
  133OSM   H18S14409   7.070   1.774   8.246  1.3105 -1.0856  0.2021
  133OSM   H18T14410   6.930   1.773   8.138  0.4175 -0.3511  0.0807
  133OSM   H18U14411   7.037   1.912   8.133 -2.9046 -0.0613 -3.8492
  133OSM    C1F14412   6.598   1.165   6.706 -0.2386 -0.3395 -0.0480
  133OSM     OF14413   6.627   1.078   6.612  0.5490 -0.1951 -0.7875
  133OSM    C2F14414   6.588   1.112   6.844  0.1144 -0.0459 -1.1482
  133OSM    H2F14415   6.615   1.189   6.919  0.1196 -0.1030 -1.0915
  133OSM    H2G14416   6.670   1.037   6.850 -2.5534 -3.0067  2.8352
  133OSM    C3F14417   6.459   1.036   6.875 -0.1024 -1.2438  0.5082
  133OSM    H3F14418   6.426   0.979   6.785  1.7208 -1.9243  0.2291
  133OSM    H3G14419   6.384   1.118   6.882  0.5391 -0.5111 -0.8728
  133OSM    C4F14420   6.466   0.946   6.994  0.0370  0.0402 -0.8945
  133OSM    H4F14421   6.549   0.872   6.991  1.0690  1.1996 -1.4792
  133OSM    H4G14422   6.381   0.876   6.978  0.7505 -1.2689  0.6718
  133OSM    C5F14423   6.474   1.025   7.119 -0.1176 -0.3086  0.1377
  133OSM    H5F14424   6.395   1.104   7.114  0.6298  0.5561  1.3844
  133OSM    H5G14425   6.566   1.087   7.113 -1.2983  1.4266 -1.1358
  133OSM    C6F14426   6.462   0.949   7.251  0.2851 -0.3876 -0.1138
  133OSM    H6F14427   6.531   0.862   7.249 -1.3711 -1.7619 -0.5228
  133OSM    H6G14428   6.359   0.906   7.257  1.5921 -3.6714  1.5558
  133OSM    C7F14429   6.498   1.036   7.371 -0.5934 -0.0250 -0.5363
  133OSM    H7F14430   6.419   1.113   7.387 -1.2881 -0.4830 -1.6283
  133OSM    H7G14431   6.595   1.083   7.344  0.7358 -2.3039  0.0288
  133OSM    C8F14432   6.543   0.953   7.498  0.6795 -0.5170  0.3144
  133OSM    H8F14433   6.606   0.865   7.472  2.0755  0.5756 -0.1443
  133OSM    H8G14434   6.451   0.913   7.544  0.7576  0.2793  1.2062
  133OSM    C9F14435   6.609   1.033   7.614  0.6417  0.0010 -0.0600
  133OSM    H9F14436   6.709   0.995   7.642  1.2258 -0.3589 -2.4337
  133OSM   C10F14437   6.551   1.133   7.690 -0.1832 -0.0160  0.1309
  133OSM   H10F14438   6.609   1.181   7.771 -0.5881 -0.8014  0.9107
  133OSM   C11F14439   6.410   1.189   7.665  0.7516 -0.9328 -0.2846
  133OSM   H11F14440   6.358   1.102   7.619  0.4580  0.9652 -3.9409
  133OSM   H11G14441   6.409   1.269   7.587 -2.7808 -1.1556 -0.6137
  133OSM   C12F14442   6.335   1.236   7.787 -0.4491  0.2024 -0.1297
  133OSM   H12F14443   6.326   1.152   7.858  0.0637 -0.3128 -0.6575
  133OSM   H12G14444   6.234   1.259   7.746 -0.8070 -0.5011  0.3583
  133OSM   C13F14445   6.398   1.351   7.855 -0.5254 -0.1723 -0.7343
  133OSM   H13F14446   6.439   1.431   7.789  0.2617 -0.0027 -0.0629
  133OSM   H13G14447   6.479   1.312   7.920 -0.3695 -0.4837 -1.1132
  133OSM   C14F14448   6.293   1.440   7.934  0.0327 -0.2942 -0.0702
  133OSM   H14F14449   6.231   1.368   7.991 -1.3470  0.6852 -0.2848
  133OSM   H14G14450   6.225   1.490   7.862  1.2189  1.1712 -0.2155
  133OSM   C15F14451   6.366   1.541   8.027  0.8112  0.4006 -0.2964
  133OSM   H15F14452   6.471   1.556   7.995  1.3601 -0.0285  1.2259
  133OSM   H15G14453   6.367   1.499   8.129 -0.0310 -0.0798 -0.4755
  133OSM   C16F14454   6.289   1.677   8.041  0.3850 -0.3389 -0.3175
  133OSM   H16F14455   6.187   1.660   8.080  0.7999  0.5133  1.2062
  133OSM   H16G14456   6.299   1.729   7.943 -0.2683  1.4028  0.5128
  133OSM   C17F14457   6.338   1.767   8.150 -0.4994  0.2429  0.2926
  133OSM   H17F14458   6.445   1.786   8.127 -0.2565 -1.1671  0.1765
  133OSM   H17G14459   6.320   1.714   8.246  1.3036  0.4413  0.7689
  133OSM   C18F14460   6.259   1.897   8.166 -0.2212 -0.2368  1.2703
  133OSM   H18F14461   6.304   1.970   8.237 -1.1130  2.2903 -0.6114
  133OSM   H18G14462   6.158   1.856   8.192  0.4896 -2.5942  0.5422
  133OSM   H18H14463   6.251   1.953   8.071 -0.4620 -2.0561  0.1747
  134OSM      N14464   1.033   4.336   6.302 -0.4674  0.0379 -0.2836
  134OSM    C1514465   0.972   4.241   6.214  0.1907  0.7974 -0.1635
  134OSM   H15A14466   1.011   4.254   6.114 -0.8586  1.0939 -0.5431
  134OSM   H15B14467   0.865   4.251   6.220  0.3096  1.5026  0.9454
  134OSM   H15C14468   0.998   4.139   6.236  1.1046  1.1640  0.5413
  134OSM    C1414469   1.181   4.322   6.309 -0.6136  0.3641 -0.2104
  134OSM   H14A14470   1.216   4.350   6.211 -1.8586  0.9220 -0.5159
  134OSM   H14B14471   1.217   4.228   6.347 -0.5482  0.8959  1.0877
  134OSM   H14C14472   1.235   4.401   6.360  1.8828 -1.5103  0.2427
  134OSM    C1314473   1.007   4.474   6.269  0.0743  0.2928  0.2684
  134OSM   H13A14474   1.063   4.540   6.332  0.9060 -0.4473  0.3220
  134OSM   H13B14475   0.902   4.497   6.273 -0.6808 -2.0434 -2.4252
  134OSM   H13C14476   1.044   4.486   6.168  1.6742 -1.8655  0.5247
  134OSM    C1214477   0.993   4.309   6.450  1.2168 -0.1541 -0.3066
  134OSM   H12A14478   1.015   4.393   6.515 -0.0031  1.1177 -1.4673
  134OSM   H12B14479   1.044   4.222   6.488  0.6376 -0.2875  0.2014
  134OSM    C1114480   0.839   4.288   6.464  0.5828 -0.0204  0.6403
  134OSM   H11A14481   0.798   4.269   6.565 -1.6664  2.0019  0.1896
  134OSM   H11B14482   0.816   4.190   6.416  1.4608 -1.3695  2.8069
  134OSM      P14483   0.714   4.518   6.478 -0.2261 -0.3478 -0.2788
  134OSM    O1314484   0.792   4.615   6.403 -0.2054 -0.8706 -0.8677
  134OSM    O1414485   0.566   4.533   6.473  0.1740  0.1671 -0.5391
  134OSM    O1114486   0.757   4.509   6.635  0.1191  0.3182  0.0068
  134OSM    O1214487   0.761   4.392   6.419  0.2196  0.0926 -0.0646
  134OSM    C1S14488   0.878   4.573   6.674  1.2318 -0.1797  0.3672
  134OSM    H1S14489   0.857   4.682   6.663 -0.7638 -0.2975  2.3013
  134OSM    H1T14490   0.954   4.545   6.597 -2.8199 -2.0127 -3.3711
  134OSM     NF14491   1.051   4.609   6.834 -0.5096 -0.3027 -0.6477
  134OSM    HNF14492   1.121   4.542   6.858  0.3375  1.2979  1.8480
  134OSM    C2S14493   0.919   4.553   6.822 -0.1995  0.1916  0.4203
  134OSM    H2S14494   0.850   4.604   6.892 -0.3003 -0.3759  0.7464
  134OSM    C3S14495   0.917   4.408   6.874  0.1360  0.2427  0.2946
  134OSM    H3S14496   1.001   4.359   6.820 -1.5911 -0.5660 -1.8285
  134OSM     O314497   0.789   4.345   6.841  0.7133  0.3809  0.4745
  134OSM    HO314498   0.734   4.413   6.802  1.2394  0.3493 -0.3405
  134OSM    C4S14499   0.946   4.404   7.025 -0.0023  0.1041 -0.0321
  134OSM    H4S14500   0.898   4.479   7.089  1.3077  0.0219  1.1011
  134OSM    C5S14501   1.050   4.338   7.090  0.0390  0.6266 -0.6436
  134OSM    H5S14502   1.119   4.276   7.031 -0.4895 -0.8334  0.2057
  134OSM    C6S14503   1.084   4.339   7.239  0.0612 -0.1244 -0.4914
  134OSM    H6S14504   1.173   4.404   7.254 -1.1264  1.3938  0.2273
  134OSM    H6T14505   1.109   4.234   7.266 -0.1702 -0.4368 -1.4460
  134OSM    C7S14506   0.972   4.385   7.336  1.2281 -0.4543  0.4317
  134OSM    H7S14507   0.880   4.328   7.309  1.2404 -1.2567  1.9978
  134OSM    H7T14508   0.956   4.489   7.302  1.7158 -0.8275 -1.0270
  134OSM    C8S14509   1.003   4.371   7.487  0.3695  0.2665  0.2836
  134OSM    H8S14510   1.099   4.422   7.511  1.2056 -1.8571  1.7602
  134OSM    H8T14511   1.034   4.265   7.500 -3.4385 -0.9291  0.7994
  134OSM    C9S14512   0.884   4.401   7.579  0.0170 -0.3952  0.2109
  134OSM    H9S14513   0.793   4.342   7.555 -1.3451  1.5056  0.4600
  134OSM    H9T14514   0.857   4.507   7.562  0.6406 -0.1163  0.8887
  134OSM   C10S14515   0.909   4.375   7.730 -0.1953 -0.2213  0.1492
  134OSM   H10S14516   0.980   4.448   7.774 -0.4915 -1.1222  2.2347
  134OSM   H10T14517   0.937   4.268   7.740 -0.1927 -0.3506 -1.0423
  134OSM   C11S14518   0.776   4.386   7.807 -0.1494 -0.0459 -0.0932
  134OSM   H11S14519   0.731   4.286   7.788 -0.4065 -0.0818  0.6967
  134OSM   H11T14520   0.716   4.473   7.771 -1.3825  0.0912  2.1105
  134OSM   C12S14521   0.806   4.392   7.957  0.4991  0.3483  0.3981
  134OSM   H12S14522   0.867   4.482   7.979 -1.1908  1.7032 -0.2619
  134OSM   H12T14523   0.850   4.297   7.994  0.1110  0.3126  0.7746
  134OSM   C13S14524   0.673   4.405   8.036 -0.0929  0.1077 -0.5967
  134OSM   H13S14525   0.599   4.339   7.985  0.6853 -2.1112  0.9929
  134OSM   H13T14526   0.622   4.503   8.027 -0.4511  0.1494  1.3663
  134OSM   C14S14527   0.680   4.371   8.184  0.1973 -0.7635 -0.8438
  134OSM   H14S14528   0.699   4.262   8.195 -1.5626 -1.0491 -0.2735
  134OSM   H14T14529   0.582   4.389   8.234  0.7139  1.9962 -0.6432
  134OSM   C15S14530   0.790   4.447   8.264 -0.1865  0.5649  0.3514
  134OSM   H15S14531   0.758   4.553   8.260  0.1757  0.7975  2.5661
  134OSM   H15T14532   0.888   4.443   8.211 -0.0988 -0.9075  0.5719
  134OSM   C16S14533   0.810   4.394   8.402  0.4610  0.2261 -0.8983
  134OSM   H16S14534   0.799   4.284   8.415  0.6449  0.4671  1.7623
  134OSM   H16T14535   0.726   4.425   8.468 -0.6648 -2.0926 -1.1416
  134OSM   C17S14536   0.938   4.437   8.464 -0.8535  0.5526 -0.2468
  134OSM   H17S14537   0.943   4.546   8.484 -1.1818  0.6957 -0.9203
  134OSM   H17T14538   1.019   4.406   8.394 -1.4324  0.7034 -0.9928
  134OSM   C18S14539   0.961   4.380   8.602  0.3408  0.3530 -0.0200
  134OSM   H18S14540   0.880   4.414   8.670 -0.6585 -2.1658  0.1549
  134OSM   H18T14541   1.061   4.410   8.642  0.1892  1.8900 -0.7240
  134OSM   H18U14542   0.954   4.269   8.596  0.5453  0.3897 -1.0694
  134OSM    C1F14543   1.079   4.735   6.826  0.1608 -0.4457  0.4638
  134OSM     OF14544   0.993   4.813   6.783 -0.3236 -0.0043 -0.0479
  134OSM    C2F14545   1.215   4.792   6.869 -0.0239 -0.5113 -0.2257
  134OSM    H2F14546   1.258   4.866   6.799 -1.8526 -0.8210 -1.7470
  134OSM    H2G14547   1.283   4.705   6.860  1.0263  0.4202 -1.6313
  134OSM    C3F14548   1.224   4.849   7.011 -0.3261  0.6870 -0.0389
  134OSM    H3F14549   1.138   4.918   7.019 -1.2985 -0.5827  0.9679
  134OSM    H3G14550   1.323   4.898   7.023  0.5866 -0.3873 -2.4002
  134OSM    C4F14551   1.207   4.757   7.127 -0.7281  0.1030 -0.3512
  134OSM    H4F14552   1.287   4.681   7.140 -1.6953 -1.0247 -0.8621
  134OSM    H4G14553   1.118   4.692   7.132 -0.1681 -0.6012  3.1161
  134OSM    C5F14554   1.220   4.837   7.266  0.4597 -0.1231 -0.4938
  134OSM    H5F14555   1.127   4.898   7.276  0.9718  0.4182  1.2295
  134OSM    H5G14556   1.310   4.900   7.251 -0.9798  2.4529  0.9629
  134OSM    C6F14557   1.226   4.754   7.392  0.2948 -0.0739  0.1544
  134OSM    H6F14558   1.303   4.674   7.378 -0.1147 -0.1283 -2.1867
  134OSM    H6G14559   1.129   4.702   7.406  0.4742 -0.1630  1.0835
  134OSM    C7F14560   1.246   4.846   7.523 -0.3946  0.3619  0.2897
  134OSM    H7F14561   1.171   4.927   7.511 -2.0373 -1.0547  0.6695
  134OSM    H7G14562   1.347   4.893   7.511 -0.9639  1.1111 -2.1797
  134OSM    C8F14563   1.229   4.774   7.654 -0.0858  0.4097  0.4259
  134OSM    H8F14564   1.127   4.731   7.657 -1.2121  2.4962 -2.7203
  134OSM    H8G14565   1.230   4.851   7.734 -0.1174  3.1028 -1.9986
  134OSM    C9F14566   1.340   4.666   7.670 -0.1271 -0.4097 -0.6430
  134OSM    H9F14567   1.338   4.588   7.593  0.7163  0.4949 -1.6131
  134OSM   C10F14568   1.420   4.649   7.782  0.1838  0.1076 -0.7579
  134OSM   H10F14569   1.499   4.574   7.790  1.5429  1.5740  0.3724
  134OSM   C11F14570   1.414   4.734   7.908  0.4666 -0.2914 -0.7720
  134OSM   H11F14571   1.396   4.842   7.887 -2.6152 -0.7876 -1.2057
  134OSM   H11G14572   1.510   4.727   7.964  0.5989  2.9722 -0.4069
  134OSM   C12F14573   1.308   4.685   8.009 -0.0730 -0.6435  0.1518
  134OSM   H12F14574   1.334   4.587   8.057 -1.4429 -2.1491 -2.0034
  134OSM   H12G14575   1.219   4.660   7.948  0.7635 -0.6303 -1.1146
  134OSM   C13F14576   1.269   4.793   8.102  0.3958  0.6507 -0.0117
  134OSM   H13F14577   1.228   4.883   8.051  0.0084  0.6437  0.2893
  134OSM   H13G14578   1.360   4.831   8.152  0.3659 -1.8159  2.0819
  134OSM   C14F14579   1.147   4.753   8.197  0.1532  0.0624 -0.2161
  134OSM   H14F14580   1.171   4.695   8.289 -1.8135  0.9837  0.9414
  134OSM   H14G14581   1.077   4.687   8.141 -0.4180 -2.3775  3.0114
  134OSM   C15F14582   1.069   4.876   8.250  0.0806 -0.3842  0.0361
  134OSM   H15F14583   1.018   4.926   8.165 -3.4116  0.8613  2.6157
  134OSM   H15G14584   1.144   4.936   8.305 -2.7537  0.5426  3.2201
  134OSM   C16F14585   0.969   4.854   8.358 -0.5476  0.0556  0.3871
  134OSM   H16F14586   1.026   4.803   8.438  0.0974 -0.1370 -0.1830
  134OSM   H16G14587   0.893   4.778   8.332  0.2027 -0.5621 -0.0109
  134OSM   C17F14588   0.890   4.972   8.411  0.0857 -0.3000 -0.2726
  134OSM   H17F14589   0.839   5.024   8.327  1.5963  2.2126  0.2953
  134OSM   H17G14590   0.956   5.055   8.443 -0.4740  0.5948 -1.3728
  134OSM   C18F14591   0.785   4.937   8.519 -0.2496  0.6338 -0.0087
  134OSM   H18F14592   0.839   4.932   8.615  0.0365  0.4620 -0.1771
  134OSM   H18G14593   0.739   4.837   8.506  1.6993 -0.4864  1.2491
  134OSM   H18H14594   0.710   5.019   8.521  1.2127  2.0249  0.3536
  135OSM      N14595   0.868   5.960   6.572  0.1183 -0.5551  0.6002
  135OSM    C1514596   0.769   6.067   6.530 -0.0879 -0.0369  0.1368
  135OSM   H15A14597   0.754   6.136   6.612 -0.4150 -1.7180  1.5695
  135OSM   H15B14598   0.669   6.036   6.505 -0.1752 -0.2665  0.7516
  135OSM   H15C14599   0.800   6.123   6.444 -2.7230 -1.0579 -1.5842
  135OSM    C1414600   0.993   6.023   6.633 -0.2187 -0.1948 -0.9767
  135OSM   H14A14601   0.987   6.109   6.698 -0.5920 -1.3769  0.6145
  135OSM   H14B14602   1.067   6.060   6.564  0.1832  1.6081  0.3541
  135OSM   H14C14603   1.047   5.946   6.687 -0.8267 -0.5204 -0.8200
  135OSM    C1314604   0.804   5.883   6.689 -0.1091 -0.0095 -0.1000
  135OSM   H13A14605   0.710   5.843   6.655 -0.6484  1.3823 -0.3245
  135OSM   H13B14606   0.767   5.954   6.762 -2.0507 -1.3020  0.2286
  135OSM   H13C14607   0.867   5.800   6.718  1.0580  0.7321 -0.4238
  135OSM    C1214608   0.906   5.868   6.456  0.3463  0.2596 -0.1789
  135OSM   H12A14609   0.959   5.926   6.382 -0.7982  1.9798  0.2882
  135OSM   H12B14610   0.821   5.837   6.397  1.1836 -0.2358 -1.1383
  135OSM    C1114611   1.000   5.752   6.488  0.6716  0.2749  0.4037
  135OSM   H11A14612   0.988   5.688   6.579 -1.9297 -1.0470 -0.7692
  135OSM   H11B14613   1.103   5.793   6.488  0.5925  0.5307  1.7743
  135OSM      P14614   0.867   5.572   6.345  0.1018 -0.4497  0.4610
  135OSM    O1314615   0.740   5.649   6.320 -0.1567 -0.0482 -0.1855
  135OSM    O1414616   0.900   5.467   6.244  0.6343  0.1027  0.0527
  135OSM    O1114617   0.854   5.502   6.476 -0.9848 -0.0564 -0.3250
  135OSM    O1214618   0.991   5.668   6.371  0.0659 -0.2964 -0.1625
  135OSM    C1S14619   0.956   5.410   6.525  0.4845  0.3549 -0.4894
  135OSM    H1S14620   1.046   5.475   6.528  0.5091  0.4580 -2.2013
  135OSM    H1T14621   0.958   5.321   6.459 -4.2137 -0.3165 -0.0472
  135OSM     NF14622   1.008   5.277   6.736 -0.2828  0.1809 -0.5521
  135OSM    HNF14623   0.989   5.179   6.737  2.4806 -0.4191  0.4265
  135OSM    C2S14624   0.912   5.360   6.673 -0.1850 -0.6650  0.8308
  135OSM    H2S14625   0.901   5.461   6.720  0.3172  0.1949 -0.8178
  135OSM    C3S14626   0.774   5.295   6.667  0.5001 -0.8104 -0.5011
  135OSM    H3S14627   0.780   5.199   6.612 -2.1516 -1.3114 -0.0662
  135OSM     O314628   0.672   5.374   6.598 -0.3734  0.6436 -0.1070
  135OSM    HO314629   0.721   5.430   6.538 -0.3215  2.5217  1.5693
  135OSM    C4S14630   0.725   5.262   6.809  0.1335 -0.0181  0.3175
  135OSM    H4S14631   0.772   5.168   6.843  0.9779 -0.3365 -1.5817
  135OSM    C5S14632   0.657   5.343   6.894  0.0683 -0.3185  0.1124
  135OSM    H5S14633   0.612   5.434   6.851 -0.8955 -1.2288 -0.8388
  135OSM    C6S14634   0.611   5.310   7.037  0.1815 -0.9323  0.4276
  135OSM    H6S14635   0.625   5.202   7.056 -0.1213 -1.0718 -0.1337
  135OSM    H6T14636   0.504   5.331   7.056  0.3268  1.7302 -1.1771
  135OSM    C7S14637   0.694   5.382   7.143  0.1558  0.2212  0.1468
  135OSM    H7S14638   0.695   5.487   7.107 -0.6482  0.2174  0.1079
  135OSM    H7T14639   0.801   5.351   7.139 -0.5936 -2.7873  0.9275
  135OSM    C8S14640   0.631   5.372   7.276  0.5603 -0.2094 -0.9866
  135OSM    H8S14641   0.637   5.263   7.297  1.8167 -0.2552 -1.5049
  135OSM    H8T14642   0.525   5.403   7.269  0.6262  0.0046 -1.0381
  135OSM    C9S14643   0.699   5.456   7.387  0.4936 -0.4530 -0.2410
  135OSM    H9S14644   0.706   5.562   7.355 -0.6966 -0.5192 -0.8031
  135OSM    H9T14645   0.801   5.416   7.402  0.4012 -0.5001  0.2888
  135OSM   C10S14646   0.630   5.460   7.517  0.0063  0.4438 -0.1506
  135OSM   H10S14647   0.521   5.475   7.499 -0.1863 -0.3743  0.3003
  135OSM   H10T14648   0.667   5.541   7.584 -1.8486  1.5290 -0.3589
  135OSM   C11S14649   0.657   5.336   7.605  0.2201 -0.1328 -0.6455
  135OSM   H11S14650   0.768   5.332   7.606  0.2534 -1.8685 -2.7060
  135OSM   H11T14651   0.621   5.245   7.552  0.9263 -0.9721  0.2806
  135OSM   C12S14652   0.581   5.360   7.740  0.0579  0.7854  0.0166
  135OSM   H12S14653   0.477   5.386   7.709  0.6917  1.9322 -1.2295
  135OSM   H12T14654   0.625   5.439   7.803  1.9491 -0.7051  0.6618
  135OSM   C13S14655   0.580   5.232   7.822 -0.1259 -0.0700  0.1772
  135OSM   H13S14656   0.684   5.196   7.809 -0.1479  0.1476 -0.6887
  135OSM   H13T14657   0.508   5.160   7.775  0.1659 -0.5299  0.4336
  135OSM   C14S14658   0.546   5.274   7.962 -0.6040 -0.2473 -0.6288
  135OSM   H14S14659   0.447   5.324   7.960 -1.4654 -1.7899  0.7128
  135OSM   H14T14660   0.617   5.355   7.991 -0.2230 -0.8324  0.1087
  135OSM   C15S14661   0.539   5.156   8.064 -1.0974 -0.4844 -0.2123
  135OSM   H15S14662   0.638   5.107   8.072 -1.2364 -2.0402 -5.0145
  135OSM   H15T14663   0.465   5.087   8.018 -1.2568  0.3895 -1.3160
  135OSM   C16S14664   0.495   5.209   8.203  0.6696  0.5314 -0.0028
  135OSM   H16S14665   0.413   5.283   8.191  0.1067 -0.2345 -1.0485
  135OSM   H16T14666   0.585   5.258   8.246  0.3718  2.7218 -1.6916
  135OSM   C17S14667   0.443   5.091   8.287  0.0151  0.3675 -0.6578
  135OSM   H17S14668   0.516   5.009   8.305 -1.8245 -0.8095  2.1122
  135OSM   H17T14669   0.370   5.035   8.225 -0.1471 -0.6986  0.4660
  135OSM   C18S14670   0.398   5.122   8.431 -0.8190  0.0761  0.0364
  135OSM   H18S14671   0.477   5.096   8.504  0.3485 -0.1228 -1.2557
  135OSM   H18T14672   0.315   5.049   8.447 -0.2346 -0.1823  2.1353
  135OSM   H18U14673   0.370   5.229   8.440 -0.6271  0.1837 -0.6030
  135OSM    C1F14674   1.134   5.323   6.771  0.7329  0.0007 -0.6090
  135OSM     OF14675   1.166   5.443   6.765 -0.0335  0.3626 -0.0506
  135OSM    C2F14676   1.234   5.225   6.812  0.1318  0.7172 -0.2440
  135OSM    H2F14677   1.320   5.221   6.742 -1.3924  1.0395 -2.2319
  135OSM    H2G14678   1.189   5.123   6.805 -1.1231  1.3175 -1.4517
  135OSM    C3F14679   1.302   5.240   6.947 -0.4887 -0.0619 -0.4019
  135OSM    H3F14680   1.361   5.334   6.954 -1.8192  0.9284 -1.8425
  135OSM    H3G14681   1.371   5.156   6.972 -0.4274  0.1980  0.3481
  135OSM    C4F14682   1.195   5.235   7.057  0.7049  0.1341  0.3417
  135OSM    H4F14683   1.127   5.148   7.044 -0.7357  1.3359 -0.4373
  135OSM    H4G14684   1.136   5.330   7.059  0.3598 -0.0721  0.0297
  135OSM    C5F14685   1.268   5.213   7.190  0.4995  0.5948 -0.3077
  135OSM    H5F14686   1.353   5.283   7.209  1.2232 -0.6012  1.1164
  135OSM    H5G14687   1.308   5.110   7.179  2.7633  1.5254 -1.5738
  135OSM    C6F14688   1.169   5.208   7.311  0.4502  0.3816 -1.3686
  135OSM    H6F14689   1.102   5.119   7.307 -1.0728  1.4453 -0.4233
  135OSM    H6G14690   1.110   5.301   7.319 -0.8906 -0.5665  0.5574
  135OSM    C7F14691   1.250   5.207   7.443  0.3007  0.3947  0.7367
  135OSM    H7F14692   1.323   5.291   7.441 -0.4995  1.1464  1.5814
  135OSM    H7G14693   1.294   5.106   7.449 -2.0250 -0.7113  0.1617
  135OSM    C8F14694   1.156   5.235   7.563 -0.2965 -0.1552 -0.4973
  135OSM    H8F14695   1.083   5.152   7.579 -0.0687  0.0068  1.7128
  135OSM    H8G14696   1.094   5.325   7.545 -0.9486 -0.0114  2.0544
  135OSM    C9F14697   1.252   5.255   7.680  0.0661 -0.1750  0.1131
  135OSM    H9F14698   1.316   5.343   7.671 -0.2026  0.2518  1.9111
  135OSM   C10F14699   1.242   5.202   7.803  0.4821  0.3325 -0.1579
  135OSM   H10F14700   1.307   5.239   7.884  1.0641 -3.6622  1.4091
  135OSM   C11F14701   1.140   5.106   7.859  0.9248 -0.6746 -0.8697
  135OSM   H11F14702   1.176   5.030   7.930  0.0421 -0.4851 -0.2057
  135OSM   H11G14703   1.089   5.051   7.777 -3.1197  0.2639  0.7779
  135OSM   C12F14704   1.015   5.179   7.933  0.0671  0.5150  0.1469
  135OSM   H12F14705   0.929   5.110   7.926  1.1799 -0.9099  0.0298
  135OSM   H12G14706   0.980   5.265   7.872  2.0899  1.3172  0.0415
  135OSM   C13F14707   1.042   5.211   8.077 -0.6447 -0.3584 -0.2647
  135OSM   H13F14708   1.122   5.288   8.073  1.3343 -2.1891  1.3103
  135OSM   H13G14709   1.086   5.122   8.129  0.1316  0.4606  0.5243
  135OSM   C14F14710   0.916   5.256   8.144 -0.0951 -0.8039 -0.3761
  135OSM   H14F14711   0.833   5.183   8.136 -1.1239  0.3096 -0.0890
  135OSM   H14G14712   0.875   5.337   8.080  1.1997 -0.8350 -1.3015
  135OSM   C15F14713   0.960   5.306   8.284  0.5728 -0.8725  0.3635
  135OSM   H15F14714   1.027   5.393   8.271  0.6417 -1.0377 -0.4261
  135OSM   H15G14715   1.017   5.226   8.336 -0.8459 -1.6113  0.8608
  135OSM   C16F14716   0.836   5.347   8.364 -0.4931 -0.1200 -0.8550
  135OSM   H16F14717   0.796   5.250   8.402 -1.6589  0.8203  0.4284
  135OSM   H16G14718   0.764   5.390   8.293 -0.6945 -0.1269 -0.6566
  135OSM   C17F14719   0.875   5.444   8.475  0.6539  0.0867  0.1851
  135OSM   H17F14720   0.890   5.547   8.437  0.5433 -0.5900 -1.8436
  135OSM   H17G14721   0.972   5.407   8.516  0.8238 -1.5521 -1.5092
  135OSM   C18F14722   0.775   5.459   8.599 -0.2800 -0.1729 -0.1611
  135OSM   H18F14723   0.746   5.356   8.630 -0.2455 -0.8707 -2.3157
  135OSM   H18G14724   0.686   5.512   8.559  0.0916  2.5863  2.3453
  135OSM   H18H14725   0.818   5.524   8.679 -2.3221 -0.5615  1.3441
  136OSM      N14726   6.547   6.242   5.903 -0.6511  0.2682 -0.4620
  136OSM    C1514727   6.672   6.176   5.965 -0.8919  0.7825 -0.2887
  136OSM   H15A14728   6.646   6.130   6.059 -0.2536  3.0261  1.0571
  136OSM   H15B14729   6.750   6.248   5.987 -0.6266  0.5189 -0.3590
  136OSM   H15C14730   6.699   6.095   5.899 -1.7657 -0.8469  1.2714
  136OSM    C1414731   6.574   6.290   5.758  0.0094  0.5402 -0.7812
  136OSM   H14A14732   6.475   6.324   5.731 -0.9691 -1.7940 -0.3483
  136OSM   H14B14733   6.610   6.213   5.691 -1.0804 -1.2736  0.6154
  136OSM   H14C14734   6.640   6.376   5.761  1.2466 -0.3013 -2.4000
  136OSM    C1314735   6.443   6.141   5.894 -0.3263  0.1449 -0.9216
  136OSM   H13A14736   6.406   6.133   5.995 -1.2772 -0.3043 -1.2909
  136OSM   H13B14737   6.477   6.041   5.868 -0.1227  0.0373 -0.2645
  136OSM   H13C14738   6.354   6.177   5.845  0.0473  0.3714 -1.4391
  136OSM    C1214739   6.495   6.359   5.983  0.7401  0.6755  0.3406
  136OSM   H12A14740   6.416   6.402   5.923  1.7068 -0.9142 -2.2279
  136OSM   H12B14741   6.576   6.431   5.986  1.0165  0.3635  0.3737
  136OSM    C1114742   6.454   6.345   6.130 -0.6001 -0.1209  0.2118
  136OSM   H11A14743   6.449   6.444   6.179 -1.5920  0.5607 -1.1929
  136OSM   H11B14744   6.542   6.290   6.169  0.2559  0.6960 -0.5056
  136OSM      P14745   6.199   6.344   6.085 -0.2904  0.3984 -0.2232
  136OSM    O1314746   6.155   6.468   6.155  0.4458  0.2331  0.2367
  136OSM    O1414747   6.207   6.358   5.940  0.1394 -0.2268 -0.4816
  136OSM    O1114748   6.099   6.225   6.116  0.2123 -0.5238 -0.0690
  136OSM    O1214749   6.333   6.271   6.143 -0.2044 -0.1067  0.6666
  136OSM    C1S14750   6.085   6.167   6.254 -0.0757  0.0537  0.1949
  136OSM    H1S14751   6.184   6.156   6.304  0.1377 -0.0568 -0.2450
  136OSM    H1T14752   6.042   6.065   6.256  0.2710 -0.1075  3.3503
  136OSM     NF14753   5.999   6.177   6.480 -0.2071 -0.7284  0.8373
  136OSM    HNF14754   5.947   6.093   6.499  0.7200 -1.7147 -0.7114
  136OSM    C2S14755   5.988   6.243   6.349  0.5232 -0.7406  0.5440
  136OSM    H2S14756   6.038   6.342   6.353  1.3082 -1.1769  2.4119
  136OSM    C3S14757   5.847   6.249   6.289  0.5197 -0.3810 -0.2962
  136OSM    H3S14758   5.803   6.153   6.254  1.1721 -0.2814 -1.4383
  136OSM     O314759   5.842   6.319   6.165 -0.0848 -0.0843  0.2757
  136OSM    HO314760   5.936   6.336   6.149  0.0410  0.0927  1.1584
  136OSM    C4S14761   5.759   6.308   6.399 -0.3209 -0.3189 -0.1292
  136OSM    H4S14762   5.782   6.413   6.421  1.1672 -0.2871 -1.6777
  136OSM    C5S14763   5.645   6.254   6.456 -0.3274 -0.0766 -0.5296
  136OSM    H5S14764   5.604   6.158   6.422  0.3561 -0.3533 -0.6001
  136OSM    C6S14765   5.572   6.343   6.554  0.0158 -0.0563  0.0862
  136OSM    H6S14766   5.465   6.354   6.528 -0.3384 -0.8043  1.1321
  136OSM    H6T14767   5.619   6.443   6.566  0.3325 -0.0725 -0.9229
  136OSM    C7S14768   5.583   6.265   6.689 -0.1643  0.0524  0.4467
  136OSM    H7S14769   5.688   6.264   6.724  0.2019 -0.0770 -0.6142
  136OSM    H7T14770   5.553   6.160   6.669  0.9082  0.0925 -1.6259
  136OSM    C8S14771   5.494   6.330   6.803 -0.5274 -0.3822  0.8677
  136OSM    H8S14772   5.398   6.275   6.807 -1.7878  1.7830  1.5543
  136OSM    H8T14773   5.471   6.436   6.779  2.9686  0.6242  1.4140
  136OSM    C9S14774   5.571   6.335   6.936 -0.4002 -0.0781  0.3874
  136OSM    H9S14775   5.644   6.416   6.916  0.4018 -1.2573 -1.8080
  136OSM    H9T14776   5.631   6.243   6.957  2.2439  1.7071  1.1456
  136OSM   C10S14777   5.465   6.369   7.043 -0.4963 -0.3926  0.0865
  136OSM   H10S14778   5.384   6.294   7.057 -2.4759  1.4075 -1.1817
  136OSM   H10T14779   5.411   6.454   6.996 -1.5660 -0.9645  0.2459
  136OSM   C11S14780   5.518   6.405   7.176  0.0586  0.1939 -0.3614
  136OSM   H11S14781   5.593   6.488   7.171 -0.0258  0.2974  0.0218
  136OSM   H11T14782   5.581   6.323   7.216  2.2774  2.7493  1.8767
  136OSM   C12S14783   5.414   6.425   7.291  0.0017  0.2721  0.7101
  136OSM   H12S14784   5.356   6.331   7.304 -1.3774  1.2387  1.9118
  136OSM   H12T14785   5.338   6.498   7.257 -2.0243 -2.5765 -1.3270
  136OSM   C13S14786   5.480   6.440   7.431 -0.1987 -0.2126  0.0500
  136OSM   H13S14787   5.550   6.525   7.424  2.0222 -1.8465  1.1248
  136OSM   H13T14788   5.529   6.343   7.456 -0.8373 -0.1534  1.6780
  136OSM   C14S14789   5.381   6.481   7.547  0.1625  0.3045  0.4114
  136OSM   H14S14790   5.298   6.407   7.545  0.3453  0.0636  1.1976
  136OSM   H14T14791   5.348   6.584   7.522 -2.0799 -0.1580  1.2100
  136OSM   C15S14792   5.458   6.491   7.683 -0.1562  0.8585 -0.1365
  136OSM   H15S14793   5.541   6.559   7.656  0.6987 -0.1653 -0.1347
  136OSM   H15T14794   5.502   6.395   7.715  0.8829  1.8887  1.6720
  136OSM   C16S14795   5.370   6.543   7.795 -0.1482  0.7993  0.4808
  136OSM   H16S14796   5.282   6.482   7.823  1.4575 -2.0571 -0.2838
  136OSM   H16T14797   5.333   6.639   7.753  0.1873  0.9265  0.4739
  136OSM   C17S14798   5.458   6.551   7.924  0.6512 -0.1777 -0.3589
  136OSM   H17S14799   5.556   6.596   7.896  1.5390 -1.3787  0.7103
  136OSM   H17T14800   5.478   6.450   7.966  1.5316  0.3454  0.5269
  136OSM   C18S14801   5.385   6.632   8.037  0.2495  0.7747 -0.6731
  136OSM   H18S14802   5.431   6.633   8.138  0.2070 -1.8553 -0.5642
  136OSM   H18T14803   5.286   6.582   8.048  1.2863 -1.3479 -0.4371
  136OSM   H18U14804   5.373   6.735   7.998  0.3186 -0.2534 -3.6637
  136OSM    C1F14805   6.110   6.191   6.548 -0.3408  0.1407 -0.1830
  136OSM     OF14806   6.199   6.267   6.515 -0.0944 -0.2477  0.3966
  136OSM    C2F14807   6.133   6.107   6.668  0.0348  0.3136 -0.2532
  136OSM    H2F14808   6.150   6.003   6.632 -2.9945  0.3602 -2.1966
  136OSM    H2G14809   6.036   6.098   6.721  0.5001  1.3285  0.8047
  136OSM    C3F14810   6.233   6.165   6.753  0.2731 -0.0059 -0.5620
  136OSM    H3F14811   6.206   6.270   6.780 -0.9424  0.1139 -2.0438
  136OSM    H3G14812   6.327   6.160   6.694  0.3607  0.1256 -0.4335
  136OSM    C4F14813   6.247   6.080   6.882  0.4092 -0.0340 -0.1548
  136OSM    H4F14814   6.297   5.986   6.850  0.5924 -0.2825  0.8318
  136OSM    H4G14815   6.143   6.072   6.922  1.0900 -1.8231  1.4033
  136OSM    C5F14816   6.337   6.133   6.993 -0.3862 -0.5260 -0.3689
  136OSM    H5F14817   6.295   6.224   7.042  0.9985 -0.0298 -0.0430
  136OSM    H5G14818   6.433   6.168   6.950 -0.1528 -0.9761 -0.2190
  136OSM    C6F14819   6.357   6.046   7.118 -0.0500  0.5563  0.3147
  136OSM    H6F14820   6.409   6.091   7.206  1.5871 -1.1539  0.2961
  136OSM    H6G14821   6.426   5.963   7.091 -0.2239  0.0742  1.2977
  136OSM    C7F14822   6.232   5.993   7.182 -0.4030 -0.6116 -0.6810
  136OSM    H7F14823   6.150   5.960   7.115  0.0428 -1.9754 -0.5999
  136OSM    H7G14824   6.193   6.083   7.234  0.4039 -0.0240 -1.0712
  136OSM    C8F14825   6.261   5.896   7.304  0.3143 -0.3360  0.5387
  136OSM    H8F14826   6.347   5.945   7.354  1.1041  1.2420 -2.1933
  136OSM    H8G14827   6.304   5.800   7.268  0.6338 -0.0689  0.1954
  136OSM    C9F14828   6.139   5.868   7.391  0.5150 -0.7405  0.3413
  136OSM    H9F14829   6.045   5.830   7.346  0.5424  0.3392 -0.6867
  136OSM   C10F14830   6.127   5.916   7.517 -0.4748 -0.2405 -1.3502
  136OSM   H10F14831   6.035   5.899   7.575  1.0879 -0.2569  1.3408
  136OSM   C11F14832   6.228   5.992   7.607  0.2903 -0.1093 -0.7666
  136OSM   H11F14833   6.238   6.101   7.587 -1.0203 -0.0463 -1.1774
  136OSM   H11G14834   6.330   5.952   7.592  0.2461  0.5398 -3.1111
  136OSM   C12F14835   6.189   5.982   7.754  1.1202 -0.1262  0.0506
  136OSM   H12F14836   6.198   5.877   7.791  0.9438 -0.7273 -1.5323
  136OSM   H12G14837   6.087   6.024   7.765  1.0821 -0.4451  1.0408
  136OSM   C13F14838   6.306   6.050   7.835 -0.1913 -0.3083  0.3775
  136OSM   H13F14839   6.332   6.156   7.812 -1.1765 -0.1534 -0.0457
  136OSM   H13G14840   6.399   6.000   7.799 -0.4139 -1.4890  1.3699
  136OSM   C14F14841   6.315   6.005   7.981 -0.4025 -0.0893 -0.3002
  136OSM   H14F14842   6.338   5.896   7.986  0.6025  0.0972 -0.7107
  136OSM   H14G14843   6.218   6.014   8.035  0.8715 -1.0176  2.3512
  136OSM   C15F14844   6.422   6.088   8.062  0.7285  0.8290 -0.4421
  136OSM   H15F14845   6.391   6.192   8.085  1.0494  1.5095 -2.8344
  136OSM   H15G14846   6.524   6.093   8.019  1.0428 -1.5720 -0.1066
  136OSM   C16F14847   6.444   6.004   8.197  0.7919  0.4962  0.2685
  136OSM   H16F14848   6.469   5.898   8.176  1.2398  0.4214  1.1301
  136OSM   H16G14849   6.343   5.994   8.243  0.6466  0.7527  0.0080
  136OSM   C17F14850   6.532   6.070   8.299 -0.7255 -0.6735  0.4384
  136OSM   H17F14851   6.500   6.173   8.325  0.4314 -0.2043  0.1060
  136OSM   H17G14852   6.624   6.103   8.246 -1.8562 -0.1239 -1.2695
  136OSM   C18F14853   6.558   5.994   8.436  0.1778 -0.4546  0.1243
  136OSM   H18F14854   6.583   6.068   8.515 -0.2769  0.0544 -0.2003
  136OSM   H18G14855   6.634   5.914   8.428  1.8742  1.1413 -0.2657
  136OSM   H18H14856   6.466   5.946   8.476  0.4165 -0.0732  1.1668
  137OSM      N14857   2.103   4.379   6.417  0.6164  0.2404 -0.1300
  137OSM    C1514858   2.120   4.260   6.507 -0.7763  0.0793  0.0556
  137OSM   H15A14859   2.222   4.224   6.511 -0.5523  0.2536 -2.3959
  137OSM   H15B14860   2.062   4.176   6.472  0.5456 -1.1647  0.7326
  137OSM   H15C14861   2.085   4.284   6.606 -0.8138 -0.0942  0.0847
  137OSM    C1414862   2.191   4.494   6.456  0.1298  0.1611 -0.3423
  137OSM   H14A14863   2.196   4.571   6.380  2.7146  2.0429  1.5658
  137OSM   H14B14864   2.292   4.459   6.443  0.2481 -0.1097  1.0851
  137OSM   H14C14865   2.167   4.548   6.547  1.3610  0.6995 -0.3150
  137OSM    C1314866   2.138   4.336   6.274 -0.9868  0.2772 -0.2366
  137OSM   H13A14867   2.076   4.256   6.237  0.3138  0.1575 -2.3119
  137OSM   H13B14868   2.241   4.307   6.260 -1.1423  0.2371 -1.3806
  137OSM   H13C14869   2.117   4.414   6.203 -0.4435  0.1995 -0.4885
  137OSM    C1214870   1.959   4.428   6.423  0.0045  0.4763 -1.1141
  137OSM   H12A14871   1.892   4.361   6.371  1.3107 -2.2859  0.5345
  137OSM   H12B14872   1.955   4.527   6.379 -0.6579  0.6734 -0.6435
  137OSM    C1114873   1.906   4.447   6.568  0.1947 -0.0316 -0.0348
  137OSM   H11A14874   1.976   4.508   6.628 -1.3130  0.5401  1.2233
  137OSM   H11B14875   1.900   4.348   6.617 -2.2235 -0.9618 -1.9504
  137OSM      P14876   1.652   4.441   6.514 -0.0725  0.3883 -0.3375
  137OSM    O1314877   1.535   4.533   6.496 -0.0033  0.4163 -0.0224
  137OSM    O1414878   1.672   4.356   6.398  0.3793  0.7254 -0.0155
  137OSM    O1114879   1.631   4.334   6.634  0.6966 -0.7111  0.2344
  137OSM    O1214880   1.782   4.515   6.555 -0.8475 -0.4276 -0.0862
  137OSM    C1S14881   1.645   4.393   6.761 -0.2251  0.6154 -1.0646
  137OSM    H1S14882   1.563   4.462   6.788 -1.1239 -0.5896 -0.6103
  137OSM    H1T14883   1.741   4.444   6.785  0.4855 -1.7022  1.5925
  137OSM     NF14884   1.681   4.319   7.003  0.6168 -0.2441  0.0976
  137OSM    HNF14885   1.770   4.295   7.040 -0.4038  0.5727  3.3999
  137OSM    C2S14886   1.653   4.273   6.866  0.5498 -0.3268 -0.8378
  137OSM    H2S14887   1.554   4.222   6.867  0.9070 -1.0370 -1.2264
  137OSM    C3S14888   1.761   4.173   6.809  0.1828  0.4897 -0.5877
  137OSM    H3S14889   1.849   4.236   6.785  0.3855 -0.2329 -1.7831
  137OSM     O314890   1.722   4.112   6.689 -0.3524 -0.1535  0.8171
  137OSM    HO314891   1.659   4.179   6.663  0.8544  0.3259 -1.0149
  137OSM    C4S14892   1.798   4.070   6.917 -0.1276 -0.3388  0.0952
  137OSM    H4S14893   1.900   4.081   6.955 -0.3263 -1.0795  0.8887
  137OSM    C5S14894   1.730   3.960   6.950  0.4566 -0.1933 -0.3707
  137OSM    H5S14895   1.641   3.929   6.894  0.2449 -0.4783  0.1276
  137OSM    C6S14896   1.766   3.857   7.044  0.3424  0.2568 -0.5383
  137OSM    H6S14897   1.726   3.882   7.144  1.7265 -0.2815  0.1844
  137OSM    H6T14898   1.875   3.864   7.065  0.5070 -0.5300 -1.0930
  137OSM    C7S14899   1.737   3.708   7.008  0.6320  0.0784 -1.1994
  137OSM    H7S14900   1.780   3.669   6.914  3.9372  0.8378 -0.1492
  137OSM    H7T14901   1.628   3.692   6.993  0.6862  1.1012 -2.8187
  137OSM    C8S14902   1.784   3.617   7.123  0.2692 -0.4614  0.1752
  137OSM    H8S14903   1.747   3.644   7.224 -1.0952 -0.4213 -0.3174
  137OSM    H8T14904   1.892   3.639   7.143  0.3514 -2.7460  2.8368
  137OSM    C9S14905   1.763   3.467   7.097 -0.5807  0.3742  0.5749
  137OSM    H9S14906   1.834   3.440   7.016 -1.4541 -0.7997  0.1571
  137OSM    H9T14907   1.657   3.458   7.063 -0.8752 -1.2758  1.7645
  137OSM   C10S14908   1.776   3.385   7.227  0.4956  0.4129 -0.3099
  137OSM   H10S14909   1.768   3.279   7.195  2.5144  0.5629 -1.5099
  137OSM   H10T14910   1.690   3.409   7.293 -1.0158 -1.5406 -1.4624
  137OSM   C11S14911   1.914   3.401   7.295  0.4081 -0.2434 -0.1640
  137OSM   H11S14912   1.922   3.499   7.347  0.0032 -0.1323 -0.3034
  137OSM   H11T14913   1.988   3.391   7.213 -0.7201  0.0273 -1.2410
  137OSM   C12S14914   1.937   3.292   7.407 -0.2073 -0.0412 -0.0868
  137OSM   H12S14915   2.043   3.317   7.431 -0.3194  2.6512 -1.9653
  137OSM   H12T14916   1.924   3.193   7.360 -0.3872 -1.1886  2.2384
  137OSM   C13S14917   1.815   3.305   7.514  0.7951 -0.1188 -0.2197
  137OSM   H13S14918   1.719   3.270   7.468  0.5045  0.1732  0.1578
  137OSM   H13T14919   1.805   3.414   7.533  0.5891 -0.0204 -0.8732
  137OSM   C14S14920   1.847   3.240   7.646 -0.1625  0.1157  0.2368
  137OSM   H14S14921   1.952   3.273   7.662 -0.4636  1.8032 -0.9686
  137OSM   H14T14922   1.856   3.131   7.622  1.3962  0.0233  1.1210
  137OSM   C15S14923   1.749   3.270   7.762 -0.1658  0.8325 -1.0826
  137OSM   H15S14924   1.645   3.278   7.723 -0.1269  0.7527 -1.2017
  137OSM   H15T14925   1.782   3.371   7.794  0.4727  0.5273 -0.7619
  137OSM   C16S14926   1.745   3.162   7.877  0.8249 -0.1347 -0.3334
  137OSM   H16S14927   1.716   3.062   7.840 -0.5713 -0.2824  1.0458
  137OSM   H16T14928   1.657   3.195   7.936  1.1985 -1.0799  0.7995
  137OSM   C17S14929   1.875   3.146   7.964 -0.1354 -0.0948  0.3616
  137OSM   H17S14930   1.893   3.247   8.008 -0.3751  0.2154 -0.2417
  137OSM   H17T14931   1.960   3.114   7.901  0.6878  2.4969  0.0262
  137OSM   C18S14932   1.843   3.051   8.086  0.4728 -0.1432 -0.1588
  137OSM   H18S14933   1.941   3.042   8.138  2.5173 -0.7425 -3.7649
  137OSM   H18T14934   1.816   2.948   8.056  1.2151 -0.1068 -1.0103
  137OSM   H18U14935   1.763   3.102   8.144  0.1103  1.3088 -1.8233
  137OSM    C1F14936   1.597   4.392   7.077 -0.6400 -0.2971  0.1254
  137OSM     OF14937   1.487   4.420   7.032 -0.2404  0.4289  0.0581
  137OSM    C2F14938   1.655   4.458   7.201  0.3103 -0.3699  0.3084
  137OSM    H2F14939   1.725   4.538   7.169 -1.1044  1.2657  1.1675
  137OSM    H2G14940   1.715   4.383   7.259  1.6718 -0.6331 -1.3699
  137OSM    C3F14941   1.556   4.512   7.306  0.2203  0.2880 -0.0456
  137OSM    H3F14942   1.489   4.431   7.343  0.0641  0.7516  0.7297
  137OSM    H3G14943   1.483   4.576   7.252 -0.7906 -0.1756  0.7251
  137OSM    C4F14944   1.641   4.599   7.407 -0.4559 -0.3300 -0.5975
  137OSM    H4F14945   1.574   4.668   7.463 -0.3901 -1.2759  0.6944
  137OSM    H4G14946   1.705   4.667   7.347  0.1370 -1.1901 -0.9608
  137OSM    C5F14947   1.722   4.517   7.511 -0.3320  0.0667 -0.5437
  137OSM    H5F14948   1.792   4.454   7.452 -1.6744 -1.1560 -0.8711
  137OSM    H5G14949   1.655   4.455   7.573  0.6189 -1.0061 -0.5584
  137OSM    C6F14950   1.799   4.608   7.613  0.2603 -0.0040  0.1080
  137OSM    H6F14951   1.723   4.680   7.650  0.5230 -0.0568  0.7773
  137OSM    H6G14952   1.883   4.671   7.575  1.3072  0.1141  2.4102
  137OSM    C7F14953   1.858   4.536   7.732 -0.4791 -0.1160  0.8408
  137OSM    H7F14954   1.910   4.443   7.699 -0.9344 -0.6142  1.4861
  137OSM    H7G14955   1.772   4.503   7.795 -0.4327  1.7139  1.9257
  137OSM    C8F14956   1.943   4.628   7.832  0.0506  0.7246  0.4094
  137OSM    H8F14957   2.004   4.687   7.761 -0.2793  0.2808 -0.2604
  137OSM    H8G14958   2.006   4.550   7.879 -0.9536 -1.6224 -1.9149
  137OSM    C9F14959   1.865   4.713   7.924 -0.0712  0.1511  0.4843
  137OSM    H9F14960   1.851   4.816   7.886 -2.4389 -0.3816 -0.2376
  137OSM   C10F14961   1.825   4.677   8.040  0.1015  0.5831 -0.3650
  137OSM   H10F14962   1.772   4.745   8.109 -1.1739 -0.5457 -0.1869
  137OSM   C11F14963   1.835   4.550   8.113 -1.3392 -0.4784  0.3758
  137OSM   H11F14964   1.893   4.562   8.207 -1.4824  1.3061  0.2621
  137OSM   H11G14965   1.883   4.468   8.056 -3.0742 -0.7769 -0.6881
  137OSM   C12F14966   1.695   4.490   8.154 -0.0103  0.0919 -0.2038
  137OSM   H12F14967   1.726   4.395   8.203  1.2239 -0.5318 -2.0614
  137OSM   H12G14968   1.626   4.481   8.068  0.2599  1.2870 -0.5580
  137OSM   C13F14969   1.626   4.573   8.269  0.5173 -0.2798  0.0236
  137OSM   H13F14970   1.594   4.671   8.226  1.2586 -0.3417 -0.6833
  137OSM   H13G14971   1.700   4.588   8.351  0.1134  2.3852  0.0127
  137OSM   C14F14972   1.502   4.509   8.332 -0.2263  0.2909 -0.4666
  137OSM   H14F14973   1.421   4.493   8.258 -0.9475  0.1035  0.3554
  137OSM   H14G14974   1.448   4.581   8.397 -0.5734  0.8792 -1.3873
  137OSM   C15F14975   1.538   4.389   8.423 -0.4846  0.4503 -0.4309
  137OSM   H15F14976   1.620   4.413   8.495 -1.4043  2.4704 -0.0017
  137OSM   H15G14977   1.575   4.305   8.361  1.7196 -0.5778  2.0462
  137OSM   C16F14978   1.414   4.337   8.505  0.0287 -0.1226 -0.4782
  137OSM   H16F14979   1.319   4.326   8.447 -0.4913  0.7409  0.1824
  137OSM   H16G14980   1.396   4.405   8.591 -0.8557 -2.5170  1.3388
  137OSM   C17F14981   1.445   4.197   8.561  0.1259 -0.3697  0.2620
  137OSM   H17F14982   1.540   4.193   8.618  0.4511 -2.0915 -0.3414
  137OSM   H17G14983   1.448   4.135   8.468 -1.5498 -0.3346  0.1504
  137OSM   C18F14984   1.328   4.145   8.646  0.1574  0.5880 -0.2471
  137OSM   H18F14985   1.334   4.040   8.683  0.9759  0.4174 -0.8289
  137OSM   H18G14986   1.233   4.161   8.591  2.1544  0.5005 -4.0603
  137OSM   H18H14987   1.334   4.206   8.739 -2.5771  0.3294  0.1854
  138OSM      N14988   1.426   0.920   6.106  0.2555 -0.0459 -0.5727
  138OSM    C1514989   1.411   1.022   6.000 -0.4086 -0.2459 -0.1616
  138OSM   H15A14990   1.341   0.990   5.925  1.6865  0.1501 -2.4000
  138OSM   H15B14991   1.511   1.044   5.965  0.0405  0.4544  1.4645
  138OSM   H15C14992   1.373   1.114   6.042 -1.3711 -0.0185 -1.4857
  138OSM    C1414993   1.514   0.817   6.049  0.2093 -0.2259  0.3401
  138OSM   H14A14994   1.458   0.764   5.974  1.8907 -0.2798 -0.9429
  138OSM   H14B14995   1.536   0.748   6.129  1.9819 -0.2653 -0.1292
  138OSM   H14C14996   1.610   0.851   6.012  0.7210 -0.7754  1.1265
  138OSM    C1314997   1.491   0.992   6.225 -0.3846 -0.2469 -0.1569
  138OSM   H13A14998   1.596   0.991   6.198  0.1641  0.8833  1.7402
  138OSM   H13B14999   1.472   0.947   6.321 -1.1392  2.0862  0.8423
  138OSM   H13C15000   1.448   1.087   6.254 -1.1296 -1.6565  4.0536
  138OSM    C1215001   1.289   0.869   6.150 -0.3754 -0.1601 -1.1039
  138OSM   H12A15002   1.225   0.956   6.151  0.7626  0.7255 -2.5894
  138OSM   H12B15003   1.300   0.830   6.250 -1.1609  0.5886 -0.7101
  138OSM    C1115004   1.216   0.760   6.069 -0.6688 -0.1063  0.1189
  138OSM   H11A15005   1.198   0.796   5.966 -0.7594 -0.8953 -0.1528
  138OSM   H11B15006   1.123   0.746   6.129  1.1989  0.3384  3.3375
  138OSM      P15007   1.306   0.517   6.135 -0.0457  0.2620  0.1055
  138OSM    O1315008   1.183   0.432   6.101 -0.1071 -0.5820  0.2803
  138OSM    O1415009   1.432   0.444   6.119 -0.5979 -0.2425 -0.4936
  138OSM    O1115010   1.295   0.565   6.281 -0.2423 -0.1506 -0.1974
  138OSM    O1215011   1.296   0.640   6.048 -0.4074  0.0625  0.1642
  138OSM    C1S15012   1.280   0.479   6.395  0.0882  0.2698 -0.3515
  138OSM    H1S15013   1.297   0.370   6.380  1.3433  0.3128  0.6621
  138OSM    H1T15014   1.175   0.489   6.429 -0.3198  0.7475 -1.6853
  138OSM     NF15015   1.383   0.433   6.615  0.1178  0.4072 -0.1963
  138OSM    HNF15016   1.353   0.468   6.704  2.4346  0.6600  0.5637
  138OSM    C2S15017   1.379   0.529   6.507 -0.7751 -0.3869  0.3271
  138OSM    H2S15018   1.477   0.544   6.456 -1.7817 -0.2702 -1.6835
  138OSM    C3S15019   1.341   0.675   6.546 -0.8276  0.4369 -0.0313
  138OSM    H3S15020   1.240   0.691   6.590 -0.8481  0.4342 -0.0775
  138OSM     O315021   1.347   0.771   6.437 -0.2768 -0.2904  0.3134
  138OSM    HO315022   1.363   0.719   6.357 -0.5770  1.0864 -0.6833
  138OSM    C4S15023   1.430   0.726   6.660  0.0356 -0.6513 -0.6084
  138OSM    H4S15024   1.386   0.709   6.760 -0.6880  1.5509 -0.4921
  138OSM    C5S15025   1.542   0.786   6.637 -0.1810 -0.4375 -0.4669
  138OSM    H5S15026   1.567   0.800   6.531  0.9785  0.4637 -0.0991
  138OSM    C6S15027   1.635   0.850   6.739  0.0844 -0.8027 -0.5556
  138OSM    H6S15028   1.648   0.953   6.701 -2.5576  0.2980  1.2604
  138OSM    H6T15029   1.731   0.794   6.735 -0.3671 -1.8972  2.1792
  138OSM    C7S15030   1.587   0.863   6.886 -0.1893 -0.0809 -0.0218
  138OSM    H7S15031   1.682   0.893   6.936  1.7052 -0.4683 -3.1216
  138OSM    H7T15032   1.560   0.765   6.930 -1.5598  0.3957  0.2507
  138OSM    C8S15033   1.487   0.969   6.916  0.1463 -0.3475 -0.4632
  138OSM    H8S15034   1.396   0.970   6.853 -0.9213  3.5452  0.8180
  138OSM    H8T15035   1.533   1.067   6.892 -0.8892 -0.3060 -2.4766
  138OSM    C9S15036   1.425   0.959   7.060  0.0740 -0.3962  0.0557
  138OSM    H9S15037   1.498   0.937   7.142 -0.4686 -0.2296  0.5904
  138OSM    H9T15038   1.353   0.875   7.059 -0.2595 -0.1090 -0.5337
  138OSM   C10S15039   1.330   1.081   7.097  0.1552 -0.1615 -0.0133
  138OSM   H10S15040   1.268   1.096   7.005 -1.1338 -0.2926  0.8092
  138OSM   H10T15041   1.390   1.175   7.096  2.7261 -1.7000  0.9546
  138OSM   C11S15042   1.263   1.070   7.232  0.9243  0.8533  0.2979
  138OSM   H11S15043   1.190   0.987   7.231  2.8240 -0.9364  1.1149
  138OSM   H11T15044   1.206   1.162   7.257  0.2605  0.7446 -0.7552
  138OSM   C12S15045   1.364   1.035   7.340 -0.3481  0.1260  1.0193
  138OSM   H12S15046   1.465   1.078   7.320 -0.5156 -0.5196 -1.6587
  138OSM   H12T15047   1.380   0.926   7.333  0.2362  0.2114  0.8878
  138OSM   C13S15048   1.324   1.063   7.482  0.5723 -0.2839  0.4472
  138OSM   H13S15049   1.227   1.010   7.494  0.1843 -0.0689 -1.4123
  138OSM   H13T15050   1.299   1.171   7.486  0.5868 -0.2683  0.1308
  138OSM   C14S15051   1.428   1.023   7.589 -0.5023 -0.7563 -0.0225
  138OSM   H14S15052   1.530   1.059   7.564  0.4380 -1.8242  2.0160
  138OSM   H14T15053   1.443   0.914   7.603  0.9787 -0.2299  3.6507
  138OSM   C15S15054   1.384   1.073   7.730 -0.0378  0.2046  0.8981
  138OSM   H15S15055   1.297   1.011   7.758  0.2694 -0.7726 -0.2192
  138OSM   H15T15056   1.345   1.177   7.733 -1.9278 -0.4956  2.2035
  138OSM   C16S15057   1.493   1.050   7.842 -0.2904 -0.4943 -0.0183
  138OSM   H16S15058   1.585   1.107   7.815 -0.1714 -0.1164  1.1367
  138OSM   H16T15059   1.517   0.942   7.837  2.2142 -0.0310  0.5950
  138OSM   C17S15060   1.449   1.089   7.983  0.3781 -0.3796 -0.3321
  138OSM   H17S15061   1.447   1.197   8.007  0.2851 -1.0318  3.1276
  138OSM   H17T15062   1.532   1.054   8.049  0.9344 -0.1170 -0.8778
  138OSM   C18S15063   1.313   1.051   8.031 -0.1952  0.0449 -0.0842
  138OSM   H18S15064   1.299   1.083   8.136  0.5083 -1.2416  0.4105
  138OSM   H18T15065   1.304   0.940   8.029  0.2196 -0.0656  2.1634
  138OSM   H18U15066   1.240   1.091   7.957  2.6810  3.7585 -1.2240
  138OSM    C1F15067   1.431   0.314   6.600 -0.2404  0.4683  0.6093
  138OSM     OF15068   1.522   0.288   6.518 -0.4124 -0.1033  0.3480
  138OSM    C2F15069   1.366   0.202   6.679 -0.1741 -0.7109 -0.0677
  138OSM    H2F15070   1.333   0.115   6.618  0.4112 -1.0734  0.1258
  138OSM    H2G15071   1.275   0.243   6.729  0.5913 -1.4109  2.0016
  138OSM    C3F15072   1.459   0.133   6.777  0.3731 -0.6752 -0.3034
  138OSM    H3F15073   1.477   0.206   6.859  1.7932  2.4895 -3.1990
  138OSM    H3G15074   1.551   0.104   6.722 -1.1797 -0.6190 -3.1157
  138OSM    C4F15075   1.392   0.013   6.841 -0.2027 -0.1347  0.0330
  138OSM    H4F15076   1.391  -0.077   6.776 -5.4966 -0.0538 -0.4301
  138OSM    H4G15077   1.285   0.031   6.864 -0.9653  0.0933 -3.2116
  138OSM    C5F15078   1.463  -0.019   6.980 -0.1640 -0.0367  0.2690
  138OSM    H5F15079   1.421   0.055   7.052 -1.9942  1.3834 -2.0903
  138OSM    H5G15080   1.573  -0.009   6.964 -0.2158 -1.7093 -1.3463
  138OSM    C6F15081   1.432  -0.154   7.026  0.0756 -0.2050  0.2657
  138OSM    H6F15082   1.447  -0.230   6.946 -2.3064  1.7578 -2.2542
  138OSM    H6G15083   1.326  -0.166   7.059  0.1806 -2.3152 -0.0117
  138OSM    C7F15084   1.523  -0.181   7.147  0.2220 -0.5642  0.1815
  138OSM    H7F15085   1.473  -0.134   7.234 -1.4084  0.1776 -1.1048
  138OSM    H7G15086   1.622  -0.138   7.123 -0.0290 -0.1937 -0.1920
  138OSM    C8F15087   1.525  -0.337   7.172 -0.6130  0.0518  0.0429
  138OSM    H8F15088   1.537  -0.393   7.078  1.4159  0.1527  0.2077
  138OSM    H8G15089   1.429  -0.372   7.218 -0.4203  2.9443  3.1109
  138OSM    C9F15090   1.647  -0.359   7.258 -0.1291 -0.0896  0.2662
  138OSM    H9F15091   1.737  -0.358   7.195 -2.0273  4.5515 -2.9602
  138OSM   C10F15092   1.647  -0.376   7.392 -0.0112  0.3711  0.0671
  138OSM   H10F15093   1.749  -0.385   7.433  1.4191  1.0040 -3.1069
  138OSM   C11F15094   1.540  -0.388   7.494  0.5135 -0.3212  1.1271
  138OSM   H11F15095   1.522  -0.487   7.541 -2.6548 -0.0964  0.5990
  138OSM   H11G15096   1.445  -0.358   7.445  0.5123 -1.0308  0.6833
  138OSM   C12F15097   1.559  -0.283   7.610 -0.3247 -0.2357  0.0405
  138OSM   H12F15098   1.464  -0.278   7.669  0.4870 -0.9011  1.4579
  138OSM   H12G15099   1.586  -0.182   7.572  0.0032 -0.4057 -0.1770
  138OSM   C13F15100   1.657  -0.324   7.722  0.2775  0.2133 -0.3276
  138OSM   H13F15101   1.761  -0.304   7.689  0.2313 -0.3528 -0.8328
  138OSM   H13G15102   1.641  -0.434   7.725 -1.9999  0.5027 -0.0196
  138OSM   C14F15103   1.640  -0.267   7.867  0.2241  0.1646 -0.5494
  138OSM   H14F15104   1.681  -0.343   7.937  0.3541 -0.3251 -1.1530
  138OSM   H14G15105   1.531  -0.255   7.884  0.7341  1.5169  2.6443
  138OSM   C15F15106   1.704  -0.127   7.893 -0.0832  0.6138  0.0407
  138OSM   H15F15107   1.670  -0.071   7.804 -0.7075 -1.2279 -0.9175
  138OSM   H15G15108   1.815  -0.137   7.900  0.1999  2.0665 -1.7070
  138OSM   C16F15109   1.666  -0.053   8.025  0.8744 -0.6698 -0.4999
  138OSM   H16F15110   1.701  -0.103   8.117  1.8532  0.6055 -0.1505
  138OSM   H16G15111   1.557  -0.031   8.032  0.0116 -3.5897 -2.6491
  138OSM   C17F15112   1.740   0.083   8.021 -0.2317 -0.4233  0.1253
  138OSM   H17F15113   1.724   0.136   7.925  0.4855 -0.8458 -0.2383
  138OSM   H17G15114   1.845   0.064   8.052 -0.2884 -2.7958 -0.9287
  138OSM   C18F15115   1.690   0.188   8.126  0.3608  0.3839 -0.2508
  138OSM   H18F15116   1.737   0.182   8.226 -4.3328  2.2553  2.3455
  138OSM   H18G15117   1.582   0.175   8.143  0.5123 -0.2153  0.2590
  138OSM   H18H15118   1.717   0.289   8.086 -0.3870  0.5727 -0.2907
  139OSM      N15119   0.573   0.407   6.135  0.2506  0.0096 -0.0179
  139OSM    C1515120   0.714   0.398   6.092  0.0433 -0.4788 -0.1742
  139OSM   H15A15121   0.766   0.485   6.130  1.4923 -0.3958 -2.1491
  139OSM   H15B15122   0.723   0.398   5.984 -0.9480 -1.9513 -0.2778
  139OSM   H15C15123   0.764   0.312   6.132  2.2799  0.9288  0.2822
  139OSM    C1415124   0.507   0.523   6.067 -0.1208 -0.1722  0.1177
  139OSM   H14A15125   0.506   0.496   5.962 -0.9786 -0.2052  0.1230
  139OSM   H14B15126   0.566   0.613   6.068  0.9142 -0.8166 -0.5528
  139OSM   H14C15127   0.406   0.532   6.105 -0.3880 -1.6805 -0.1412
  139OSM    C1315128   0.508   0.280   6.083  0.5330  0.0661  0.2467
  139OSM   H13A15129   0.401   0.294   6.089  0.6198  0.6889  0.3560
  139OSM   H13B15130   0.532   0.193   6.141  0.5701 -0.5346 -0.6390
  139OSM   H13C15131   0.536   0.272   5.979  1.4301 -0.7950  0.5368
  139OSM    C1215132   0.569   0.413   6.283  0.6886 -0.0827  0.1753
  139OSM   H12A15133   0.601   0.510   6.319 -0.7153  0.3680  0.2940
  139OSM   H12B15134   0.639   0.345   6.330  0.1939 -2.7678 -2.6725
  139OSM    C1115135   0.427   0.387   6.344 -0.0888  0.6862 -0.4028
  139OSM   H11A15136   0.436   0.379   6.454  1.5193  0.8526 -0.4876
  139OSM   H11B15137   0.404   0.285   6.307 -0.5130  0.8654 -0.6369
  139OSM      P15138   0.185   0.447   6.262  0.0609 -0.0438 -0.5657
  139OSM    O1315139   0.125   0.578   6.242 -0.5626  0.1567  0.4097
  139OSM    O1415140   0.188   0.356   6.145 -0.6831 -0.2051  0.4583
  139OSM    O1115141   0.109   0.369   6.384  0.0085 -0.5021 -0.5389
  139OSM    O1215142   0.331   0.484   6.310  0.8477  0.4841 -0.3993
  139OSM    C1S15143   0.125   0.417   6.517  0.5658  0.3522  0.4657
  139OSM    H1S15144   0.137   0.527   6.518 -2.0037  0.7571 -1.5864
  139OSM    H1T15145   0.216   0.378   6.568 -0.0214 -1.6511  0.0636
  139OSM     NF15146   0.006   0.416   6.731  0.4457 -0.2473 -0.0518
  139OSM    HNF15147   0.013   0.349   6.805 -0.4791 -0.1586  0.1304
  139OSM    C2S15148   0.003   0.365   6.598  0.1514  0.3844  0.7227
  139OSM    H2S15149  -0.090   0.407   6.554 -1.5874 -1.6324  2.2255
  139OSM    C3S15150  -0.016   0.212   6.592 -0.6919 -0.0297  0.3207
  139OSM    H3S15151   0.083   0.179   6.631  0.1269  3.2803  1.3957
  139OSM     O315152  -0.046   0.172   6.459  0.0029 -0.6938 -0.1156
  139OSM    HO315153  -0.015   0.244   6.403 -0.2104 -1.5320 -1.3489
  139OSM    C4S15154  -0.123   0.177   6.694  0.0272 -0.2863  0.4011
  139OSM    H4S15155  -0.081   0.164   6.795 -1.5517 -0.8349  1.0291
  139OSM    C5S15156  -0.253   0.180   6.687  0.2944  0.0222  0.0500
  139OSM    H5S15157  -0.291   0.228   6.596 -1.6739 -0.8344  0.3558
  139OSM    C6S15158  -0.353   0.160   6.795  0.1953  0.3136  1.2157
  139OSM    H6S15159  -0.429   0.085   6.763  1.9942 -0.7793 -0.7607
  139OSM    H6T15160  -0.408   0.256   6.796 -1.4861 -0.6062  1.0720
  139OSM    C7S15161  -0.294   0.124   6.934  0.7200  0.1761 -0.3038
  139OSM    H7S15162  -0.234   0.206   6.979 -0.7659 -0.0444  2.2114
  139OSM    H7T15163  -0.227   0.035   6.932 -1.1799 -1.3880  1.5208
  139OSM    C8S15164  -0.409   0.108   7.037 -0.2461 -0.7622 -0.9489
  139OSM    H8S15165  -0.450   0.008   7.011  0.3480 -1.3280  0.2115
  139OSM    H8T15166  -0.488   0.185   7.020 -1.7034 -2.1972 -0.8776
  139OSM    C9S15167  -0.360   0.103   7.180 -0.2533 -0.2619 -0.6088
  139OSM    H9S15168  -0.305   0.198   7.198 -2.0254  0.8038 -0.5592
  139OSM    H9T15169  -0.282   0.025   7.191  1.5545  1.7179  1.5487
  139OSM   C10S15170  -0.464   0.098   7.294 -0.6094  0.3065  0.7787
  139OSM   H10S15171  -0.507  -0.004   7.298  1.5702 -0.7636 -1.1501
  139OSM   H10T15172  -0.550   0.166   7.272 -0.7963 -0.4717 -1.0461
  139OSM   C11S15173  -0.411   0.132   7.427  0.4031  0.6166 -0.6936
  139OSM   H11S15174  -0.507   0.147   7.482  0.6229  1.8304 -0.6132
  139OSM   H11T15175  -0.361   0.231   7.429  1.5753  0.0259  0.4077
  139OSM   C12S15176  -0.333   0.016   7.489 -0.0490 -0.1264  0.4408
  139OSM   H12S15177  -0.254  -0.022   7.420  0.3371 -2.1783  1.8909
  139OSM   H12T15178  -0.396  -0.075   7.502  2.5796 -2.7150 -3.0027
  139OSM   C13S15179  -0.257   0.050   7.622  0.0632 -0.5086  0.4435
  139OSM   H13S15180  -0.216   0.153   7.613 -0.7593 -0.3575 -2.7129
  139OSM   H13T15181  -0.176  -0.026   7.629  0.1843 -0.4751 -0.4910
  139OSM   C14S15182  -0.339   0.025   7.753 -0.1770 -0.3868  0.9277
  139OSM   H14S15183  -0.379  -0.077   7.735  0.3161 -0.7364  1.7887
  139OSM   H14T15184  -0.426   0.094   7.763 -0.5157 -0.5689 -0.4691
  139OSM   C15S15185  -0.253   0.034   7.875 -0.3173 -0.1190 -0.0233
  139OSM   H15S15186  -0.153  -0.012   7.869  0.1761  0.7314  1.2425
  139OSM   H15T15187  -0.313  -0.022   7.949  0.2237 -1.2114 -0.4014
  139OSM   C16S15188  -0.239   0.184   7.919 -0.5813 -0.4549  0.1679
  139OSM   H16S15189  -0.333   0.242   7.908 -0.4050 -0.1971  0.0129
  139OSM   H16T15190  -0.169   0.229   7.846 -1.5193 -0.1639 -0.5693
  139OSM   C17S15191  -0.195   0.205   8.063 -0.4452 -0.4315  0.4983
  139OSM   H17S15192  -0.120   0.129   8.094 -1.2571 -1.6783 -0.5017
  139OSM   H17T15193  -0.284   0.195   8.130 -0.7447 -2.3917 -0.1417
  139OSM   C18S15194  -0.150   0.354   8.068  0.5330  0.2499  0.1501
  139OSM   H18S15195  -0.145   0.387   8.174 -0.8918 -3.0438  1.3859
  139OSM   H18T15196  -0.224   0.410   8.007  0.7208 -0.8882 -1.1811
  139OSM   H18U15197  -0.056   0.374   8.012 -0.7826  3.2149 -1.1653
  139OSM    C1F15198   0.008   0.546   6.755  0.3040  0.2700 -0.1518
  139OSM     OF15199  -0.030   0.621   6.673  0.5248  0.0628 -0.1888
  139OSM    C2F15200   0.056   0.578   6.889 -0.2644 -0.0863 -0.8188
  139OSM    H2F15201   0.147   0.518   6.912 -0.9070 -1.6777 -2.1803
  139OSM    H2G15202  -0.017   0.539   6.963  1.3736  2.0934  2.1981
  139OSM    C3F15203   0.075   0.727   6.922 -0.4357 -0.8603 -0.1229
  139OSM    H3F15204  -0.024   0.774   6.941  0.1368  0.6709 -0.7668
  139OSM    H3G15205   0.116   0.777   6.831  2.8698 -0.3634  1.4837
  139OSM    C4F15206   0.160   0.758   7.049 -0.1931 -0.1496  0.0236
  139OSM    H4F15207   0.207   0.858   7.035  0.2606 -0.2478  0.7836
  139OSM    H4G15208   0.236   0.679   7.069 -0.1872  0.2072  1.4965
  139OSM    C5F15209   0.087   0.756   7.179 -0.2379 -0.2580  0.3005
  139OSM    H5F15210   0.026   0.665   7.196 -0.5390 -0.2835 -0.8155
  139OSM    H5G15211   0.020   0.844   7.165 -1.7541 -1.3358  0.5550
  139OSM    C6F15212   0.178   0.783   7.299  0.0531 -0.0887 -0.2435
  139OSM    H6F15213   0.258   0.850   7.262 -1.0657  0.9769 -0.7923
  139OSM    H6G15214   0.240   0.700   7.340 -0.6385 -0.9725 -0.9288
  139OSM    C7F15215   0.111   0.864   7.413 -0.4150  0.0054  0.5548
  139OSM    H7F15216   0.014   0.810   7.409  0.6853 -2.0378  0.2368
  139OSM    H7G15217   0.085   0.966   7.377 -1.1247 -1.0707 -2.2291
  139OSM    C8F15218   0.168   0.855   7.556 -0.3198  0.7832  0.4382
  139OSM    H8F15219   0.183   0.746   7.573  0.6282  0.7664 -0.4463
  139OSM    H8G15220   0.104   0.902   7.634  1.1753  2.5371  0.6642
  139OSM    C9F15221   0.301   0.917   7.554  0.1494 -0.0022  0.9695
  139OSM    H9F15222   0.325   0.992   7.476 -0.1120 -0.7618  0.1444
  139OSM   C10F15223   0.389   0.909   7.656  0.0043 -0.0442 -0.3463
  139OSM   H10F15224   0.476   0.977   7.660  0.8494 -1.1403  1.0383
  139OSM   C11F15225   0.374   0.833   7.782 -0.5971  0.2419 -0.0623
  139OSM   H11F15226   0.473   0.812   7.827 -0.1010 -1.6018 -1.8688
  139OSM   H11G15227   0.325   0.738   7.751 -0.9022  1.1389 -2.6009
  139OSM   C12F15228   0.279   0.889   7.892 -1.2420  0.4611 -0.5121
  139OSM   H12F15229   0.178   0.910   7.849 -2.2143 -0.0120  1.3968
  139OSM   H12G15230   0.329   0.979   7.934  2.3809 -1.4663 -0.3591
  139OSM   C13F15231   0.241   0.796   8.010  0.2117 -0.0822 -0.4348
  139OSM   H13F15232   0.165   0.726   7.967  2.5619 -2.1613 -1.4729
  139OSM   H13G15233   0.193   0.866   8.081  0.7092 -0.6354  0.4699
  139OSM   C14F15234   0.359   0.724   8.075 -0.3611 -0.0702 -0.3125
  139OSM   H14F15235   0.457   0.774   8.063 -1.1399  1.0462 -2.5452
  139OSM   H14G15236   0.374   0.631   8.015  1.1602  1.0168 -1.7055
  139OSM   C15F15237   0.337   0.682   8.224 -0.6251  0.6115  0.2806
  139OSM   H15F15238   0.239   0.632   8.233 -0.1930 -0.1096  1.1817
  139OSM   H15G15239   0.335   0.776   8.282 -1.5319  0.4773  0.4757
  139OSM   C16F15240   0.438   0.586   8.288 -0.2771 -0.2734 -0.4456
  139OSM   H16F15241   0.533   0.643   8.287 -0.0419 -0.5922  1.1450
  139OSM   H16G15242   0.447   0.488   8.237 -2.8332  0.6902 -3.0441
  139OSM   C17F15243   0.410   0.569   8.437 -0.0867 -0.3815  0.1760
  139OSM   H17F15244   0.314   0.519   8.462 -0.9673  0.1725 -1.8909
  139OSM   H17G15245   0.405   0.672   8.478  0.4209 -0.9851  1.8337
  139OSM   C18F15246   0.530   0.497   8.506  0.5030  0.0155  0.8523
  139OSM   H18F15247   0.550   0.531   8.610  1.3893 -1.5543  1.2308
  139OSM   H18G15248   0.621   0.517   8.445  1.7019 -3.5958  1.2404
  139OSM   H18H15249   0.513   0.387   8.501 -1.8394  0.3544  0.3574
  140OSM      N15250   2.481   2.013   5.902  0.1587  0.1357 -0.6581
  140OSM    C1515251   2.622   1.974   5.905  1.0200 -0.6984  0.0075
  140OSM   H15A15252   2.654   1.904   5.830 -0.4450 -0.7118 -0.6341
  140OSM   H15B15253   2.647   1.947   6.007  2.5703  1.4256  0.2524
  140OSM   H15C15254   2.686   2.059   5.885  0.3080 -0.2423 -0.3728
  140OSM    C1415255   2.446   2.089   5.774 -0.6589  0.0979 -0.4164
  140OSM   H14A15256   2.348   2.134   5.778 -0.9948 -0.6828  0.3917
  140OSM   H14B15257   2.445   2.022   5.689 -1.3697  0.1260 -0.4391
  140OSM   H14C15258   2.525   2.159   5.752  0.9769 -1.7923 -0.8978
  140OSM    C1315259   2.389   1.900   5.904 -0.5042 -0.5249 -0.0877
  140OSM   H13A15260   2.288   1.928   5.877  0.0708  0.3031 -1.4864
  140OSM   H13B15261   2.387   1.855   6.002  0.2652  1.0977  0.7143
  140OSM   H13C15262   2.410   1.818   5.837 -0.1324 -0.1505 -0.4385
  140OSM    C1215263   2.452   2.101   6.026 -0.1920  0.0944  0.1019
  140OSM   H12A15264   2.350   2.138   6.026  0.0701  0.9967  2.4959
  140OSM   H12B15265   2.508   2.191   6.005 -0.4319  0.4544  0.9716
  140OSM    C1115266   2.481   2.042   6.171  0.7572 -0.0907 -0.9711
  140OSM   H11A15267   2.488   2.123   6.246 -0.2052 -1.9277  1.2168
  140OSM   H11B15268   2.579   1.989   6.166  0.0496 -1.4960 -0.5152
  140OSM      P15269   2.257   1.987   6.292 -0.1204  0.0631  0.1812
  140OSM    O1315270   2.234   2.135   6.281 -0.6865  0.1866  0.2086
  140OSM    O1415271   2.137   1.906   6.251 -0.2691  0.1604  0.4070
  140OSM    O1115272   2.304   1.945   6.432 -0.7298  0.3934 -0.3513
  140OSM    O1215273   2.377   1.942   6.196  0.2657 -0.0244  0.4607
  140OSM    C1S15274   2.345   1.809   6.456 -0.5024  0.1475  0.3550
  140OSM    H1S15275   2.454   1.796   6.434 -0.0035  3.2909  0.4574
  140OSM    H1T15276   2.280   1.741   6.399 -1.2277  1.1005  0.0199
  140OSM     NF15277   2.382   1.647   6.632  0.0261  0.8116 -0.5404
  140OSM    HNF15278   2.330   1.566   6.606 -2.2537  1.0471  2.6263
  140OSM    C2S15279   2.321   1.779   6.602  0.1175 -0.5724  0.6313
  140OSM    H2S15280   2.368   1.861   6.660 -3.2928  2.5396 -0.5545
  140OSM    C3S15281   2.167   1.769   6.624  0.0609 -0.5169  0.3574
  140OSM    H3S15282   2.129   1.685   6.563 -0.4753  0.4103 -0.6172
  140OSM     O315283   2.094   1.887   6.592  0.0874  0.2206 -0.8629
  140OSM    HO315284   2.158   1.933   6.539  0.4764 -1.7141 -2.2069
  140OSM    C4S15285   2.130   1.743   6.769  0.3800 -0.3502  0.5878
  140OSM    H4S15286   2.164   1.822   6.838 -0.1452 -0.0195  0.4762
  140OSM    C5S15287   2.048   1.647   6.810 -0.6512  0.3783  0.1011
  140OSM    H5S15288   1.999   1.587   6.733 -0.0840 -0.0526  0.0660
  140OSM    C6S15289   2.002   1.612   6.957 -0.5711 -0.3998  0.4313
  140OSM    H6S15290   1.996   1.501   6.961  2.5245 -0.7639 -1.6935
  140OSM    H6T15291   1.900   1.649   6.979 -0.2284  2.2712 -1.9919
  140OSM    C7S15292   2.090   1.659   7.078 -0.6904  0.0884  0.2546
  140OSM    H7S15293   2.078   1.769   7.088 -0.0075  0.1558  0.3781
  140OSM    H7T15294   2.191   1.615   7.068 -0.5423  0.4158  0.3258
  140OSM    C8S15295   2.044   1.605   7.215  0.4372 -0.1295 -0.0258
  140OSM    H8S15296   2.023   1.496   7.212 -0.2601 -0.0795  1.7899
  140OSM    H8T15297   1.940   1.640   7.232  0.4357 -0.4552  0.6713
  140OSM    C9S15298   2.125   1.647   7.334 -0.0227 -0.1134 -0.0035
  140OSM    H9S15299   2.131   1.757   7.328  3.3369  0.0890  3.2064
  140OSM    H9T15300   2.228   1.609   7.313  0.4810  0.1058  1.8452
  140OSM   C10S15301   2.054   1.612   7.469 -1.3608  0.0634  0.4904
  140OSM   H10S15302   2.050   1.501   7.470 -3.2505  0.0073 -2.5718
  140OSM   H10T15303   1.947   1.639   7.474 -0.9934  1.7112  0.2288
  140OSM   C11S15304   2.128   1.679   7.585  0.5532  0.0291  0.0254
  140OSM   H11S15305   2.140   1.788   7.566 -1.3303 -0.2647 -3.5938
  140OSM   H11T15306   2.234   1.649   7.598  0.0446 -1.2031  1.8211
  140OSM   C12S15307   2.059   1.650   7.718  0.5326  0.1724 -0.6013
  140OSM   H12S15308   2.042   1.541   7.730  2.4841  0.0006  1.0885
  140OSM   H12T15309   1.958   1.696   7.721  0.5607  0.4315 -2.4488
  140OSM   C13S15310   2.139   1.710   7.838  0.9418 -0.6304 -0.2449
  140OSM   H13S15311   2.149   1.816   7.806 -0.3071 -0.5702 -0.4888
  140OSM   H13T15312   2.237   1.663   7.859  1.2556  0.9342  2.2743
  140OSM   C14S15313   2.064   1.705   7.972  0.4918  0.6273 -0.1619
  140OSM   H14S15314   2.066   1.603   8.016  1.0098  1.5111  1.9925
  140OSM   H14T15315   1.957   1.735   7.960 -0.6668 -3.1899 -0.8358
  140OSM   C15S15316   2.135   1.795   8.074 -0.0712  0.3588 -0.1232
  140OSM   H15S15317   2.154   1.900   8.044  1.1455 -0.2026 -1.4483
  140OSM   H15T15318   2.235   1.746   8.082 -0.6352 -0.7955  0.0376
  140OSM   C16S15319   2.078   1.785   8.218 -0.3711 -0.3348  0.4094
  140OSM   H16S15320   2.153   1.799   8.298 -2.1468  0.2415  2.0529
  140OSM   H16T15321   2.028   1.687   8.233 -0.5681 -0.2336  0.4255
  140OSM   C17S15322   1.959   1.885   8.248 -0.1705  0.5805  0.9800
  140OSM   H17S15323   1.885   1.885   8.166  0.2463 -1.0056  0.5750
  140OSM   H17T15324   2.004   1.986   8.258  0.6662  0.5702 -1.8589
  140OSM   C18S15325   1.889   1.847   8.376  0.6164  0.4368 -0.8053
  140OSM   H18S15326   1.882   1.739   8.400 -0.6774  0.5633 -0.5255
  140OSM   H18T15327   1.788   1.895   8.377  0.8345  1.0072 -2.3329
  140OSM   H18U15328   1.944   1.890   8.462 -0.0999 -0.0921 -0.0623
  140OSM    C1F15329   2.509   1.630   6.655  0.3453  0.2307  0.8558
  140OSM     OF15330   2.582   1.727   6.667  0.6994  0.4426 -0.3425
  140OSM    C2F15331   2.566   1.492   6.672 -0.9480  0.1359 -0.3005
  140OSM    H2F15332   2.588   1.453   6.571  0.8513 -0.2326  0.1975
  140OSM    H2G15333   2.500   1.431   6.737 -0.0604 -1.7445 -1.0911
  140OSM    C3F15334   2.699   1.498   6.743  0.5861 -0.4147 -0.0264
  140OSM    H3F15335   2.763   1.571   6.690 -0.3293  3.1852  3.3323
  140OSM    H3G15336   2.741   1.397   6.727 -2.7962 -2.1763  1.1870
  140OSM    C4F15337   2.718   1.534   6.899  0.5315  0.2433  0.1732
  140OSM    H4F15338   2.662   1.458   6.957  2.2405 -2.3543 -1.3765
  140OSM    H4G15339   2.677   1.633   6.929 -0.0627 -0.3610  1.4037
  140OSM    C5F15340   2.870   1.532   6.939 -0.1311 -0.7685 -0.2138
  140OSM    H5F15341   2.917   1.622   6.894  0.0964 -0.6048  0.3373
  140OSM    H5G15342   2.933   1.452   6.894  1.0179  0.8347 -1.5684
  140OSM    C6F15343   2.881   1.533   7.100 -0.3082  0.1043 -0.6830
  140OSM    H6F15344   2.813   1.608   7.145  1.2041 -0.0201  2.0506
  140OSM    H6G15345   2.982   1.568   7.128 -0.4617  0.8429 -1.0467
  140OSM    C7F15346   2.843   1.392   7.152  0.5958 -1.4657 -0.1224
  140OSM    H7F15347   2.883   1.318   7.080  0.2484 -0.1466 -1.7418
  140OSM    H7G15348   2.733   1.379   7.158  0.2311  1.1686  0.0285
  140OSM    C8F15349   2.902   1.371   7.293  0.4204  0.0952 -0.5659
  140OSM    H8F15350   2.856   1.433   7.372 -0.9184 -0.7143 -0.6784
  140OSM    H8G15351   3.009   1.399   7.293  0.4260  0.0730 -0.8219
  140OSM    C9F15352   2.915   1.231   7.337  1.5456 -0.5168  0.8325
  140OSM    H9F15353   2.972   1.170   7.265  2.0300  0.0515  0.7261
  140OSM   C10F15354   2.879   1.176   7.458 -0.3006 -0.4498  0.5471
  140OSM   H10F15355   2.891   1.069   7.476 -1.6716 -0.5103  1.2583
  140OSM   C11F15356   2.806   1.239   7.578 -0.1864 -0.7325  0.5868
  140OSM   H11F15357   2.719   1.176   7.609 -1.7135  0.3309 -1.2983
  140OSM   H11G15358   2.751   1.332   7.552  0.3930 -0.7533 -0.7708
  140OSM   C12F15359   2.903   1.269   7.696  0.1606 -0.1693  0.2527
  140OSM   H12F15360   2.974   1.344   7.655  0.0221 -0.4897 -0.5956
  140OSM   H12G15361   2.958   1.180   7.734 -1.0821 -0.7915  0.6546
  140OSM   C13F15362   2.822   1.339   7.804 -0.3561 -0.2614 -0.9266
  140OSM   H13F15363   2.743   1.267   7.838 -1.2420  0.5425 -1.2279
  140OSM   H13G15364   2.755   1.422   7.771 -2.0607 -1.9477 -1.9556
  140OSM   C14F15365   2.899   1.401   7.923 -0.6228  0.8749  0.0304
  140OSM   H14F15366   2.821   1.436   7.993 -0.8419 -0.2560  0.3762
  140OSM   H14G15367   2.965   1.478   7.878  1.5855 -0.1642  1.2724
  140OSM   C15F15368   2.982   1.302   8.014  0.9495  0.2282  0.1355
  140OSM   H15F15369   3.057   1.243   7.957  2.0878  0.9698  0.8225
  140OSM   H15G15370   2.918   1.220   8.053  2.2416 -2.0828 -2.2648
  140OSM   C16F15371   3.059   1.378   8.129 -0.1382 -0.3765 -0.2840
  140OSM   H16F15372   3.085   1.313   8.215  0.7085  0.8543  0.4127
  140OSM   H16G15373   2.989   1.449   8.178  2.4165  1.2857  1.1559
  140OSM   C17F15374   3.179   1.461   8.079 -0.0347  0.2979  0.1907
  140OSM   H17F15375   3.154   1.494   7.976 -0.8488  1.5105  0.7618
  140OSM   H17G15376   3.274   1.403   8.079  0.1573  0.6053 -0.6437
  140OSM   C18F15377   3.211   1.581   8.161  0.4597  0.6628 -0.2491
  140OSM   H18F15378   3.241   1.551   8.264  1.1856  1.2416 -0.2837
  140OSM   H18G15379   3.118   1.635   8.189 -0.4901 -1.4547  0.9099
  140OSM   H18H15380   3.283   1.648   8.111 -0.7286  1.9913 -0.2432
  141OSM      N15381   1.528   3.636   6.270  1.0059 -0.1751  0.2213
  141OSM    C1515382   1.516   3.524   6.367  0.0443 -0.3156  0.2910
  141OSM   H15A15383   1.608   3.511   6.422  0.4269 -0.7841 -0.4529
  141OSM   H15B15384   1.501   3.425   6.329  1.2250 -1.2765  2.1447
  141OSM   H15C15385   1.435   3.540   6.436 -0.0041  2.6046 -0.3085
  141OSM    C1415386   1.650   3.615   6.184  0.1280 -0.4863 -0.9025
  141OSM   H14A15387   1.646   3.520   6.133 -1.9792 -0.7459 -0.3396
  141OSM   H14B15388   1.743   3.616   6.240  0.0332  1.1568 -0.7307
  141OSM   H14C15389   1.648   3.695   6.112 -0.6510 -0.7681 -1.2092
  141OSM    C1315390   1.407   3.625   6.178 -0.4501  0.3842  0.3613
  141OSM   H13A15391   1.428   3.661   6.079  1.3678 -0.7049  0.3147
  141OSM   H13B15392   1.326   3.683   6.220 -1.3682 -0.5362 -0.1031
  141OSM   H13C15393   1.372   3.523   6.178  0.9620 -0.1285  0.8741
  141OSM    C1215394   1.527   3.766   6.343  0.4253 -0.3056  0.0028
  141OSM   H12A15395   1.515   3.845   6.271 -3.5040 -0.7005 -0.0046
  141OSM   H12B15396   1.623   3.788   6.387  0.0223  0.2285  0.6520
  141OSM    C1115397   1.409   3.790   6.437 -0.3110  0.3727 -0.2413
  141OSM   H11A15398   1.428   3.880   6.498 -0.6412  2.1117 -2.5969
  141OSM   H11B15399   1.403   3.706   6.510  0.5511  1.2806  0.9121
  141OSM      P15400   1.220   3.940   6.341  0.0895  0.3239 -0.1964
  141OSM    O1315401   1.324   4.039   6.307  0.1582 -0.0896 -0.1724
  141OSM    O1415402   1.116   3.933   6.235 -0.7607  0.0831 -0.7211
  141OSM    O1115403   1.158   3.981   6.475 -0.0979 -0.2288 -0.2995
  141OSM    O1215404   1.284   3.798   6.364  0.1574 -0.1714 -0.1700
  141OSM    C1S15405   1.196   3.935   6.607 -0.5566  0.0133  0.4292
  141OSM    H1S15406   1.292   3.987   6.629 -1.0030  0.6023  0.9905
  141OSM    H1T15407   1.210   3.826   6.623  1.1389  0.1384  0.0194
  141OSM     NF15408   1.136   3.962   6.847  0.1111  0.6722  0.6253
  141OSM    HNF15409   1.098   3.879   6.889 -1.2047  0.2822 -1.1910
  141OSM    C2S15410   1.095   3.994   6.707  0.6563  0.2548 -0.6360
  141OSM    H2S15411   1.088   4.102   6.685 -2.3924  0.4610  0.8441
  141OSM    C3S15412   0.948   3.940   6.679 -0.3806 -0.2585  0.0349
  141OSM    H3S15413   0.954   3.829   6.685  0.2614 -0.5667 -3.6719
  141OSM     O315414   0.906   3.969   6.545  0.0520 -0.0658 -0.8475
  141OSM    HO315415   0.994   3.987   6.511 -0.7883  2.4764 -1.8372
  141OSM    C4S15416   0.851   3.997   6.770 -0.3867  0.7944 -0.5237
  141OSM    H4S15417   0.834   4.105   6.757 -0.3646  0.8559 -0.0475
  141OSM    C5S15418   0.783   3.932   6.865 -0.0661 -0.7555  0.1189
  141OSM    H5S15419   0.795   3.826   6.892  0.6858 -0.5657  0.5519
  141OSM    C6S15420   0.690   3.984   6.966  0.1910  0.7284 -0.1737
  141OSM    H6S15421   0.583   3.958   6.952  0.4117 -1.3637  1.4984
  141OSM    H6T15422   0.687   4.095   6.970  0.0568  0.7183 -0.0197
  141OSM    C7S15423   0.725   3.934   7.103  0.2088 -0.1364  0.1961
  141OSM    H7S15424   0.829   3.966   7.127  0.6444 -1.6871  0.5125
  141OSM    H7T15425   0.724   3.823   7.102 -1.4324 -0.1601  1.4788
  141OSM    C8S15426   0.625   3.973   7.204 -0.4906 -0.3098  0.8565
  141OSM    H8S15427   0.525   3.942   7.168 -0.6568 -0.0258  1.0663
  141OSM    H8T15428   0.630   4.084   7.209  1.2839 -0.3460  0.5783
  141OSM    C9S15429   0.664   3.918   7.338 -0.5400 -0.8715 -0.7163
  141OSM    H9S15430   0.679   3.808   7.331 -2.0314 -1.2434  0.9049
  141OSM    H9T15431   0.582   3.924   7.413  1.4557 -2.6650  1.7790
  141OSM   C10S15432   0.780   3.997   7.403  0.2282  0.4755 -0.4596
  141OSM   H10S15433   0.747   4.103   7.409 -0.8363  0.1071  0.6777
  141OSM   H10T15434   0.876   3.990   7.347  0.0442 -1.9909 -0.5867
  141OSM   C11S15435   0.800   3.936   7.546 -0.3096 -0.7133  0.6359
  141OSM   H11S15436   0.850   3.837   7.540  0.7093 -0.1125 -1.7377
  141OSM   H11T15437   0.704   3.911   7.595  0.7416 -0.4484  3.0138
  141OSM   C12S15438   0.871   4.026   7.644  0.3078 -0.5767  0.1994
  141OSM   H12S15439   0.804   4.113   7.660  1.4330  0.3341  0.1378
  141OSM   H12T15440   0.941   4.071   7.571 -0.2093 -1.2462 -0.7374
  141OSM   C13S15441   0.939   3.959   7.765 -0.1386 -0.3851  0.0182
  141OSM   H13S15442   0.988   4.042   7.820 -1.2869  0.2343  0.1295
  141OSM   H13T15443   1.024   3.891   7.740  0.0256  0.0583 -0.6511
  141OSM   C14S15444   0.849   3.907   7.870  0.4970  0.2185  0.0721
  141OSM   H14S15445   0.813   3.809   7.832  0.4172  0.9276 -1.7309
  141OSM   H14T15446   0.770   3.978   7.903 -0.2569 -0.7892  0.4765
  141OSM   C15S15447   0.926   3.879   8.002 -0.1724 -0.3652 -0.4069
  141OSM   H15S15448   1.008   3.809   7.975  0.1626 -0.2837  0.3789
  141OSM   H15T15449   0.863   3.824   8.076  0.5894  2.1796  2.3161
  141OSM   C16S15450   0.982   3.992   8.089 -0.1427  0.2197  0.1793
  141OSM   H16S15451   0.910   4.074   8.111  1.1171  0.8518  2.1739
  141OSM   H16T15452   1.069   4.027   8.028 -0.4961 -2.1942 -1.8840
  141OSM   C17S15453   1.053   3.947   8.220  1.0182 -0.6248  0.0441
  141OSM   H17S15454   1.129   3.868   8.206  1.7673  0.1741 -0.5567
  141OSM   H17T15455   0.974   3.902   8.284  0.5156 -1.8986 -1.4270
  141OSM   C18S15456   1.110   4.076   8.299  0.5412  0.5295 -0.6735
  141OSM   H18S15457   1.172   4.056   8.389  3.3943  1.5160 -2.2719
  141OSM   H18T15458   1.024   4.141   8.326 -0.6358 -0.9723 -0.7002
  141OSM   H18U15459   1.176   4.137   8.232 -0.3651  3.8229  1.2119
  141OSM    C1F15460   1.228   4.031   6.912  0.5404  0.1505 -0.3342
  141OSM     OF15461   1.281   4.129   6.852  0.1234  0.0565  0.0987
  141OSM    C2F15462   1.266   3.993   7.051 -0.4356 -0.0470 -0.0788
  141OSM    H2F15463   1.290   3.885   7.053  0.0427  0.0424 -0.6810
  141OSM    H2G15464   1.174   4.003   7.112 -2.0948 -0.0384 -2.4472
  141OSM    C3F15465   1.383   4.077   7.114 -1.3539  0.4260 -0.2345
  141OSM    H3F15466   1.362   4.186   7.116 -1.5249  0.4011  1.5320
  141OSM    H3G15467   1.466   4.062   7.042  0.1670  1.0006  1.3182
  141OSM    C4F15468   1.430   4.020   7.252 -0.0859 -0.1346 -0.0075
  141OSM    H4F15469   1.526   4.074   7.261 -0.1944  0.1354 -0.4426
  141OSM    H4G15470   1.448   3.911   7.257 -1.9042 -0.5584 -1.5353
  141OSM    C5F15471   1.330   4.050   7.368 -0.2201 -0.1328  0.7063
  141OSM    H5F15472   1.228   4.031   7.328 -0.4922 -0.4303  1.5359
  141OSM    H5G15473   1.340   4.160   7.381  0.3710  0.1464 -1.6073
  141OSM    C6F15474   1.357   3.976   7.499  0.0685  0.0251 -0.5782
  141OSM    H6F15475   1.366   3.868   7.474 -0.9850 -0.0629 -0.6166
  141OSM    H6G15476   1.275   3.983   7.574  1.3381  2.6935  0.7199
  141OSM    C7F15477   1.488   4.025   7.570 -0.0584 -0.3121 -0.1278
  141OSM    H7F15478   1.577   3.995   7.511 -0.0647  0.1117 -0.3605
  141OSM    H7G15479   1.481   3.969   7.665  0.3971 -1.2801 -0.6443
  141OSM    C8F15480   1.485   4.182   7.596  0.4345  0.1951 -0.1237
  141OSM    H8F15481   1.487   4.243   7.503 -2.4385  0.4795 -0.0790
  141OSM    H8G15482   1.576   4.218   7.649 -2.0775  4.5371  1.7680
  141OSM    C9F15483   1.370   4.233   7.676 -0.3163 -0.4107 -0.7047
  141OSM    H9F15484   1.285   4.256   7.611  0.3762 -1.1958 -1.9354
  141OSM   C10F15485   1.374   4.257   7.813 -0.0465 -0.8951  0.3182
  141OSM   H10F15486   1.284   4.282   7.870  0.4057 -0.3663  0.8116
  141OSM   C11F15487   1.493   4.235   7.897  0.3223  0.0139  0.2418
  141OSM   H11F15488   1.527   4.332   7.940 -0.6437  0.3603  0.2458
  141OSM   H11G15489   1.581   4.184   7.852 -0.0059 -1.2496  0.9748
  141OSM   C12F15490   1.429   4.144   8.008 -0.0163 -0.5774 -0.4457
  141OSM   H12F15491   1.370   4.058   7.971  1.6373 -1.7607 -0.4622
  141OSM   H12G15492   1.355   4.209   8.060  1.1809  1.6740 -1.3881
  141OSM   C13F15493   1.534   4.081   8.097 -0.0968 -0.3899  0.0413
  141OSM   H13F15494   1.588   4.158   8.156  0.0355  1.7728 -2.6885
  141OSM   H13G15495   1.612   4.022   8.046 -1.2323 -1.0096 -1.0320
  141OSM   C14F15496   1.468   3.985   8.195  0.8801 -0.4594  0.6892
  141OSM   H14F15497   1.389   3.933   8.136  0.4701  2.2332 -1.3409
  141OSM   H14G15498   1.398   4.035   8.265  0.8142  0.6924 -0.1708
  141OSM   C15F15499   1.565   3.887   8.258  0.5624  0.2584 -1.0754
  141OSM   H15F15500   1.634   3.941   8.326  0.7345 -0.5597 -0.5860
  141OSM   H15G15501   1.637   3.849   8.183  2.1088 -0.0087  0.4740
  141OSM   C16F15502   1.500   3.765   8.331 -0.7616 -0.1338 -0.5309
  141OSM   H16F15503   1.589   3.705   8.359 -0.2167  0.7642 -0.2941
  141OSM   H16G15504   1.440   3.709   8.256 -0.3412  0.1330 -1.0812
  141OSM   C17F15505   1.418   3.807   8.455  0.2354 -0.1708  0.0456
  141OSM   H17F15506   1.328   3.864   8.424 -1.4870 -2.1495  1.2142
  141OSM   H17G15507   1.479   3.887   8.502 -0.4538  2.5949 -3.3274
  141OSM   C18F15508   1.374   3.690   8.551  0.0219 -0.1019 -0.1012
  141OSM   H18F15509   1.458   3.621   8.578  1.3672  1.9826  1.3378
  141OSM   H18G15510   1.292   3.627   8.511 -2.1767  1.7623  1.2623
  141OSM   H18H15511   1.345   3.741   8.645  1.3781  0.6535 -0.0601
  142OSM      N15512   1.406   5.880   5.939 -0.1407  0.5745  0.0287
  142OSM    C1515513   1.292   5.969   5.922  0.5457  0.4636 -0.8986
  142OSM   H15A15514   1.279   5.976   5.815  1.1994  1.3346 -0.9374
  142OSM   H15B15515   1.321   6.069   5.950  0.5423 -0.2119  1.7822
  142OSM   H15C15516   1.214   5.931   5.986  1.5485  1.9280  1.2920
  142OSM    C1415517   1.360   5.745   5.935 -1.0128 -0.0749 -0.6955
  142OSM   H14A15518   1.295   5.726   6.019 -0.7825  0.2665 -0.4349
  142OSM   H14B15519   1.441   5.677   5.957  1.1564  1.9861 -1.8250
  142OSM   H14C15520   1.309   5.725   5.842 -0.4506  0.8538 -1.2177
  142OSM    C1315521   1.509   5.902   5.824  0.5189 -0.6881 -0.5060
  142OSM   H13A15522   1.489   5.867   5.724  3.0047  0.5820 -1.5273
  142OSM   H13B15523   1.603   5.856   5.850  0.1504 -0.7080  0.8671
  142OSM   H13C15524   1.529   6.008   5.823 -2.4960  0.0399  1.3417
  142OSM    C1215525   1.479   5.908   6.062 -0.0509  0.1528 -0.2396
  142OSM   H12A15526   1.519   6.008   6.054  2.6183 -0.8600 -0.6905
  142OSM   H12B15527   1.566   5.845   6.070  0.1258  0.0024 -2.8087
  142OSM    C1115528   1.409   5.890   6.195 -0.4679 -0.0952  0.3806
  142OSM   H11A15529   1.476   5.916   6.280 -1.0528  1.1891  0.4744
  142OSM   H11B15530   1.379   5.783   6.199 -2.2233  0.2414 -1.8902
  142OSM      P15531   1.239   6.048   6.315 -0.2429  0.1868  0.1997
  142OSM    O1315532   1.304   6.175   6.298  0.7089  0.1379 -0.4565
  142OSM    O1415533   1.092   6.048   6.321 -0.7290  0.1884  0.2576
  142OSM    O1115534   1.303   5.965   6.434 -0.1111  0.0023 -0.2003
  142OSM    O1215535   1.283   5.951   6.198 -0.0421 -0.5475 -0.2924
  142OSM    C1S15536   1.348   6.023   6.554 -0.0566  0.3328 -0.3586
  142OSM    H1S15537   1.278   6.105   6.581 -0.2264 -0.3889  1.5538
  142OSM    H1T15538   1.454   6.049   6.536 -0.1560  1.4937  0.6154
  142OSM     NF15539   1.393   5.992   6.803  0.1947  0.4391 -0.4747
  142OSM    HNF15540   1.474   5.958   6.849 -0.5226  0.8157  1.1284
  142OSM    C2S15541   1.355   5.926   6.678 -0.4566 -0.5214 -0.0826
  142OSM    H2S15542   1.252   5.885   6.691 -0.2984 -0.7143  0.5955
  142OSM    C3S15543   1.438   5.798   6.632 -0.7327 -0.3936 -0.9058
  142OSM    H3S15544   1.541   5.835   6.611 -0.5467 -0.2735  0.1576
  142OSM     O315545   1.383   5.722   6.524  0.3749 -0.3068 -0.1895
  142OSM    HO315546   1.332   5.790   6.478 -1.9232 -3.3492 -2.5387
  142OSM    C4S15547   1.438   5.707   6.750 -0.3754 -0.5196 -0.3080
  142OSM    H4S15548   1.339   5.663   6.766 -1.2761  1.7792  0.9690
  142OSM    C5S15549   1.537   5.660   6.821 -0.8897  0.7213 -0.5675
  142OSM    H5S15550   1.637   5.694   6.789 -0.8004  0.2075 -0.8565
  142OSM    C6S15551   1.529   5.565   6.936 -0.1021  0.4809  0.1910
  142OSM    H6S15552   1.541   5.469   6.883 -0.9429  0.0180  0.8100
  142OSM    H6T15553   1.431   5.566   6.989  0.3093 -0.3998  1.0003
  142OSM    C7S15554   1.637   5.587   7.046 -0.1111 -0.3151 -0.4119
  142OSM    H7S15555   1.642   5.694   7.078 -0.7287  0.6079 -3.1697
  142OSM    H7T15556   1.740   5.562   7.012 -0.1168 -1.9770  0.6947
  142OSM    C8S15557   1.597   5.507   7.172  0.0378  0.4179  1.1630
  142OSM    H8S15558   1.661   5.418   7.155  0.3846  0.7201  0.8762
  142OSM    H8T15559   1.490   5.478   7.164  0.2809 -0.5654  1.2765
  142OSM    C9S15560   1.631   5.568   7.305  0.1289  0.1841 -0.4915
  142OSM    H9S15561   1.589   5.671   7.314  0.2544  0.2183 -0.2904
  142OSM    H9T15562   1.742   5.578   7.299  0.2441  0.2681  1.2339
  142OSM   C10S15563   1.583   5.489   7.435 -0.6377 -0.1711 -0.6672
  142OSM   H10S15564   1.637   5.392   7.430  2.4423  1.2019  2.1183
  142OSM   H10T15565   1.473   5.475   7.431 -0.7265  0.3459 -0.2486
  142OSM   C11S15566   1.614   5.570   7.569  0.7796  0.1048 -0.4899
  142OSM   H11S15567   1.583   5.500   7.650  0.4861  2.1331  1.2494
  142OSM   H11T15568   1.541   5.653   7.575 -1.2760 -1.6456  0.1622
  142OSM   C12S15569   1.757   5.607   7.594 -0.1810  0.0389 -0.1987
  142OSM   H12S15570   1.778   5.692   7.525 -2.7856 -0.5620 -1.8498
  142OSM   H12T15571   1.806   5.514   7.560 -0.5825 -0.5807  0.9072
  142OSM   C13S15572   1.792   5.631   7.739  0.6831 -0.0317 -0.7047
  142OSM   H13S15573   1.783   5.534   7.791 -0.8768  0.8379  0.7648
  142OSM   H13T15574   1.716   5.699   7.784  2.5586  0.4503  1.9786
  142OSM   C14S15575   1.927   5.704   7.769 -0.8059  0.3023  0.7633
  142OSM   H14S15576   1.937   5.794   7.704 -1.1628 -0.3578 -0.2323
  142OSM   H14T15577   2.006   5.638   7.726 -1.5502  0.5608 -1.0947
  142OSM   C15S15578   1.949   5.717   7.917 -0.1184 -0.4430  0.0250
  142OSM   H15S15579   1.870   5.780   7.963  0.8203  1.2037 -0.5393
  142OSM   H15T15580   2.048   5.766   7.927  0.3111 -1.0613 -0.9783
  142OSM   C16S15581   1.947   5.579   7.985  0.2298  0.1045 -0.3096
  142OSM   H16S15582   1.996   5.507   7.915  0.4438  2.3772 -2.6644
  142OSM   H16T15583   1.846   5.535   7.985  0.4696 -0.5201 -1.9701
  142OSM   C17S15584   1.996   5.585   8.125  0.2188 -0.4497  0.7216
  142OSM   H17S15585   1.930   5.655   8.181  0.7079 -0.8808  1.8718
  142OSM   H17T15586   2.099   5.625   8.111  0.6822 -1.8903 -0.2113
  142OSM   C18S15587   2.001   5.457   8.206 -0.1254  0.3098 -0.8059
  142OSM   H18S15588   2.034   5.473   8.311  0.5223 -0.0864 -0.9443
  142OSM   H18T15589   2.063   5.384   8.151 -0.8857 -1.4059  0.5100
  142OSM   H18U15590   1.904   5.406   8.221  1.1180 -1.6977  1.0520
  142OSM    C1F15591   1.319   6.088   6.856  0.0542  0.8278 -0.1541
  142OSM     OF15592   1.215   6.111   6.812  0.0812 -0.3126  0.2717
  142OSM    C2F15593   1.367   6.144   6.985 -0.1618 -0.2152  0.0090
  142OSM    H2F15594   1.283   6.193   7.039  0.7993 -0.8941  2.2134
  142OSM    H2G15595   1.440   6.224   6.964  0.6475 -0.6958  0.9491
  142OSM    C3F15596   1.422   6.047   7.085 -1.1153  0.6540  0.7582
  142OSM    H3F15597   1.507   5.987   7.046 -0.4689  2.4509 -0.7579
  142OSM    H3G15598   1.347   5.967   7.102 -0.5229  0.5958  3.6278
  142OSM    C4F15599   1.458   6.099   7.224 -0.5828  0.3728 -0.7066
  142OSM    H4F15600   1.374   6.167   7.251 -2.6438 -2.3010  0.0895
  142OSM    H4G15601   1.536   6.178   7.228  0.4807 -0.5411 -2.3994
  142OSM    C5F15602   1.496   5.981   7.323  1.3403  0.3992 -0.4076
  142OSM    H5F15603   1.557   5.903   7.271 -1.6455 -2.1730 -0.3284
  142OSM    H5G15604   1.405   5.920   7.342  1.7772 -1.4211 -3.3981
  142OSM    C6F15605   1.553   6.037   7.452  0.1473  0.4258 -0.9934
  142OSM    H6F15606   1.482   6.104   7.506  1.6175  0.9580  0.3520
  142OSM    H6G15607   1.636   6.103   7.419  0.2338 -0.1506 -1.9401
  142OSM    C7F15608   1.596   5.934   7.561  0.2063  0.4781  0.3213
  142OSM    H7F15609   1.670   5.859   7.525 -1.1752 -0.1655 -1.3574
  142OSM    H7G15610   1.501   5.879   7.575 -2.2485  3.6580 -2.2977
  142OSM    C8F15611   1.630   5.997   7.695  0.3573  0.5018 -0.0534
  142OSM    H8F15612   1.698   6.085   7.695  0.7876  0.2497 -2.9166
  142OSM    H8G15613   1.675   5.906   7.741 -1.8648 -0.8053 -0.2727
  142OSM    C9F15614   1.510   6.029   7.781 -0.1817  1.0265 -0.1853
  142OSM    H9F15615   1.443   6.106   7.740  1.1086  3.2341  1.6490
  142OSM   C10F15616   1.478   5.992   7.907  0.1642 -1.0964 -0.0957
  142OSM   H10F15617   1.386   6.030   7.954 -0.4160  0.8781 -2.6344
  142OSM   C11F15618   1.576   5.907   7.990  0.1661 -0.1460 -0.0236
  142OSM   H11F15619   1.592   5.951   8.091  0.9077 -1.1778  0.3355
  142OSM   H11G15620   1.675   5.896   7.940  0.6877  0.4779  0.8298
  142OSM   C12F15621   1.518   5.765   8.000  0.0533 -0.0791  0.4177
  142OSM   H12F15622   1.513   5.722   7.898  1.8418  2.1317 -0.7018
  142OSM   H12G15623   1.416   5.770   8.044 -1.2231 -3.3386 -1.7682
  142OSM   C13F15624   1.595   5.675   8.099  0.2942 -0.3167 -0.0447
  142OSM   H13F15625   1.622   5.725   8.194 -1.0910  1.0380 -0.3258
  142OSM   H13G15626   1.691   5.641   8.054  1.0239  2.4709 -0.7747
  142OSM   C14F15627   1.508   5.559   8.143 -0.0534  0.0567  0.2583
  142OSM   H14F15628   1.462   5.513   8.053  0.1232  1.7465 -0.7252
  142OSM   H14G15629   1.425   5.588   8.211 -0.9305  3.6993 -2.1205
  142OSM   C15F15630   1.594   5.444   8.199 -0.3546 -0.3211  0.1687
  142OSM   H15F15631   1.684   5.486   8.250 -0.0981 -0.8203  0.1400
  142OSM   H15G15632   1.623   5.385   8.109 -2.6842  0.7939 -1.3956
  142OSM   C16F15633   1.517   5.363   8.305  0.2177  0.9363 -0.6494
  142OSM   H16F15634   1.457   5.410   8.386 -0.0802  0.6105 -0.6807
  142OSM   H16G15635   1.585   5.296   8.362 -0.0761  1.0475 -0.1620
  142OSM   C17F15636   1.426   5.258   8.231  0.3874 -0.2828 -0.3155
  142OSM   H17F15637   1.491   5.182   8.184  1.1372  0.3570 -0.3266
  142OSM   H17G15638   1.365   5.300   8.149 -1.6766 -1.3269  0.6070
  142OSM   C18F15639   1.329   5.188   8.325  0.0733  0.2105  0.0131
  142OSM   H18F15640   1.233   5.243   8.327  0.5134  1.0088  2.3366
  142OSM   H18G15641   1.371   5.174   8.428 -0.5948 -1.1259  0.1330
  142OSM   H18H15642   1.315   5.087   8.281 -0.4560  0.5444 -0.5851
  143OSM      N15643   5.056   2.269   5.930  0.2349  0.1703 -0.5037
  143OSM    C1515644   5.079   2.288   5.783 -0.8471  0.4229  0.0124
  143OSM   H15A15645   5.134   2.378   5.764 -1.7445  0.8653 -0.5914
  143OSM   H15B15646   4.986   2.300   5.729 -0.3093  0.3244 -0.9670
  143OSM   H15C15647   5.137   2.203   5.750  0.4371  1.6191 -0.9367
  143OSM    C1415648   5.183   2.216   5.998  0.1129 -0.2950  0.6042
  143OSM   H14A15649   5.209   2.118   5.960 -1.7935  0.3278 -2.7202
  143OSM   H14B15650   5.175   2.208   6.105 -0.4300 -1.6980  0.4830
  143OSM   H14C15651   5.267   2.282   5.983 -0.7330  0.7349  0.3160
  143OSM    C1315652   5.002   2.393   5.987  0.5656  0.2149 -0.7066
  143OSM   H13A15653   5.068   2.478   5.988 -0.1963  0.8718  1.6875
  143OSM   H13B15654   4.958   2.380   6.085  0.9306  1.9093 -0.2777
  143OSM   H13C15655   4.925   2.429   5.920 -1.0692 -1.6723  0.0347
  143OSM    C1215656   4.958   2.159   5.943 -1.2351 -0.3032 -0.6284
  143OSM   H12A15657   5.001   2.072   5.895  1.2415  1.5429 -1.9911
  143OSM   H12B15658   4.866   2.183   5.892 -2.2174 -0.7149  0.8858
  143OSM    C1115659   4.921   2.117   6.092  0.6509 -0.2958 -0.0490
  143OSM   H11A15660   5.013   2.100   6.152  0.9787  0.8650 -0.1837
  143OSM   H11B15661   4.860   2.024   6.093 -0.8733  0.6197 -1.7274
  143OSM      P15662   4.695   2.216   6.195 -0.0565  0.3063 -0.2308
  143OSM    O1315663   4.648   2.336   6.260  0.2866 -0.2276  0.3734
  143OSM    O1415664   4.624   2.169   6.073 -0.4886 -0.1503  0.2830
  143OSM    O1115665   4.679   2.099   6.305 -0.1528  0.9911  0.4705
  143OSM    O1215666   4.849   2.222   6.161 -0.4575  0.3473  0.3626
  143OSM    C1S15667   4.786   2.061   6.389 -0.5280  0.2734 -0.8605
  143OSM    H1S15668   4.875   2.038   6.326 -0.4670  0.8337 -0.9823
  143OSM    H1T15669   4.768   1.963   6.437  0.2560  0.1759 -0.7589
  143OSM     NF15670   4.928   2.108   6.587  0.7641  0.3718 -0.0110
  143OSM    HNF15671   4.899   2.061   6.671  1.5799 -3.4741 -1.6841
  143OSM    C2S15672   4.816   2.162   6.512 -0.3291 -0.3851 -0.3605
  143OSM    H2S15673   4.846   2.260   6.468  2.0929 -0.7969  0.2276
  143OSM    C3S15674   4.684   2.189   6.594 -0.6303  0.5302 -0.3051
  143OSM    H3S15675   4.652   2.094   6.640  1.3455  0.5635  1.2884
  143OSM     O315676   4.580   2.243   6.512 -0.4451  0.0921 -0.0131
  143OSM    HO315677   4.624   2.233   6.428  0.7263 -0.7042  0.6620
  143OSM    C4S15678   4.713   2.276   6.719  0.5839  0.2155  0.2705
  143OSM    H4S15679   4.737   2.219   6.811  0.2963  0.3184  0.4121
  143OSM    C5S15680   4.703   2.413   6.733 -0.3915  0.5531  0.1226
  143OSM    H5S15681   4.680   2.474   6.644 -1.8889  0.4769  0.4392
  143OSM    C6S15682   4.729   2.486   6.865  0.7938 -0.3028 -0.0838
  143OSM    H6S15683   4.641   2.544   6.901  1.2625  0.5805 -0.3282
  143OSM    H6T15684   4.802   2.567   6.842 -1.1762  1.3836 -0.7161
  143OSM    C7S15685   4.764   2.394   6.995  0.0167 -0.0615 -0.4608
  143OSM    H7S15686   4.857   2.338   6.968  0.1818  0.9963 -2.2941
  143OSM    H7T15687   4.685   2.316   6.997 -2.6634  2.4931 -1.0302
  143OSM    C8S15688   4.804   2.489   7.118 -0.4479  0.0973 -0.1458
  143OSM    H8S15689   4.739   2.579   7.110  0.1194  0.3435 -3.1756
  143OSM    H8T15690   4.910   2.517   7.100 -0.7616  0.5824 -1.3952
  143OSM    C9S15691   4.797   2.424   7.259  0.1570 -1.0393  0.1060
  143OSM    H9S15692   4.691   2.401   7.285 -0.2487 -0.2489 -0.8167
  143OSM    H9T15693   4.819   2.491   7.345  1.2186 -0.7299 -0.3924
  143OSM   C10S15694   4.879   2.301   7.273  0.0034  0.4512 -1.1492
  143OSM   H10S15695   4.985   2.334   7.265  0.7163 -1.4995 -0.3561
  143OSM   H10T15696   4.854   2.220   7.201  1.4084 -0.7262 -0.3718
  143OSM   C11S15697   4.883   2.235   7.419 -0.3098 -0.2646 -0.5277
  143OSM   H11S15698   4.949   2.146   7.404  1.6016  0.6235  2.0144
  143OSM   H11T15699   4.783   2.202   7.455 -0.9090  3.3808  1.6551
  143OSM   C12S15700   4.956   2.322   7.523 -0.4517  0.3197  0.2147
  143OSM   H12S15701   4.898   2.409   7.561  0.3461  1.2799 -0.6949
  143OSM   H12T15702   5.045   2.372   7.478  0.8888 -0.7629  1.5509
  143OSM   C13S15703   4.988   2.238   7.654  0.4098 -0.6044  0.4019
  143OSM   H13S15704   5.060   2.158   7.627 -0.3843 -0.8194 -1.2110
  143OSM   H13T15705   4.905   2.176   7.693 -0.2817 -0.1337 -0.2916
  143OSM   C14S15706   5.058   2.320   7.764  0.2328  0.6605 -0.6955
  143OSM   H14S15707   5.093   2.252   7.844  1.5694  0.7236 -1.2100
  143OSM   H14T15708   4.982   2.388   7.809 -0.1388  0.3703 -0.8717
  143OSM   C15S15709   5.181   2.398   7.720  0.0714 -0.3205  0.0391
  143OSM   H15S15710   5.143   2.474   7.649 -1.4029  0.3723  1.5121
  143OSM   H15T15711   5.254   2.337   7.662 -1.2971 -0.2145 -1.9113
  143OSM   C16S15712   5.266   2.468   7.839  0.5952  0.1715  0.8060
  143OSM   H16S15713   5.267   2.404   7.929 -2.8632 -1.1519  0.0732
  143OSM   H16T15714   5.215   2.565   7.861 -0.9558 -0.5243  0.3972
  143OSM   C17S15715   5.412   2.497   7.804  0.5067 -0.4378 -0.3539
  143OSM   H17S15716   5.426   2.529   7.698  0.4615 -0.6384 -0.4210
  143OSM   H17T15717   5.484   2.413   7.822  1.9545  1.2508  2.2992
  143OSM   C18S15718   5.458   2.615   7.890  0.8891  0.2222  0.4678
  143OSM   H18S15719   5.565   2.642   7.879  1.9440 -1.7569  4.2663
  143OSM   H18T15720   5.441   2.604   7.999  1.3987  0.5787  0.5849
  143OSM   H18U15721   5.395   2.702   7.862  1.7447 -0.2695 -3.7530
  143OSM    C1F15722   5.051   2.101   6.537  0.9080  0.0455 -0.9884
  143OSM     OF15723   5.073   2.135   6.423  0.2342  0.1170  0.1408
  143OSM    C2F15724   5.163   2.049   6.623  0.2377 -0.6135  0.2804
  143OSM    H2F15725   5.259   2.098   6.597 -0.1072  0.6310  1.2573
  143OSM    H2G15726   5.151   1.943   6.590 -2.1177 -0.6394  1.0588
  143OSM    C3F15727   5.128   2.060   6.774 -0.0230  0.1095  0.1577
  143OSM    H3F15728   5.204   2.001   6.830  0.9280  1.1310 -0.0317
  143OSM    H3G15729   5.032   2.012   6.803  0.0529  0.3914  0.9189
  143OSM    C4F15730   5.127   2.201   6.835  0.0847  0.2758  0.5845
  143OSM    H4F15731   5.033   2.253   6.806 -0.0964 -0.7449 -0.8020
  143OSM    H4G15732   5.220   2.250   6.799  0.0989 -0.5799 -0.6021
  143OSM    C5F15733   5.148   2.194   6.982 -0.0433  0.9215  0.0501
  143OSM    H5F15734   5.233   2.126   7.003 -0.7099  0.9501  3.3805
  143OSM    H5G15735   5.060   2.160   7.040  0.7134  2.1145  2.0023
  143OSM    C6F15736   5.185   2.322   7.047 -0.5161 -0.6821 -0.4960
  143OSM    H6F15737   5.098   2.390   7.032  1.9449  2.6299 -1.0498
  143OSM    H6G15738   5.265   2.361   6.981  1.4702 -2.7101  0.5818
  143OSM    C7F15739   5.252   2.329   7.189  0.2663  0.5810  0.5030
  143OSM    H7F15740   5.348   2.275   7.176  0.4935  1.0256  0.3173
  143OSM    H7G15741   5.191   2.258   7.249  0.0856  1.3327  1.2250
  143OSM    C8F15742   5.250   2.474   7.243  0.0005 -1.1942 -0.1654
  143OSM    H8F15743   5.142   2.494   7.255  0.2302 -1.0259  2.1167
  143OSM    H8G15744   5.291   2.536   7.161 -0.2491 -1.5715 -0.5803
  143OSM    C9F15745   5.329   2.502   7.374  0.3760 -0.0594 -0.1171
  143OSM    H9F15746   5.280   2.494   7.472  0.7360 -2.2577 -0.0629
  143OSM   C10F15747   5.462   2.508   7.385 -0.4480 -1.0024 -0.2840
  143OSM   H10F15748   5.506   2.525   7.484 -1.9455 -0.6590  0.3530
  143OSM   C11F15749   5.555   2.512   7.266  0.0778 -0.4120 -0.2613
  143OSM   H11F15750   5.618   2.603   7.263  0.5091 -0.7033 -0.2559
  143OSM   H11G15751   5.507   2.513   7.166  1.0504 -0.1712 -0.7434
  143OSM   C12F15752   5.657   2.397   7.263 -0.7579  0.1425  0.7635
  143OSM   H12F15753   5.713   2.419   7.170  0.4015  0.7265  1.5590
  143OSM   H12G15754   5.597   2.304   7.259 -0.0503 -0.2851 -0.2545
  143OSM   C13F15755   5.753   2.393   7.382 -0.0736  0.4842 -0.0488
  143OSM   H13F15756   5.705   2.335   7.463 -0.8505  1.3630  0.1383
  143OSM   H13G15757   5.760   2.499   7.416 -0.5995  0.9743 -1.3995
  143OSM   C14F15758   5.894   2.336   7.353 -0.3811 -1.2549  0.8205
  143OSM   H14F15759   5.938   2.335   7.455  0.0099  0.0927  0.6834
  143OSM   H14G15760   5.935   2.410   7.281  0.6402 -1.9718  0.6451
  143OSM   C15F15761   5.874   2.192   7.293 -0.1252 -0.2082 -0.7381
  143OSM   H15F15762   5.823   2.209   7.197 -0.8169 -1.7021 -0.6715
  143OSM   H15G15763   5.803   2.145   7.364  1.7392 -1.8984  0.1333
  143OSM   C16F15764   5.996   2.110   7.272 -0.5484 -0.1503 -0.9490
  143OSM   H16F15765   6.062   2.108   7.362 -0.9836 -2.4579 -0.6231
  143OSM   H16G15766   6.055   2.150   7.187  2.1258 -0.1993  0.7379
  143OSM   C17F15767   5.963   1.967   7.242  0.1743  0.1254  0.5189
  143OSM   H17F15768   5.894   1.967   7.155 -0.5849 -2.7399  0.9947
  143OSM   H17G15769   5.898   1.934   7.327 -1.5401  2.8952  0.3865
  143OSM   C18F15770   6.076   1.867   7.211 -0.1505 -0.1211 -0.4260
  143OSM   H18F15771   6.134   1.887   7.118  0.3960 -0.0670 -0.0807
  143OSM   H18G15772   6.047   1.760   7.208 -1.7513  0.1932  1.6958
  143OSM   H18H15773   6.153   1.880   7.290  0.4338  1.7804 -1.2385
  144OSM      N15774   0.677   1.237   5.965  0.0701 -0.0491 -0.3967
  144OSM    C1515775   0.571   1.330   6.023  0.2342 -0.2048 -0.5519
  144OSM   H15A15776   0.468   1.316   5.993 -0.6335  1.9858  1.1081
  144OSM   H15B15777   0.589   1.436   6.010  1.8612 -0.3492  0.3593
  144OSM   H15C15778   0.559   1.329   6.130  2.2283 -0.3662 -0.2987
  144OSM    C1415779   0.623   1.102   5.998 -0.1095  0.0112 -0.0540
  144OSM   H14A15780   0.698   1.025   5.984  0.0875 -0.2765  2.1609
  144OSM   H14B15781   0.530   1.075   5.950  0.3075  0.5267 -1.1946
  144OSM   H14C15782   0.593   1.107   6.102  0.3018  1.5191  0.0154
  144OSM    C1315783   0.674   1.267   5.817 -0.3470 -0.2951 -0.0889
  144OSM   H13A15784   0.573   1.268   5.780 -1.0902  1.2947  1.7544
  144OSM   H13B15785   0.734   1.195   5.763  1.4833  0.5201  0.7613
  144OSM   H13C15786   0.714   1.365   5.794  3.2804 -1.3678  1.0212
  144OSM    C1215787   0.808   1.258   6.034  0.0493  0.3570 -0.1379
  144OSM   H12A15788   0.840   1.355   5.999 -0.5448  0.9730  0.9832
  144OSM   H12B15789   0.881   1.194   5.986 -0.1384  1.2938 -1.7442
  144OSM    C1115790   0.821   1.239   6.180  0.2322 -0.1275  0.5212
  144OSM   H11A15791   0.738   1.291   6.234  0.2874  0.8831 -0.3370
  144OSM   H11B15792   0.921   1.276   6.210  2.2894 -4.1653 -0.6027
  144OSM      P15793   0.931   0.995   6.177 -0.1424  0.3103 -0.1740
  144OSM    O1315794   0.881   0.859   6.209  0.5032  0.5551 -0.8373
  144OSM    O1415795   0.988   1.032   6.046  0.0449 -0.2326  0.0376
  144OSM    O1115796   1.046   1.020   6.282 -0.0242 -0.5117  0.3963
  144OSM    O1215797   0.819   1.097   6.211  0.5054  0.1779 -0.2483
  144OSM    C1S15798   0.995   1.042   6.418 -0.1927  0.7649  0.1088
  144OSM    H1S15799   0.921   0.968   6.456  0.7542 -1.4485 -2.0722
  144OSM    H1T15800   0.941   1.137   6.432 -0.4851  1.0959 -2.7795
  144OSM     NF15801   1.058   1.045   6.650 -0.9057 -0.1375 -0.3881
  144OSM    HNF15802   1.059   1.131   6.700  1.6107 -0.2344 -0.1867
  144OSM    C2S15803   1.109   1.051   6.517 -0.7957 -0.0465  0.8054
  144OSM    H2S15804   1.179   0.966   6.501 -0.5694  0.5482 -1.7090
  144OSM    C3S15805   1.198   1.178   6.483 -0.3054 -0.0186  0.1447
  144OSM    H3S15806   1.130   1.265   6.494  1.1013  0.9585  1.6071
  144OSM     O315807   1.251   1.174   6.351  0.3694  0.2839  0.2390
  144OSM    HO315808   1.189   1.118   6.304 -1.0857  3.4143 -1.9768
  144OSM    C4S15809   1.310   1.192   6.575  0.3500 -0.3176 -0.2648
  144OSM    H4S15810   1.371   1.103   6.592  1.3012  0.3712 -0.0020
  144OSM    C5S15811   1.341   1.312   6.634  0.1644 -0.1701  0.1117
  144OSM    H5S15812   1.286   1.404   6.614 -0.7799 -0.2687  2.0576
  144OSM    C6S15813   1.455   1.330   6.725  0.2724 -0.3538  0.4203
  144OSM    H6S15814   1.524   1.402   6.677 -0.6688  0.4803  0.2898
  144OSM    H6T15815   1.514   1.240   6.754  0.6493 -0.0599  0.5785
  144OSM    C7S15816   1.411   1.394   6.861 -0.0881  0.7790  0.0315
  144OSM    H7S15817   1.339   1.325   6.910  0.7625 -0.3087 -0.2055
  144OSM    H7T15818   1.351   1.486   6.840 -1.0588  0.4945  1.4112
  144OSM    C8S15819   1.517   1.420   6.969  0.0861  0.6099 -0.2806
  144OSM    H8S15820   1.604   1.470   6.921  0.7926 -0.1730  0.1579
  144OSM    H8T15821   1.548   1.322   7.011  1.0152  0.9119 -0.2488
  144OSM    C9S15822   1.464   1.499   7.088  0.6078  0.3994  0.4043
  144OSM    H9S15823   1.365   1.460   7.119  0.4626  0.2705 -0.2262
  144OSM    H9T15824   1.448   1.600   7.046  0.7590  0.1608 -0.2319
  144OSM   C10S15825   1.558   1.493   7.213  0.2932 -0.4222 -0.0962
  144OSM   H10S15826   1.655   1.522   7.168  1.9378 -3.1285  1.4016
  144OSM   H10T15827   1.553   1.384   7.235  0.8890 -0.7068 -1.3211
  144OSM   C11S15828   1.513   1.571   7.333 -0.3499 -0.2797  0.4572
  144OSM   H11S15829   1.431   1.526   7.393 -0.9551  1.4120  0.9504
  144OSM   H11T15830   1.473   1.670   7.302  0.1165  0.1714  1.2598
  144OSM   C12S15831   1.620   1.596   7.431  0.2497 -0.0945 -0.0612
  144OSM   H12S15832   1.695   1.654   7.373  0.2531  0.6014  0.6217
  144OSM   H12T15833   1.667   1.503   7.470  2.7378  1.3137  0.4615
  144OSM   C13S15834   1.570   1.684   7.550  0.6697 -0.3487 -0.2480
  144OSM   H13S15835   1.556   1.621   7.640 -0.2603  0.6447  0.3266
  144OSM   H13T15836   1.466   1.714   7.525  0.8015 -0.2884 -0.7365
  144OSM   C14S15837   1.666   1.801   7.569 -0.4603 -0.5020  0.2717
  144OSM   H14S15838   1.629   1.884   7.504 -0.6880  0.0403  1.0860
  144OSM   H14T15839   1.768   1.765   7.543 -0.5973  0.3383 -1.6155
  144OSM   C15S15840   1.673   1.854   7.716 -0.1086  0.1446 -0.1883
  144OSM   H15S15841   1.698   1.768   7.782  1.5704  1.2000  0.6269
  144OSM   H15T15842   1.580   1.901   7.754 -0.9644 -1.5313 -0.1138
  144OSM   C16S15843   1.784   1.957   7.740  0.6796  0.3131 -0.2001
  144OSM   H16S15844   1.764   2.043   7.674 -2.5863  0.7734  1.2275
  144OSM   H16T15845   1.888   1.921   7.726  1.3808  1.0130  2.5872
  144OSM   C17S15846   1.783   2.012   7.888 -0.1960 -0.4311  0.2241
  144OSM   H17S15847   1.794   1.929   7.960 -0.7561  0.9946  2.0281
  144OSM   H17T15848   1.687   2.061   7.914 -1.0214 -2.5710  1.4331
  144OSM   C18S15849   1.905   2.099   7.897  0.4373 -0.0492  0.2883
  144OSM   H18S15850   1.893   2.175   7.818  1.1989  0.3732  0.5714
  144OSM   H18T15851   2.001   2.048   7.875  1.3742  2.0638 -0.8291
  144OSM   H18U15852   1.921   2.141   7.999  1.7352  1.3647 -0.4753
  144OSM    C1F15853   1.017   0.934   6.712 -1.2745 -0.0620 -0.1111
  144OSM     OF15854   1.014   0.828   6.655 -0.1532  0.4603  0.0359
  144OSM    C2F15855   0.981   0.954   6.860 -0.2414  0.3841 -0.1708
  144OSM    H2F15856   0.938   1.056   6.870 -0.9671  0.0894 -0.2379
  144OSM    H2G15857   1.068   0.935   6.926  0.6773 -2.0256 -1.9434
  144OSM    C3F15858   0.867   0.858   6.905 -0.0823 -0.5944  0.1928
  144OSM    H3F15859   0.895   0.751   6.915 -0.1428 -0.9008 -2.3300
  144OSM    H3G15860   0.785   0.858   6.831  0.3776  2.9609 -0.4675
  144OSM    C4F15861   0.808   0.909   7.031  0.5388  0.3980 -0.4175
  144OSM    H4F15862   0.723   0.844   7.061  2.4562 -1.0469  2.3335
  144OSM    H4G15863   0.776   1.015   7.029 -1.0720 -0.0650 -0.8038
  144OSM    C5F15864   0.907   0.923   7.144 -0.7956 -0.0512 -0.3446
  144OSM    H5F15865   0.970   1.015   7.145  1.4916 -1.4905 -2.2982
  144OSM    H5G15866   0.982   0.841   7.134 -0.6257 -0.3174  2.2910
  144OSM    C6F15867   0.850   0.891   7.285 -1.3430 -0.5079  0.2081
  144OSM    H6F15868   0.830   0.782   7.286 -1.5927 -0.4623  0.3008
  144OSM    H6G15869   0.754   0.946   7.296 -1.0408  0.2575 -0.7752
  144OSM    C7F15870   0.954   0.935   7.392 -0.1196 -0.4957  0.7710
  144OSM    H7F15871   0.966   1.045   7.404  3.3971 -0.6840 -0.1612
  144OSM    H7G15872   1.053   0.893   7.365  0.0634  1.4655 -2.0559
  144OSM    C8F15873   0.908   0.896   7.527  0.3027  0.5670  0.5392
  144OSM    H8F15874   0.916   0.785   7.525 -1.3683  0.4338 -0.5490
  144OSM    H8G15875   0.800   0.917   7.541  0.2718  1.8634 -1.3611
  144OSM    C9F15876   0.989   0.948   7.645 -0.1093  0.2837  0.2696
  144OSM    H9F15877   1.046   1.036   7.612  0.0943  0.5785  1.3622
  144OSM   C10F15878   0.993   0.908   7.774 -0.1243 -0.2512  0.2634
  144OSM   H10F15879   1.071   0.946   7.841  0.6921  0.1412 -0.8679
  144OSM   C11F15880   0.899   0.794   7.818  0.5188 -0.3508 -0.3228
  144OSM   H11F15881   0.946   0.697   7.795 -1.4085 -1.3011 -0.4470
  144OSM   H11G15882   0.809   0.802   7.754  0.6727  0.9552 -0.4033
  144OSM   C12F15883   0.842   0.808   7.953 -0.3929 -0.1555 -0.4410
  144OSM   H12F15884   0.775   0.723   7.977 -0.2968  0.3829  1.9023
  144OSM   H12G15885   0.780   0.900   7.955  0.7981  0.6760 -0.4002
  144OSM   C13F15886   0.945   0.795   8.067 -1.0384  0.5281 -0.5907
  144OSM   H13F15887   1.009   0.885   8.059  1.4143 -1.1431 -0.9335
  144OSM   H13G15888   1.021   0.713   8.061 -2.0298 -0.6941  1.9157
  144OSM   C14F15889   0.895   0.782   8.212  0.6964 -0.4737  0.2932
  144OSM   H14F15890   0.851   0.683   8.234 -0.3198 -0.3393 -1.0127
  144OSM   H14G15891   0.814   0.856   8.231  1.0616 -0.1171  0.4938
  144OSM   C15F15892   1.007   0.792   8.316  0.5963 -0.5025  0.1620
  144OSM   H15F15893   1.051   0.894   8.314 -1.5575  0.5390 -2.9694
  144OSM   H15G15894   1.092   0.725   8.291  2.0275  0.7550  1.5100
  144OSM   C16F15895   0.960   0.745   8.453  0.6202  0.0589  0.1456
  144OSM   H16F15896   1.048   0.742   8.521  1.0335 -3.6617 -0.3400
  144OSM   H16G15897   0.928   0.639   8.456  0.6007  0.0371 -0.7023
  144OSM   C17F15898   0.842   0.827   8.508  0.6854  0.2628 -0.5857
  144OSM   H17F15899   0.754   0.838   8.441 -2.6210  1.8620  3.5571
  144OSM   H17G15900   0.881   0.930   8.524 -2.6542  2.1420 -3.0332
  144OSM   C18F15901   0.796   0.758   8.636  0.1632  0.0507 -0.2444
  144OSM   H18F15902   0.696   0.794   8.670  0.4762  0.7646 -0.0512
  144OSM   H18G15903   0.867   0.785   8.717 -0.1317 -0.3031  0.1450
  144OSM   H18H15904   0.798   0.647   8.627 -1.1611 -0.0898  0.8591
  145SAPE     N15905   6.359   2.706  10.393 -0.3756  0.3928  0.6384
  145SAPE   HN115906   6.260   2.732  10.407 -0.4034 -0.1895  1.5905
  145SAPE   HN215907   6.379   2.646  10.476 -0.1376 -0.1341  0.2096
  145SAPE   HN315908   6.419   2.791  10.394 -0.2856  0.3225  1.5161
  145SAPE   C1215909   6.398   2.631  10.266 -0.3361 -0.2365 -0.6111
  145SAPE  H12A15910   6.404   2.710  10.187  0.0312  0.3818  0.0217
  145SAPE  H12B15911   6.316   2.561  10.241 -1.1004  0.8953 -1.3988
  145SAPE   C1115912   6.532   2.554  10.291 -0.6900  0.2556  0.3382
  145SAPE  H11A15913   6.612   2.612  10.343  0.0430 -0.1547 -0.3129
  145SAPE  H11B15914   6.567   2.539  10.187 -1.5935  0.6091 -0.0337
  145SAPE     P15915   6.517   2.420  10.509  0.3461 -0.5906  0.1444
  145SAPE   O1315916   6.427   2.519  10.576  0.3787 -0.3059 -0.2936
  145SAPE   O1415917   6.489   2.281  10.541  0.2378 -0.0428  0.1856
  145SAPE   O1215918   6.496   2.429  10.353 -0.0446 -0.0783 -0.0320
  145SAPE   O1115919   6.667   2.460  10.547 -0.1085  0.1333 -0.5357
  145SAPE    C115920   6.787   2.426  10.488  0.2006 -0.7875  0.7267
  145SAPE    HA15921   6.799   2.315  10.490  0.1649 -0.7892  2.4132
  145SAPE    HB15922   6.791   2.462  10.383 -2.5214 -1.0957  0.4380
  145SAPE    C215923   6.914   2.499  10.550 -0.4243 -0.6417  0.5145
  145SAPE    HS15924   6.890   2.494  10.658  0.1723  2.5915  0.8985
  145SAPE   O2115925   6.907   2.634  10.500  0.0868 -0.0433  0.3270
  145SAPE   C2115926   6.984   2.719  10.561  0.0715 -0.3884 -0.1652
  145SAPE   O2215927   7.055   2.693  10.654  0.0985  0.5670 -0.7308
  145SAPE   C2215928   7.000   2.851  10.478 -0.0715 -0.0953  0.0166
  145SAPE   H2R15929   6.924   2.921  10.519  1.4544  1.2497  0.6846
  145SAPE   H2S15930   7.101   2.892  10.501 -0.3054 -0.3696  1.6715
  145SAPE    C315931   7.049   2.428  10.530  0.3475 -0.1326 -0.0867
  145SAPE    HX15932   7.033   2.327  10.572 -3.2447 -0.3146 -1.5243
  145SAPE    HY15933   7.137   2.474  10.580 -0.4257  0.7161  0.5241
  145SAPE   O3115934   7.079   2.406  10.394 -0.3563 -0.2923  0.6496
  145SAPE   C3115935   7.177   2.472  10.337  0.3631 -0.4139 -0.0696
  145SAPE   O3215936   7.246   2.557  10.392 -0.1555  0.4743  0.2133
  145SAPE   C3215937   7.188   2.430  10.186 -0.1425  0.1829 -0.3122
  145SAPE   H2X15938   7.272   2.493  10.152 -0.7287  2.0806  1.4724
  145SAPE   H2Y15939   7.089   2.460  10.144  0.1325  1.1033 -0.3126
  145SAPE   C2315940   6.987   2.839  10.328 -0.2833  0.1405  0.4754
  145SAPE   H3R15941   6.880   2.819  10.304  0.1568 -2.9786  0.6243
  145SAPE   H3S15942   7.044   2.752  10.289  0.9684  0.9408  0.4860
  145SAPE   C2415943   7.040   2.966  10.263 -0.1860 -0.0939 -0.8763
  145SAPE   H4R15944   7.149   2.988  10.270 -0.0453 -0.9058 -0.3609
  145SAPE   H4S15945   6.998   3.052  10.319  1.2663 -1.0601  1.8557
  145SAPE   C2515946   6.996   2.975  10.118 -0.0229 -0.5125 -0.0684
  145SAPE   H5R15947   6.886   2.974  10.121 -0.0522  0.6346  3.0691
  145SAPE   C2615948   7.065   2.995  10.003 -0.5662 -0.4326 -0.4238
  145SAPE   H6R15949   7.004   2.999   9.911 -0.8455  0.7065 -0.2082
  145SAPE   C2715950   7.216   3.011  10.000  0.7071  0.7568  0.2311
  145SAPE   H7R15951   7.247   2.940   9.921 -0.5769 -0.7718  1.0417
  145SAPE   H7S15952   7.264   2.963  10.088 -0.4370  1.0031  1.0094
  145SAPE   C2815953   7.275   3.146   9.972  1.3227 -0.1805  0.3111
  145SAPE   H8R15954   7.341   3.195  10.045 -0.5824  1.9853  0.7013
  145SAPE   C2915955   7.260   3.214   9.859  0.1507 -0.3040  0.5487
  145SAPE   H9R15956   7.316   3.307   9.842  1.5699 -1.1677  0.3218
  145SAPE  C21015957   7.169   3.168   9.746  0.1316 -0.2370  0.1851
  145SAPE  H10R15958   7.084   3.239   9.739  0.1392 -0.3394 -1.2613
  145SAPE  H10S15959   7.140   3.063   9.767  0.7269 -0.6948 -1.1673
  145SAPE  C21115960   7.234   3.163   9.613 -0.2462  0.1206  0.2980
  145SAPE  H11R15961   7.282   3.067   9.590  0.8894  0.3357  1.6370
  145SAPE  C21215962   7.257   3.268   9.538  0.3106  0.0602  0.1452
  145SAPE  H12R15963   7.304   3.241   9.443  0.3943  1.2531 -0.1710
  145SAPE  C21315964   7.213   3.410   9.571  0.0266 -0.4693 -0.0113
  145SAPE  H13R15965   7.296   3.471   9.530 -0.4646  0.0381 -0.2540
  145SAPE  H13S15966   7.231   3.433   9.678  0.3554  0.2268 -0.2069
  145SAPE  C21415967   7.076   3.458   9.527  0.5065 -0.0312  0.5564
  145SAPE  H14R15968   6.997   3.389   9.558 -0.2561  0.5117 -0.1311
  145SAPE  C21515969   7.054   3.558   9.436  0.8304  0.3064  0.3233
  145SAPE  H15R15970   6.959   3.598   9.400 -0.2096  0.0063  2.5494
  145SAPE  C21615971   7.170   3.625   9.367 -0.1483 -0.3255  0.1704
  145SAPE  H16R15972   7.204   3.570   9.276 -2.0680  1.2583 -1.6277
  145SAPE  H16S15973   7.253   3.639   9.439  0.0111 -0.1698 -0.0378
  145SAPE  C21715974   7.133   3.766   9.314  0.4269  0.1942 -0.4391
  145SAPE  H17R15975   7.217   3.819   9.264  0.0093  0.7568 -0.5619
  145SAPE  H17S15976   7.112   3.829   9.403  1.0275 -0.9161  0.5145
  145SAPE  C21815977   7.020   3.763   9.213 -0.2503 -0.4084  0.4408
  145SAPE  H18R15978   7.015   3.867   9.176 -0.4651 -0.3614  0.6049
  145SAPE  H18S15979   6.920   3.736   9.254 -0.6662 -0.2605 -0.4679
  145SAPE  C21915980   7.048   3.673   9.091 -0.3906  0.4124  0.5432
  145SAPE  H19R15981   7.025   3.566   9.113  0.6972 -0.5033 -2.2452
  145SAPE  H19S15982   7.153   3.692   9.060 -0.3250 -1.7931 -0.8225
  145SAPE  C22015983   6.959   3.710   8.969  0.5525 -0.1058 -0.1913
  145SAPE  H20R15984   6.860   3.668   8.998  0.9804 -2.1772 -1.4654
  145SAPE  H20S15985   6.993   3.662   8.875 -0.3873 -1.1074 -0.0433
  145SAPE  H20T15986   6.948   3.819   8.951 -0.4730  0.0822  1.3578
  145SAPE   C3315987   7.211   2.280  10.147  0.1023  0.1462  0.3205
  145SAPE   H3X15988   7.118   2.222  10.165  0.3601 -0.5023 -0.4163
  145SAPE   H3Y15989   7.287   2.227  10.208 -1.0307 -1.3541  0.4711
  145SAPE   C3415990   7.263   2.269  10.002 -0.3401 -0.3034  0.1700
  145SAPE   H4X15991   7.366   2.310   9.992 -0.6306  0.2050 -0.8679
  145SAPE   H4Y15992   7.207   2.332   9.929  0.6825  1.5491  0.9017
  145SAPE   C3515993   7.269   2.129   9.952 -0.4430  1.0787  0.5410
  145SAPE   H5X15994   7.170   2.092   9.916 -0.1287  0.9010 -0.1635
  145SAPE   H5Y15995   7.309   2.060  10.029  0.7312  1.6601  0.4713
  145SAPE   C3615996   7.368   2.122   9.833  0.7113 -0.1408 -0.5187
  145SAPE   H6X15997   7.379   2.015   9.804 -2.8095 -1.2608  1.6397
  145SAPE   H6Y15998   7.467   2.145   9.879 -0.2073  3.8588 -0.2348
  145SAPE   C3715999   7.329   2.209   9.712 -0.5029  0.3645 -0.6462
  145SAPE   H7X16000   7.420   2.215   9.650  0.5652  0.5467  0.8803
  145SAPE   H7Y16001   7.318   2.314   9.748 -1.1144  0.2580 -0.5047
  145SAPE   C3816002   7.199   2.179   9.645  0.2201 -0.6352  0.4340
  145SAPE   H8X16003   7.113   2.191   9.714  0.5892  3.9878  0.3898
  145SAPE   H8Y16004   7.209   2.071   9.621 -1.3002 -0.3659 -1.7793
  145SAPE   C3916005   7.184   2.257   9.511  0.6200  0.0306 -0.5368
  145SAPE   H9X16006   7.254   2.203   9.443  0.7992 -0.9303  0.3697
  145SAPE   H9Y16007   7.219   2.361   9.528 -2.3717  1.5532 -2.9128
  145SAPE  C31016008   7.041   2.247   9.456  0.1500 -0.2993 -0.0651
  145SAPE  H10X16009   6.965   2.292   9.524 -0.1509  2.6084 -2.1379
  145SAPE  H10Y16010   7.019   2.139   9.439  1.6281 -0.6774  0.2961
  145SAPE  C31116011   7.027   2.316   9.315 -1.1444  0.3472 -0.1163
  145SAPE  H11X16012   6.935   2.271   9.272 -0.0260 -1.7283 -0.4841
  145SAPE  H11Y16013   7.112   2.292   9.248  1.2227 -0.3908  2.8845
  145SAPE  C31216014   7.026   2.469   9.319  0.7136  0.2350  0.7807
  145SAPE  H12X16015   7.109   2.509   9.381  2.4019 -1.6616 -0.1254
  145SAPE  H12Y16016   6.930   2.506   9.359  0.1941 -1.2330  0.9727
  145SAPE  C31316017   7.037   2.539   9.184  0.6420 -0.3961  0.0191
  145SAPE  H13X16018   6.965   2.495   9.111  0.3729 -1.6695  1.0049
  145SAPE  H13Y16019   7.142   2.530   9.150  0.9018 -1.1786  0.9734
  145SAPE  C31416020   7.011   2.691   9.189 -0.3235 -0.3590  0.3828
  145SAPE  H14X16021   6.918   2.718   9.244 -0.6284 -2.2415  0.8425
  145SAPE  H14Y16022   6.991   2.737   9.090  0.9192  0.4841  0.4968
  145SAPE  C31516023   7.141   2.764   9.247  0.0019  0.5447 -0.4928
  145SAPE  H15X16024   7.201   2.780   9.155  0.0193 -1.4644 -0.8861
  145SAPE  H15Y16025   7.200   2.709   9.324  2.9730  1.0142 -2.2839
  145SAPE  C31616026   7.110   2.896   9.310  0.3837 -0.3733  0.3068
  145SAPE  H16X16027   7.205   2.943   9.342  0.1145  1.3507 -1.2862
  145SAPE  H16Y16028   7.043   2.868   9.394 -0.1329 -0.1137 -0.0136
  145SAPE  C31716029   7.047   2.994   9.209 -0.6190  0.7261  0.6012
  145SAPE  H17X16030   6.950   2.960   9.167  0.5555 -0.9820 -0.8983
  145SAPE  H17Y16031   7.116   2.987   9.122 -2.7431 -2.6749 -1.0402
  145SAPE  C31816032   7.026   3.137   9.262  0.0267 -0.0076  0.1422
  145SAPE  H18X16033   6.954   3.190   9.198  0.7061  3.1724  1.8058
  145SAPE  H18Y16034   7.118   3.200   9.264  0.4777 -0.6472  0.1476
  145SAPE  H18Z16035   6.986   3.128   9.365  0.0115 -1.1935  0.0539
  146SAPE     N16036   6.389   3.301  11.066 -0.2801  0.0026 -0.3725
  146SAPE   HN116037   6.377   3.318  11.168 -0.4216  2.3135 -0.7240
  146SAPE   HN216038   6.381   3.197  11.055  0.4935  0.1600 -3.1561
  146SAPE   HN316039   6.488   3.327  11.048  0.3124 -0.8561  1.3772
  146SAPE   C1216040   6.298   3.379  10.971  0.2824  0.1413  0.1477
  146SAPE  H12A16041   6.299   3.486  11.002 -0.1806  0.4871 -0.9668
  146SAPE  H12B16042   6.199   3.329  10.981 -0.3356  0.7707 -2.0821
  146SAPE   C1116043   6.325   3.357  10.821 -0.1831  0.4386 -0.5218
  146SAPE  H11A16044   6.413   3.421  10.799  1.1870 -0.9946  0.6395
  146SAPE  H11B16045   6.234   3.389  10.765 -1.0296 -2.1352 -0.7237
  146SAPE     P16046   6.394   3.178  10.655 -0.2089  0.2702  0.0061
  146SAPE   O1316047   6.539   3.192  10.640 -0.6141 -0.3318 -0.1631
  146SAPE   O1416048   6.334   3.042  10.629 -0.4073  0.4377 -0.1393
  146SAPE   O1216049   6.347   3.219  10.795 -0.9093 -0.1442 -0.0858
  146SAPE   O1116050   6.324   3.281  10.553 -0.2836  0.2734  0.0896
  146SAPE    C116051   6.414   3.356  10.475 -0.3518 -0.5157 -0.5139
  146SAPE    HA16052   6.473   3.430  10.535 -2.1280  1.3658 -0.9822
  146SAPE    HB16053   6.483   3.296  10.413 -0.0316  0.0069 -0.6702
  146SAPE    C216054   6.336   3.450  10.375  0.4588  0.4896  0.5577
  146SAPE    HS16055   6.298   3.535  10.436 -1.3965 -0.1248  0.3046
  146SAPE   O2116056   6.217   3.388  10.321 -0.2920  0.1436 -0.5543
  146SAPE   C2116057   6.224   3.271  10.262 -0.4217  0.9269  0.0326
  146SAPE   O2216058   6.327   3.202  10.240 -0.1879  0.1652 -0.0128
  146SAPE   C2216059   6.077   3.221  10.236  0.8512  0.1433 -0.6568
  146SAPE   H2R16060   6.057   3.157  10.324 -3.0909  0.5822 -1.0620
  146SAPE   H2S16061   6.006   3.307  10.231 -1.5398 -1.5252  1.8527
  146SAPE    C316062   6.422   3.505  10.253 -0.2067 -0.5513 -0.3080
  146SAPE    HX16063   6.451   3.414  10.195 -1.5765  0.5016 -2.8300
  146SAPE    HY16064   6.523   3.528  10.294 -0.2539  0.7144 -0.8450
  146SAPE   O3116065   6.374   3.598  10.159 -0.8157  0.8136  0.0629
  146SAPE   C3116066   6.335   3.724  10.199  0.4765  0.3878  0.1475
  146SAPE   O3216067   6.350   3.772  10.311  0.7068 -0.2973  0.1633
  146SAPE   C3216068   6.265   3.795  10.081 -0.2725  0.1663  0.2477
  146SAPE   H2X16069   6.187   3.735  10.030  0.5074 -0.5366 -0.1341
  146SAPE   H2Y16070   6.349   3.804  10.009 -1.0409  2.2494 -0.4552
  146SAPE   C2316071   6.052   3.122  10.114  0.3411  0.4064  0.2506
  146SAPE   H3R16072   5.947   3.091  10.131 -0.2408  0.9112 -2.1121
  146SAPE   H3S16073   6.114   3.032  10.129 -1.0972 -1.2074 -2.6832
  146SAPE   C2416074   6.064   3.173   9.973 -0.3497  0.2518 -0.2673
  146SAPE   H4R16075   6.007   3.268   9.970  1.0560  1.1108 -0.6000
  146SAPE   H4S16076   6.020   3.106   9.896 -1.6024  0.6050  0.1116
  146SAPE   C2516077   6.208   3.198   9.939 -0.1835 -0.1965  0.6346
  146SAPE   H5R16078   6.274   3.111   9.960  0.8153  0.8838  2.2640
  146SAPE   C2616079   6.268   3.308   9.895  0.0860 -0.0469 -0.0942
  146SAPE   H6R16080   6.371   3.301   9.858 -0.2717 -0.5063 -1.0415
  146SAPE   C2716081   6.203   3.444   9.867  0.4174  0.8085  0.3139
  146SAPE   H7R16082   6.170   3.485   9.965  1.5184 -2.1159  2.0456
  146SAPE   H7S16083   6.113   3.437   9.802  0.0132 -0.2214  0.9556
  146SAPE   C2816084   6.306   3.551   9.823  0.1116  1.0930  0.3144
  146SAPE   H8R16085   6.391   3.555   9.893 -0.8766  0.0400  1.6120
  146SAPE   C2916086   6.309   3.624   9.713 -0.1468 -1.2141  0.6129
  146SAPE   H9R16087   6.383   3.706   9.716 -2.9892  1.5698  1.1749
  146SAPE  C21016088   6.220   3.635   9.594  0.0489 -1.0551  1.4624
  146SAPE  H10R16089   6.168   3.732   9.604  2.4505  0.4401  0.4664
  146SAPE  H10S16090   6.140   3.559   9.602 -2.1393  1.0883  1.0355
  146SAPE  C21116091   6.280   3.621   9.452  0.2241 -0.4243  0.2982
  146SAPE  H11R16092   6.340   3.531   9.433  0.2168 -0.5403  0.8046
  146SAPE  C21216093   6.268   3.697   9.347  0.1514  0.8379 -0.1430
  146SAPE  H12R16094   6.310   3.669   9.249  1.7546  0.6744  0.5613
  146SAPE  C21316095   6.196   3.829   9.345  0.7382 -0.2447 -0.1275
  146SAPE  H13R16096   6.251   3.896   9.275 -1.9720  0.4773 -1.7158
  146SAPE  H13S16097   6.202   3.885   9.441  1.4616  2.9112 -1.8678
  146SAPE  C21416098   6.052   3.822   9.315  0.3908  0.0284 -0.4032
  146SAPE  H14R16099   5.995   3.772   9.395  0.2244  0.8827  0.0283
  146SAPE  C21516100   5.979   3.866   9.215 -0.0657 -0.0672  0.2176
  146SAPE  H15R16101   5.870   3.849   9.220 -0.0018 -0.1277  1.9522
  146SAPE  C21616102   6.031   3.947   9.100  0.1728 -0.2963  0.3819
  146SAPE  H16R16103   6.128   3.900   9.074  0.2442  0.2325 -0.3433
  146SAPE  H16S16104   6.057   4.052   9.128  0.1909  0.2575 -1.5482
  146SAPE  C21716105   5.943   3.957   8.967 -0.1597 -0.0040 -0.1694
  146SAPE  H17R16106   5.843   3.997   8.995  0.9736  1.2611  2.5100
  146SAPE  H17S16107   5.933   3.853   8.930 -0.9452 -1.9712  4.7222
  146SAPE  C21816108   6.002   4.044   8.857  0.2223  1.0982 -0.3942
  146SAPE  H18R16109   6.085   3.989   8.807 -0.8491 -2.2689  1.2322
  146SAPE  H18S16110   6.037   4.131   8.916 -2.4624  1.2065  1.1684
  146SAPE  C21916111   5.894   4.082   8.753 -0.4474  0.1351 -0.6841
  146SAPE  H19R16112   5.808   4.135   8.800  0.7430  1.3571  0.1922
  146SAPE  H19S16113   5.872   3.979   8.717  1.1079 -0.3422 -0.3134
  146SAPE  C22016114   5.952   4.177   8.646 -0.0578  0.0785 -0.3925
  146SAPE  H20R16115   5.985   4.268   8.702 -0.1723 -1.4146  2.2700
  146SAPE  H20S16116   5.883   4.198   8.562 -3.3408 -0.3761  1.9878
  146SAPE  H20T16117   6.048   4.138   8.605  0.4555  0.5191  0.3434
  146SAPE   C3316118   6.211   3.941  10.108 -0.1754 -0.1216  0.0525
  146SAPE   H3X16119   6.142   3.945  10.195 -0.3262 -1.5225  0.0251
  146SAPE   H3Y16120   6.144   3.964  10.022  0.5632 -2.8077 -1.3439
  146SAPE   C3416121   6.312   4.060  10.105 -0.8424 -0.9136  0.6117
  146SAPE   H4X16122   6.392   4.051  10.029  2.3870 -2.3542  3.8946
  146SAPE   H4Y16123   6.356   4.075  10.206 -2.1717 -1.0414  1.2301
  146SAPE   C3516124   6.239   4.190  10.094 -0.0000  0.2052  0.4927
  146SAPE   H5X16125   6.178   4.212  10.184 -1.1031 -1.1059  0.1016
  146SAPE   H5Y16126   6.176   4.172  10.005  1.4912 -1.1714 -0.3381
  146SAPE   C3616127   6.335   4.312  10.075  0.3255  0.2626  0.6664
  146SAPE   H6X16128   6.440   4.282  10.098  0.4855 -0.7573 -1.1968
  146SAPE   H6Y16129   6.314   4.389  10.152  1.3430  1.6284 -0.3648
  146SAPE   C3716130   6.317   4.380   9.944  0.8272  0.0018  0.2425
  146SAPE   H7X16131   6.363   4.482   9.947 -0.5540  0.7252 -1.4896
  146SAPE   H7Y16132   6.210   4.404   9.927  0.8837  2.2798  2.4152
  146SAPE   C3816133   6.370   4.314   9.813  0.4055  0.1634 -0.2524
  146SAPE   H8X16134   6.298   4.230   9.806  1.8477 -1.7205  3.9653
  146SAPE   H8Y16135   6.466   4.261   9.834  1.5099  1.6717 -1.2928
  146SAPE   C3916136   6.364   4.402   9.690 -0.9110 -0.8218  1.5061
  146SAPE   H9X16137   6.451   4.470   9.683 -0.1623 -1.9237 -1.6561
  146SAPE   H9Y16138   6.275   4.468   9.686  0.4841  1.0757  0.2970
  146SAPE  C31016139   6.368   4.319   9.561  0.4551  0.4225  0.5352
  146SAPE  H10X16140   6.291   4.240   9.567 -0.7550  1.6643  2.6495
  146SAPE  H10Y16141   6.469   4.272   9.563  0.0029 -0.8836 -2.4570
  146SAPE  C31116142   6.336   4.394   9.433 -0.1301 -0.1329 -0.4734
  146SAPE  H11X16143   6.384   4.494   9.445 -0.5671  0.3386 -2.3342
  146SAPE  H11Y16144   6.226   4.410   9.434 -0.1960 -0.5690  0.9055
  146SAPE  C31216145   6.396   4.332   9.309 -0.4252  0.3124  0.0973
  146SAPE  H12X16146   6.366   4.226   9.298  0.1077  0.0880  0.7770
  146SAPE  H12Y16147   6.506   4.331   9.322 -0.3165 -1.8460 -0.6229
  146SAPE  C31316148   6.351   4.409   9.187 -0.3597 -0.4422  0.1506
  146SAPE  H13X16149   6.423   4.411   9.102 -2.5820  1.7992 -1.8708
  146SAPE  H13Y16150   6.354   4.517   9.213  0.8432  0.0004 -1.5978
  146SAPE  C31416151   6.221   4.358   9.139  0.5196 -0.3307 -0.8817
  146SAPE  H14X16152   6.140   4.336   9.210  0.1249 -1.2148 -1.5878
  146SAPE  H14Y16153   6.238   4.263   9.083 -0.4442 -0.4013 -1.0652
  146SAPE  C31516154   6.168   4.455   9.040  0.2044 -0.3229 -0.4609
  146SAPE  H15X16155   6.152   4.551   9.093  1.3253 -1.5049  2.2229
  146SAPE  H15Y16156   6.068   4.414   9.017 -0.8783  2.3739 -0.9403
  146SAPE  C31616157   6.253   4.474   8.914  0.3610  0.2121  0.0435
  146SAPE  H16X16158   6.283   4.378   8.867 -2.2246  0.6426 -2.7993
  146SAPE  H16Y16159   6.349   4.526   8.936 -0.2782  0.9824  1.1553
  146SAPE  C31716160   6.185   4.548   8.801  0.5210 -1.0721 -0.4300
  146SAPE  H17X16161   6.147   4.638   8.855  0.4041 -1.4982  0.2058
  146SAPE  H17Y16162   6.095   4.487   8.777 -0.3605  0.8002 -2.2911
  146SAPE  C31816163   6.272   4.567   8.682  0.2174  0.0715 -0.3073
  146SAPE  H18X16164   6.221   4.619   8.598  1.5979 -0.6282 -1.6256
  146SAPE  H18Y16165   6.306   4.469   8.643  1.2942  0.6638 -0.9016
  146SAPE  H18Z16166   6.360   4.631   8.701  0.0782  0.0671  0.3766
  147SAPE     N16167   1.015   6.191  10.945 -0.1138 -1.0631 -0.2074
  147SAPE   HN116168   0.914   6.166  10.940 -0.0244 -1.9438  1.5198
  147SAPE   HN216169   1.064   6.130  10.877 -1.5868 -0.2226 -2.1005
  147SAPE   HN316170   1.050   6.176  11.042  0.5097  1.2510 -0.0133
  147SAPE   C1216171   1.033   6.337  10.911  0.2504  0.0272  0.2795
  147SAPE  H12A16172   1.139   6.352  10.880  0.8354 -3.0488  0.5323
  147SAPE  H12B16173   1.004   6.401  10.997 -3.1290  0.1631 -0.8218
  147SAPE   C1116174   0.947   6.388  10.793  0.3605 -0.3862  0.1418
  147SAPE  H11A16175   0.989   6.350  10.698 -1.6683  0.2151 -1.0654
  147SAPE  H11B16176   0.961   6.497  10.776  2.1074 -0.0400  3.1131
  147SAPE     P16177   0.741   6.230  10.770  0.0556  0.4549  0.3379
  147SAPE   O1316178   0.747   6.128  10.878 -0.1814 -0.3053 -0.6527
  147SAPE   O1416179   0.607   6.267  10.723  0.3383  0.2397  0.4095
  147SAPE   O1216180   0.811   6.361  10.817 -0.3294  0.3339  0.3173
  147SAPE   O1116181   0.836   6.190  10.646  0.2411 -0.4774  0.0364
  147SAPE    C116182   0.808   6.241  10.518 -0.2860 -0.2086  0.4231
  147SAPE    HA16183   0.787   6.350  10.512 -0.3789 -0.2265  0.4279
  147SAPE    HB16184   0.906   6.234  10.465 -0.0872  0.5506  0.6792
  147SAPE    C216185   0.702   6.142  10.455 -0.2742 -0.5600 -0.0038
  147SAPE    HS16186   0.645   6.089  10.533 -0.0621 -0.9327 -0.1013
  147SAPE   O2116187   0.770   6.065  10.360 -0.0994 -0.4419  0.1724
  147SAPE   C2116188   0.718   5.943  10.341  0.1670  1.0873  0.2069
  147SAPE   O2216189   0.631   5.887  10.407 -0.1855  0.2117 -0.2023
  147SAPE   C2216190   0.779   5.872  10.218  0.1520 -0.3882  1.1553
  147SAPE   H2R16191   0.888   5.858  10.235  0.4841 -1.8685 -1.5490
  147SAPE   H2S16192   0.739   5.770  10.230  1.2718 -1.0658 -0.4736
  147SAPE    C316193   0.590   6.225  10.382  0.6551  0.2720  0.1037
  147SAPE    HX16194   0.554   6.302  10.453  0.7776  1.1056 -0.7218
  147SAPE    HY16195   0.504   6.158  10.359  1.3850 -0.0017 -2.0317
  147SAPE   O3116196   0.647   6.297  10.262 -0.8563 -0.4929  0.2280
  147SAPE   C3116197   0.616   6.240  10.149  0.4395 -0.2909 -0.1419
  147SAPE   O3216198   0.548   6.139  10.137  0.9571 -0.0891  0.2184
  147SAPE   C3216199   0.689   6.332  10.035  0.4785  0.4760 -0.4792
  147SAPE   H2X16200   0.798   6.319  10.055 -0.0319 -0.8678  1.7297
  147SAPE   H2Y16201   0.650   6.434  10.053  0.6952  0.2262  1.6687
  147SAPE   C2316202   0.736   5.921  10.079  0.7103 -0.0054  0.0917
  147SAPE   H3R16203   0.755   6.030  10.066  2.2153 -0.1507  0.8996
  147SAPE   H3S16204   0.626   5.914  10.061  0.7818 -2.1701  0.2617
  147SAPE   C2416205   0.805   5.845   9.960 -0.1242  0.0034 -0.7226
  147SAPE   H4R16206   0.908   5.821   9.993 -0.2614 -0.5497 -0.6952
  147SAPE   H4S16207   0.811   5.922   9.880  1.1777  0.4868 -0.1800
  147SAPE   C2516208   0.734   5.722   9.905 -0.3349  0.4890 -0.1340
  147SAPE   H5R16209   0.754   5.626   9.954  0.9167  1.4949  1.4186
  147SAPE   C2616210   0.666   5.727   9.793 -0.4998 -0.2275 -0.5345
  147SAPE   H6R16211   0.615   5.633   9.766 -1.4564  0.0746  0.1453
  147SAPE   C2716212   0.630   5.838   9.700  0.1382  0.1207  0.2386
  147SAPE   H7R16213   0.596   5.791   9.605  0.6089 -1.1786  0.6849
  147SAPE   H7S16214   0.723   5.888   9.662  1.9124 -2.2153  1.2508
  147SAPE   C2816215   0.534   5.945   9.757 -0.0891  0.6156  0.1893
  147SAPE   H8R16216   0.544   5.945   9.866  3.0265 -4.5797  0.2326
  147SAPE   C2916217   0.465   6.036   9.691  0.1915  0.4088  0.2375
  147SAPE   H9R16218   0.418   6.117   9.748 -0.7678  0.6894 -0.9113
  147SAPE  C21016219   0.452   6.053   9.534 -0.0689 -0.1938  0.4591
  147SAPE  H10R16220   0.519   5.985   9.478  2.3102  2.4962 -0.2244
  147SAPE  H10S16221   0.504   6.149   9.514 -0.1642 -0.0222  1.0055
  147SAPE  C21116222   0.309   6.051   9.474  0.2316 -0.1351 -0.6532
  147SAPE  H11R16223   0.236   5.990   9.529 -0.7403 -0.5238 -2.3204
  147SAPE  C21216224   0.256   6.116   9.369  0.8421  0.6570  0.1616
  147SAPE  H12R16225   0.151   6.090   9.347  0.1856  2.8927  0.4255
  147SAPE  C21316226   0.324   6.207   9.264  0.1713 -0.7521  0.5789
  147SAPE  H13R16227   0.286   6.176   9.164 -1.9065 -1.1725  1.4411
  147SAPE  H13S16228   0.431   6.177   9.254  0.0540 -1.1797  0.5750
  147SAPE  C21416229   0.309   6.354   9.293 -0.6413 -0.0103  1.0071
  147SAPE  H14R16230   0.329   6.381   9.398  0.7386  0.3839  0.6624
  147SAPE  C21516231   0.290   6.451   9.202  0.2331  1.3047  0.1886
  147SAPE  H15R16232   0.304   6.553   9.240  2.6208  1.6751 -1.5245
  147SAPE  C21616233   0.275   6.438   9.050  0.0941 -0.1647 -0.1964
  147SAPE  H16R16234   0.210   6.347   9.043  0.9127 -1.0511  2.5651
  147SAPE  H16S16235   0.376   6.424   9.007  1.0380 -0.4627  2.0094
  147SAPE  C21716236   0.201   6.566   8.985  0.1774 -0.7984 -0.9090
  147SAPE  H17R16237   0.246   6.657   9.032 -1.1457 -0.4601 -0.2579
  147SAPE  H17S16238   0.098   6.561   9.027  0.6142  0.8582  0.4773
  147SAPE  C21816239   0.221   6.573   8.836  1.7035 -0.1603  0.4241
  147SAPE  H18R16240   0.330   6.590   8.829  1.5568  0.3995 -0.7505
  147SAPE  H18S16241   0.161   6.662   8.805  0.6899  0.4245  3.6464
  147SAPE  C21916242   0.163   6.448   8.765 -0.2818  0.6419 -0.9444
  147SAPE  H19R16243   0.086   6.400   8.829  0.0687  1.9008  0.4793
  147SAPE  H19S16244   0.245   6.375   8.745 -1.0723  0.1175 -2.3836
  147SAPE  C22016245   0.108   6.476   8.628  0.1970 -0.6610 -0.0177
  147SAPE  H20R16246   0.063   6.396   8.565 -0.9056 -0.2860  0.2523
  147SAPE  H20S16247   0.189   6.521   8.567  1.7725  0.7445  2.9107
  147SAPE  H20T16248   0.021   6.545   8.640 -0.8649 -2.1081  1.1421
  147SAPE   C3316249   0.647   6.284   9.897 -0.0165  0.0286 -0.4749
  147SAPE   H3X16250   0.537   6.285   9.883 -0.3199  0.0188  1.5763
  147SAPE   H3Y16251   0.679   6.178   9.889  1.8870  0.3881  1.4274
  147SAPE   C3416252   0.717   6.369   9.792  0.3072  0.0098 -0.1265
  147SAPE   H4X16253   0.822   6.333   9.784  1.5283  3.1197  0.2875
  147SAPE   H4Y16254   0.710   6.477   9.817 -2.9747 -0.6033  2.1846
  147SAPE   C3516255   0.661   6.337   9.653  0.7938  0.4017  0.5817
  147SAPE   H5X16256   0.553   6.309   9.656  1.1299 -0.8739  1.2948
  147SAPE   H5Y16257   0.705   6.239   9.624  1.1314  0.6714  0.1694
  147SAPE   C3616258   0.706   6.430   9.538 -0.0156  0.2117 -0.1936
  147SAPE   H6X16259   0.811   6.463   9.554 -0.3665 -0.0205  3.4782
  147SAPE   H6Y16260   0.654   6.528   9.545  1.5451  1.0077  0.8661
  147SAPE   C3716261   0.682   6.380   9.399 -0.4857  0.3885  0.1651
  147SAPE   H7X16262   0.574   6.378   9.374 -0.5952  1.2673  0.5551
  147SAPE   H7Y16263   0.717   6.274   9.396  1.3772  0.9771 -1.4720
  147SAPE   C3816264   0.761   6.454   9.295  0.8717 -0.3821  0.5981
  147SAPE   H8X16265   0.864   6.479   9.329 -0.0627  1.0541  2.5961
  147SAPE   H8Y16266   0.715   6.555   9.284  0.3983 -0.7251 -0.8312
  147SAPE   C3916267   0.773   6.383   9.161  1.3156 -0.3473  0.5176
  147SAPE   H9X16268   0.832   6.291   9.179  1.1363 -0.5441  0.1164
  147SAPE   H9Y16269   0.837   6.453   9.103  0.2985 -1.2238 -1.8207
  147SAPE  C31016270   0.647   6.345   9.082  0.3615 -0.0791  0.6000
  147SAPE  H10X16271   0.578   6.419   9.036  1.2460  0.1751 -0.3694
  147SAPE  H10Y16272   0.587   6.299   9.163  0.2316 -1.8656 -0.4697
  147SAPE  C31116273   0.678   6.243   8.977 -0.3393 -0.1828  0.0365
  147SAPE  H11X16274   0.588   6.179   8.965 -0.7558  0.0302  1.8694
  147SAPE  H11Y16275   0.766   6.184   9.010  1.3145  2.1246 -0.0294
  147SAPE  C31216276   0.716   6.305   8.844 -0.7918  0.6849 -0.3600
  147SAPE  H12X16277   0.747   6.221   8.779 -2.5379 -1.0031  0.8943
  147SAPE  H12Y16278   0.809   6.366   8.854 -0.1713 -0.2321 -0.4414
  147SAPE  C31316279   0.592   6.374   8.782  0.5817 -0.0726  0.3241
  147SAPE  H13X16280   0.573   6.471   8.832 -0.8604  1.4436 -2.8642
  147SAPE  H13Y16281   0.500   6.314   8.792 -1.1054  2.4807  1.0626
  147SAPE  C31416282   0.625   6.406   8.630 -0.2591 -0.0087  1.0813
  147SAPE  H14X16283   0.629   6.311   8.574  0.1197 -0.2256  1.4706
  147SAPE  H14Y16284   0.726   6.449   8.615  0.3655 -1.6714  0.2709
  147SAPE  C31516285   0.510   6.507   8.578 -0.4672  0.9212 -0.5813
  147SAPE  H15X16286   0.526   6.604   8.630  0.0329 -0.1907  1.4602
  147SAPE  H15Y16287   0.410   6.465   8.602  0.4736 -0.5748  0.9691
  147SAPE  C31616288   0.509   6.528   8.425  0.5949 -0.1382 -0.3175
  147SAPE  H16X16289   0.408   6.556   8.386  0.2035  1.1863  1.4739
  147SAPE  H16Y16290   0.537   6.439   8.366 -1.4085  0.0671 -1.6881
  147SAPE  C31716291   0.608   6.643   8.390  0.2313  0.4789 -0.1844
  147SAPE  H17X16292   0.692   6.626   8.461 -1.0271 -1.0759  1.0046
  147SAPE  H17Y16293   0.564   6.742   8.415  1.6453  0.5866  2.1970
  147SAPE  C31816294   0.647   6.654   8.246  0.1097  0.1475  0.2852
  147SAPE  H18X16295   0.550   6.668   8.193  0.7479  2.6867 -0.3546
  147SAPE  H18Y16296   0.692   6.557   8.216 -0.9176 -0.2933  0.1118
  147SAPE  H18Z16297   0.708   6.744   8.224  0.0929  0.0058 -0.3813
  148SAPE     N16298   2.593   1.994  10.894 -0.5370 -0.7062 -0.2082
  148SAPE   HN116299   2.505   2.026  10.938 -0.9094  1.3938 -2.3469
  148SAPE   HN216300   2.665   1.966  10.965 -0.3121 -1.1411 -0.5977
  148SAPE   HN316301   2.639   2.071  10.842  0.8773 -1.4839 -0.1838
  148SAPE   C1216302   2.572   1.884  10.794 -0.0641  0.4432  0.3582
  148SAPE  H12A16303   2.539   1.793  10.849 -0.6264 -0.0674 -0.7669
  148SAPE  H12B16304   2.672   1.864  10.748  0.6395  0.0481  1.9970
  148SAPE   C1116305   2.447   1.930  10.701  0.6057 -0.1626  0.6462
  148SAPE  H11A16306   2.358   1.926  10.767 -1.4053  0.4081 -1.8961
  148SAPE  H11B16307   2.433   1.853  10.623 -0.8034  1.6426 -0.9774
  148SAPE     P16308   2.569   2.078  10.521 -0.2878  0.6504  0.5111
  148SAPE   O1316309   2.567   2.218  10.478  0.1527  0.2285  0.1557
  148SAPE   O1416310   2.694   2.006  10.557 -0.5865  0.4815 -0.9299
  148SAPE   O1216311   2.464   2.059  10.638 -0.1770  0.0307  0.2225
  148SAPE   O1116312   2.513   1.986  10.409  0.1217  0.4741  0.4950
  148SAPE    C116313   2.373   1.967  10.379 -0.0085 -0.1393 -0.5934
  148SAPE    HA16314   2.368   1.871  10.322 -3.4310  0.4687 -1.5235
  148SAPE    HB16315   2.312   1.958  10.471  0.5173  1.0403 -0.1141
  148SAPE    C216316   2.311   2.080  10.299  0.3979  0.0278 -0.0783
  148SAPE    HS16317   2.293   2.174  10.355 -0.7433 -0.8529  1.0927
  148SAPE   O2116318   2.184   2.019  10.266  0.0789  0.6603 -0.2832
  148SAPE   C2116319   2.079   2.100  10.250  0.0237 -0.0406 -0.3614
  148SAPE   O2216320   2.083   2.216  10.255  0.0578 -0.5724 -0.3191
  148SAPE   C2216321   1.958   2.010  10.214  0.4481  0.5625 -0.5311
  148SAPE   H2R16322   1.982   1.903  10.234 -1.6405  0.1172 -0.2083
  148SAPE   H2S16323   1.872   2.044  10.276  0.5015  0.8090 -0.5927
  148SAPE    C316324   2.397   2.110  10.174  0.8096  0.5224 -0.1754
  148SAPE    HX16325   2.430   2.015  10.126  4.9445  1.5056  0.3442
  148SAPE    HY16326   2.497   2.151  10.200 -0.7460  2.5573  3.2802
  148SAPE   O3116327   2.333   2.197  10.076 -0.0685 -0.4772 -0.3786
  148SAPE   C3116328   2.325   2.322  10.122  0.2741  0.3578 -0.2373
  148SAPE   O3216329   2.362   2.361  10.233 -0.1026 -0.4363  0.4092
  148SAPE   C3216330   2.246   2.398  10.019  0.0901 -0.2607  0.2304
  148SAPE   H2X16331   2.230   2.500  10.061 -1.9377 -1.7146  3.3480
  148SAPE   H2Y16332   2.151   2.341  10.009  0.0546 -0.6875  2.4514
  148SAPE   C2316333   1.905   2.028  10.065  0.3731  0.4157  0.1888
  148SAPE   H3R16334   1.910   2.136  10.040  1.9840  1.0719  2.8377
  148SAPE   H3S16335   1.797   2.003  10.076  0.5951  0.0108  1.8436
  148SAPE   C2416336   1.980   1.930   9.967  0.0253  0.0006  0.3827
  148SAPE   H4R16337   1.919   1.933   9.874 -0.5526 -0.0160  0.7564
  148SAPE   H4S16338   1.972   1.828  10.009 -2.3297  0.2608  0.7110
  148SAPE   C2516339   2.126   1.965   9.935  0.2349 -0.1831  0.0430
  148SAPE   H5R16340   2.190   1.969  10.025  0.2300  1.5639 -0.0002
  148SAPE   C2616341   2.188   1.991   9.820 -0.3746 -0.3527  0.5145
  148SAPE   H6R16342   2.297   2.004   9.818 -0.1040 -2.3183 -0.6830
  148SAPE   C2716343   2.121   1.982   9.684  0.4717 -0.1726  0.6315
  148SAPE   H7R16344   2.031   2.045   9.669  0.5131 -0.4510 -1.0790
  148SAPE   H7S16345   2.065   1.886   9.674  1.1131 -0.5169  0.2859
  148SAPE   C2816346   2.209   2.001   9.567  0.3673 -0.0750  0.4259
  148SAPE   H8R16347   2.315   2.006   9.594  0.7157 -2.9004 -0.0887
  148SAPE   C2916348   2.176   2.011   9.430  0.2340  0.3572 -0.3793
  148SAPE   H9R16349   2.256   2.006   9.355 -0.4393 -1.0028 -1.0464
  148SAPE  C21016350   2.038   2.000   9.373  0.4892  0.6784 -0.1532
  148SAPE  H10R16351   1.964   2.032   9.450  0.6892 -1.5342  1.0483
  148SAPE  H10S16352   2.010   1.893   9.359  1.4103  0.2268  1.2658
  148SAPE  C21116353   2.025   2.085   9.249 -0.3169 -0.4777 -0.3127
  148SAPE  H11R16354   2.087   2.175   9.254 -2.3956  0.9474  1.8492
  148SAPE  C21216355   1.942   2.067   9.147 -0.5569  0.0129 -0.2099
  148SAPE  H12R16356   1.951   2.130   9.058 -2.0117  0.6016  0.0277
  148SAPE  C21316357   1.852   1.948   9.144  0.5252 -1.0822 -0.1653
  148SAPE  H13R16358   1.760   1.959   9.205  2.1674  0.6319  2.2025
  148SAPE  H13S16359   1.906   1.856   9.175  1.0366 -0.9646 -0.6884
  148SAPE  C21416360   1.814   1.937   9.000  0.0285 -0.4870  0.0694
  148SAPE  H14R16361   1.719   1.992   8.990  1.4752  2.8150  2.4886
  148SAPE  C21516362   1.873   1.863   8.911 -0.6387 -0.0220 -0.5627
  148SAPE  H15R16363   1.828   1.860   8.810 -0.9849  1.5008 -0.4797
  148SAPE  C21616364   1.989   1.771   8.948  0.0345 -0.0069  0.3642
  148SAPE  H16R16365   1.953   1.668   8.930 -0.6705 -0.1611  2.3989
  148SAPE  H16S16366   2.031   1.778   9.050  0.3620  0.8146  0.1849
  148SAPE  C21716367   2.098   1.813   8.861 -0.2795  0.5863  0.7849
  148SAPE  H17R16368   2.082   1.798   8.752  2.9539 -1.2648  0.4557
  148SAPE  H17S16369   2.178   1.739   8.884 -1.7028 -1.7306 -1.1792
  148SAPE  C21816370   2.159   1.949   8.881 -0.1750 -0.2408 -0.9267
  148SAPE  H18R16371   2.193   1.954   8.986 -0.2868  3.9433 -0.9548
  148SAPE  H18S16372   2.086   2.031   8.867  0.2487  0.0298 -1.5864
  148SAPE  C21916373   2.285   1.971   8.795 -0.3562  0.2402 -0.3359
  148SAPE  H19R16374   2.250   1.931   8.698  0.3580 -1.2391 -0.0072
  148SAPE  H19S16375   2.358   1.896   8.830 -1.8002 -0.5818  1.0646
  148SAPE  C22016376   2.338   2.109   8.790 -0.0211 -0.6742 -0.2939
  148SAPE  H20R16377   2.326   2.155   8.890 -3.3187 -0.4032 -0.7106
  148SAPE  H20S16378   2.274   2.175   8.727  2.5980  1.6000 -0.7541
  148SAPE  H20T16379   2.445   2.108   8.759  0.5888 -1.3735  1.6625
  148SAPE   C3316380   2.307   2.384   9.879  0.0771  0.3580 -0.5846
  148SAPE   H3X16381   2.291   2.277   9.853  2.0200  0.4116 -2.3377
  148SAPE   H3Y16382   2.415   2.409   9.887  0.8125 -2.5144 -0.5108
  148SAPE   C3416383   2.222   2.464   9.778 -0.0257  0.0853  0.0791
  148SAPE   H4X16384   2.210   2.570   9.810  1.0275 -0.0259  0.8816
  148SAPE   H4Y16385   2.119   2.423   9.776  0.7206 -1.9230  0.7007
  148SAPE   C3516386   2.280   2.463   9.637  0.2295 -0.3643 -0.0258
  148SAPE   H5X16387   2.269   2.362   9.593  0.3405 -0.2908 -0.2236
  148SAPE   H5Y16388   2.388   2.486   9.638  0.5867 -1.9016 -0.6312
  148SAPE   C3616389   2.220   2.564   9.534 -0.1239 -0.9574 -0.5082
  148SAPE   H6X16390   2.241   2.667   9.570  0.8669 -2.4035  3.5585
  148SAPE   H6Y16391   2.111   2.550   9.553 -0.1705  0.3587  0.3231
  148SAPE   C3716392   2.263   2.560   9.388 -0.4280 -0.4584  0.2702
  148SAPE   H7X16393   2.372   2.546   9.375 -0.5341  0.4156 -2.0697
  148SAPE   H7Y16394   2.239   2.659   9.342 -0.2750 -1.0133 -1.0233
  148SAPE   C3816395   2.190   2.460   9.302 -0.1325 -0.3155 -0.3696
  148SAPE   H8X16396   2.097   2.510   9.270  0.6250  0.7541 -0.9789
  148SAPE   H8Y16397   2.160   2.378   9.370 -2.2833  1.4222  0.9077
  148SAPE   C3916398   2.259   2.406   9.176  0.1655 -0.1170 -0.0677
  148SAPE   H9X16399   2.185   2.340   9.125 -0.5617  1.2119 -0.7695
  148SAPE   H9Y16400   2.346   2.341   9.199  0.0838 -0.2953 -0.2527
  148SAPE  C31016401   2.293   2.520   9.073 -0.5793  0.3496 -0.8472
  148SAPE  H10X16402   2.384   2.576   9.104 -1.0810 -0.1785  1.8594
  148SAPE  H10Y16403   2.213   2.597   9.075 -1.5544 -0.6553  0.1169
  148SAPE  C31116404   2.314   2.478   8.928  0.0935  0.6873  0.2593
  148SAPE  H11X16405   2.364   2.379   8.934  1.3985  1.2954 -0.1960
  148SAPE  H11Y16406   2.395   2.545   8.893 -0.5175  0.4488 -1.7558
  148SAPE  C31216407   2.189   2.483   8.844 -0.3360 -0.0277 -0.2068
  148SAPE  H12X16408   2.228   2.461   8.743  1.9109  2.6872 -0.0506
  148SAPE  H12Y16409   2.148   2.586   8.835  1.9872  1.5698  4.3368
  148SAPE  C31316410   2.072   2.396   8.877 -0.0147  0.6426  0.4491
  148SAPE  H13X16411   2.032   2.410   8.979  2.7258  0.3811  1.6643
  148SAPE  H13Y16412   2.106   2.290   8.868 -0.2254  0.5794  0.3994
  148SAPE  C31416413   1.955   2.408   8.778  0.0639 -0.2475 -0.0700
  148SAPE  H14X16414   2.006   2.404   8.680  0.0624 -0.9225 -0.0493
  148SAPE  H14Y16415   1.912   2.509   8.796  1.9730  0.5422  0.3309
  148SAPE  C31516416   1.849   2.302   8.805 -0.5623 -0.0213 -0.1444
  148SAPE  H15X16417   1.807   2.331   8.904  1.9883 -0.6257  1.1939
  148SAPE  H15Y16418   1.900   2.203   8.806 -0.9944 -0.2446  0.3826
  148SAPE  C31616419   1.732   2.299   8.709 -0.0592 -0.6346 -0.4037
  148SAPE  H16X16420   1.767   2.301   8.603 -0.4715 -4.1718 -0.7563
  148SAPE  H16Y16421   1.662   2.384   8.727  1.1022  1.1237 -3.4663
  148SAPE  C31716422   1.657   2.163   8.711  0.2787 -0.2314 -0.0962
  148SAPE  H17X16423   1.554   2.182   8.673 -0.0220 -1.1800  0.2340
  148SAPE  H17Y16424   1.648   2.144   8.820  0.4766  1.4044  0.2425
  148SAPE  C31816425   1.718   2.058   8.624  0.4659 -0.1928 -0.3476
  148SAPE  H18X16426   1.825   2.065   8.652 -0.4337  1.7535  3.2635
  148SAPE  H18Y16427   1.718   2.088   8.517 -0.2113 -0.3883 -0.4101
  148SAPE  H18Z16428   1.688   1.953   8.642 -1.5476  0.2934 -0.5344
  149SAPE     N16429   5.378   3.627  10.900 -0.1838 -0.4742 -0.6039
  149SAPE   HN116430   5.294   3.575  10.864 -1.3350  1.5852 -1.0692
  149SAPE   HN216431   5.357   3.677  10.988  2.3969  0.3640 -0.4078
  149SAPE   HN316432   5.399   3.708  10.838 -2.1064  0.9409  0.4917
  149SAPE   C1216433   5.502   3.546  10.931 -0.4192 -0.5756 -0.2564
  149SAPE  H12A16434   5.537   3.507  10.833  2.9116 -1.2583  1.0843
  149SAPE  H12B16435   5.475   3.457  10.993 -2.0102  0.4274  0.5818
  149SAPE   C1116436   5.625   3.627  10.987  0.6478  0.2140  0.2347
  149SAPE  H11A16437   5.710   3.556  10.999  2.7216  2.4915 -0.0763
  149SAPE  H11B16438   5.595   3.654  11.090  0.3385  0.5441  0.0606
  149SAPE     P16439   5.713   3.881  10.962  0.0690 -0.7761 -0.8594
  149SAPE   O1316440   5.604   3.957  11.024  0.1444 -0.0153 -0.6324
  149SAPE   O1416441   5.829   3.848  11.053 -0.0017  0.1087 -0.4121
  149SAPE   O1216442   5.658   3.735  10.906 -0.6073 -0.0801  0.1961
  149SAPE   O1116443   5.764   3.940  10.827  0.5676  0.3956  0.0308
  149SAPE    C116444   5.828   3.861  10.721  0.6263  0.4658 -0.9118
  149SAPE    HA16445   5.920   3.910  10.684  1.2039  1.3689  1.5776
  149SAPE    HB16446   5.868   3.766  10.760 -0.4607  0.3539 -0.0097
  149SAPE    C216447   5.726   3.829  10.611 -0.6758  0.4033  0.2922
  149SAPE    HS16448   5.650   3.760  10.652 -0.9148 -0.4603 -1.4930
  149SAPE   O2116449   5.795   3.767  10.503  0.0401 -0.1405  0.9500
  149SAPE   C2116450   5.807   3.625  10.510  0.3024  0.2297 -0.6018
  149SAPE   O2216451   5.749   3.563  10.599 -0.1117  0.0417 -0.4973
  149SAPE   C2216452   5.882   3.569  10.393  0.3830  0.5310 -0.5227
  149SAPE   H2R16453   5.960   3.643  10.366  0.8313 -0.0677 -0.8877
  149SAPE   H2S16454   5.943   3.477  10.405 -0.9856 -0.4003 -0.4862
  149SAPE    C316455   5.673   3.965  10.559  0.0471  0.4659 -0.3152
  149SAPE    HX16456   5.760   4.034  10.558 -1.0525  1.9270 -1.1857
  149SAPE    HY16457   5.623   4.013  10.646  1.5570  0.2974  0.6669
  149SAPE   O3116458   5.609   3.950  10.431 -0.3300 -0.2295  0.2555
  149SAPE   C3116459   5.669   4.020  10.331  0.3714  0.2103  0.2062
  149SAPE   O3216460   5.771   4.088  10.336  0.2780  0.0165 -0.1917
  149SAPE   C3216461   5.582   4.018  10.205  0.3694  0.3689  0.0155
  149SAPE   H2X16462   5.587   3.923  10.148  0.8126  0.3653  0.0559
  149SAPE   H2Y16463   5.620   4.088  10.128  2.4579 -1.9908 -1.2283
  149SAPE   C2316464   5.788   3.529  10.270 -0.0485  0.1541  0.2698
  149SAPE   H3R16465   5.683   3.559  10.291  0.1009 -0.3254  1.8724
  149SAPE   H3S16466   5.779   3.419  10.266  1.2611  0.0401 -0.0181
  149SAPE   C2416467   5.853   3.587  10.135  0.4167 -0.2330  1.0230
  149SAPE   H4R16468   5.804   3.542  10.046  3.0550 -0.7384 -0.2741
  149SAPE   H4S16469   5.960   3.559  10.140  0.1727 -1.0777  2.1926
  149SAPE   C2516470   5.837   3.739  10.133  0.6708  0.7095  0.2704
  149SAPE   H5R16471   5.819   3.783  10.232  0.1031 -2.7925  1.8400
  149SAPE   C2616472   5.828   3.822  10.025  0.0808 -0.2615 -0.0669
  149SAPE   H6R16473   5.817   3.929  10.049  0.4617 -0.8092  3.0696
  149SAPE   C2716474   5.828   3.786   9.879 -0.6322  0.5893  0.1864
  149SAPE   H7R16475   5.737   3.823   9.827 -1.5511  0.7647  1.8477
  149SAPE   H7S16476   5.822   3.676   9.874 -0.7411  0.6440 -1.1922
  149SAPE   C2816477   5.958   3.822   9.809 -0.6191  0.1112 -0.1142
  149SAPE   H8R16478   6.043   3.758   9.838 -0.8192 -0.2776 -0.3863
  149SAPE   C2916479   5.977   3.923   9.716 -0.2368 -0.7439 -0.4646
  149SAPE   H9R16480   6.078   3.930   9.673  0.0083  0.9656  0.2770
  149SAPE  C21016481   5.883   4.033   9.662 -0.6019 -0.4699  0.0625
  149SAPE  H10R16482   5.945   4.114   9.619 -0.3340 -1.6871 -2.0367
  149SAPE  H10S16483   5.832   4.083   9.746 -0.2514  1.2545 -0.7181
  149SAPE  C21116484   5.767   3.983   9.569  0.9666 -0.3363 -0.1111
  149SAPE  H11R16485   5.729   3.887   9.607  1.1213  0.8512  3.4362
  149SAPE  C21216486   5.713   4.044   9.466 -0.1326  0.2251  0.1612
  149SAPE  H12R16487   5.632   3.995   9.411 -1.1801  0.4115  1.4839
  149SAPE  C21316488   5.748   4.188   9.424  0.4788  0.4525  0.4182
  149SAPE  H13R16489   5.796   4.249   9.504  1.3250 -0.1395  0.3680
  149SAPE  H13S16490   5.649   4.236   9.410 -0.3001 -0.3695  2.6762
  149SAPE  C21416491   5.839   4.178   9.307 -0.4430 -0.2766 -0.9910
  149SAPE  H14R16492   5.914   4.098   9.310 -0.0113  0.1329  2.0230
  149SAPE  C21516493   5.827   4.254   9.193  0.8076  0.5678  0.2761
  149SAPE  H15R16494   5.895   4.241   9.108  1.0609  1.0991  0.4001
  149SAPE  C21616495   5.725   4.362   9.156 -0.2436  0.1477 -0.7416
  149SAPE  H16R16496   5.785   4.456   9.145  0.1719 -0.0541 -0.2511
  149SAPE  H16S16497   5.639   4.376   9.224 -1.2221  1.1483 -2.1274
  149SAPE  C21716498   5.646   4.353   9.026 -0.0743  0.9195 -0.5137
  149SAPE  H17R16499   5.723   4.359   8.945 -0.8708  0.7066 -1.3057
  149SAPE  H17S16500   5.572   4.434   9.014  0.6844  1.4424 -1.9525
  149SAPE  C21816501   5.569   4.214   9.021  0.0294 -0.3015 -0.5026
  149SAPE  H18R16502   5.504   4.209   9.111  1.1788  0.0115  0.3757
  149SAPE  H18S16503   5.644   4.132   9.029 -0.9061 -1.1219  0.2945
  149SAPE  C21916504   5.499   4.207   8.885 -0.7053 -0.1754 -0.1733
  149SAPE  H19R16505   5.574   4.154   8.821 -1.4547 -1.9212  0.3378
  149SAPE  H19S16506   5.466   4.305   8.844 -0.2080  0.2243  0.3703
  149SAPE  C22016507   5.383   4.117   8.894  0.2692  0.1554  0.5445
  149SAPE  H20R16508   5.309   4.151   8.970  1.0042 -0.4637  1.5734
  149SAPE  H20S16509   5.418   4.013   8.915  0.1357 -0.0824 -0.4008
  149SAPE  H20T16510   5.331   4.104   8.797  0.5989 -1.0128  0.5010
  149SAPE   C3316511   5.433   4.059  10.221 -0.2012  0.0454  0.9582
  149SAPE   H3X16512   5.411   4.153  10.277 -1.9095  1.8675 -2.4660
  149SAPE   H3Y16513   5.380   3.976  10.271  0.2043 -1.1566 -0.5282
  149SAPE   C3416514   5.371   4.074  10.080 -0.0723 -0.1749 -0.8016
  149SAPE   H4X16515   5.428   4.156  10.030  0.8235  0.2648  0.8651
  149SAPE   H4Y16516   5.270   4.120  10.086  0.4585  1.1808 -1.7972
  149SAPE   C3516517   5.364   3.950   9.992  0.3207  0.1758 -0.7408
  149SAPE   H5X16518   5.312   3.863  10.038  1.0299  0.9067  1.5632
  149SAPE   H5Y16519   5.464   3.905   9.976  0.5010  0.1807  0.2958
  149SAPE   C3616520   5.297   3.990   9.856  0.0043 -0.5444  0.1070
  149SAPE   H6X16521   5.364   4.064   9.805 -1.0495 -0.3366 -1.0300
  149SAPE   H6Y16522   5.200   4.040   9.873 -0.4854 -0.9085 -1.4133
  149SAPE   C3716523   5.286   3.866   9.767  0.1962 -0.4779 -0.1916
  149SAPE   H7X16524   5.218   3.792   9.813  0.3040  0.4081  1.4636
  149SAPE   H7Y16525   5.387   3.820   9.762  1.5059  1.8927  1.9647
  149SAPE   C3816526   5.242   3.917   9.630  0.7468  0.8251 -0.3169
  149SAPE   H8X16527   5.329   3.963   9.578  0.8640  0.1797 -0.6956
  149SAPE   H8Y16528   5.162   3.993   9.642  0.2145 -0.0978  2.7819
  149SAPE   C3916529   5.193   3.806   9.538  0.6961 -0.0802 -0.2377
  149SAPE   H9X16530   5.104   3.764   9.589  1.2395  0.4787  1.1960
  149SAPE   H9Y16531   5.273   3.729   9.533  1.0406  0.3183 -1.2244
  149SAPE  C31016532   5.149   3.856   9.401  0.6753  0.4066  0.6827
  149SAPE  H10X16533   5.236   3.915   9.364 -0.4514  1.6300 -0.1083
  149SAPE  H10Y16534   5.067   3.930   9.406 -1.6385 -1.9403 -0.4778
  149SAPE  C31116535   5.096   3.758   9.298  0.8212 -0.0073 -0.0969
  149SAPE  H11X16536   5.016   3.686   9.327 -2.4269  2.4182 -2.3584
  149SAPE  H11Y16537   5.180   3.699   9.256  1.1279 -0.8380  1.5841
  149SAPE  C31216538   5.020   3.831   9.185  0.1963  0.3720  0.3793
  149SAPE  H12X16539   4.918   3.862   9.218  0.9145  0.4416  2.6326
  149SAPE  H12Y16540   4.999   3.753   9.109 -2.0290  2.9775 -1.9664
  149SAPE  C31316541   5.102   3.937   9.119 -0.0778  0.1071  0.1299
  149SAPE  H13X16542   5.208   3.906   9.120 -0.3476 -0.8527 -0.0578
  149SAPE  H13Y16543   5.091   4.032   9.175 -1.1019  1.0753 -1.6255
  149SAPE  C31416544   5.044   3.966   8.978 -1.3847  0.2656 -0.0653
  149SAPE  H14X16545   5.083   4.064   8.942 -2.2415  0.5715 -0.1754
  149SAPE  H14Y16546   4.934   3.980   8.973 -1.4454 -0.3969 -0.7925
  149SAPE  C31516547   5.075   3.857   8.874 -0.1605 -0.0749 -0.1378
  149SAPE  H15X16548   5.001   3.775   8.884 -2.2889  1.3829 -2.6544
  149SAPE  H15Y16549   5.177   3.819   8.893  1.2383  3.1295 -0.6251
  149SAPE  C31616550   5.065   3.913   8.731 -0.4703 -0.6256 -0.1159
  149SAPE  H16X16551   5.081   3.828   8.662  0.2882 -0.6646  0.1013
  149SAPE  H16Y16552   5.150   3.979   8.704  0.3084 -1.0790  1.1321
  149SAPE  C31716553   4.937   3.987   8.709  0.4109  0.7533 -0.7070
  149SAPE  H17X16554   4.955   4.090   8.745 -1.0954  0.3397  1.3898
  149SAPE  H17Y16555   4.860   3.931   8.767  1.5486  0.9730  1.0841
  149SAPE  C31816556   4.908   3.994   8.557  0.2757  0.0025 -0.7802
  149SAPE  H18X16557   4.801   4.018   8.539  0.1314  0.4460  0.5236
  149SAPE  H18Y16558   4.934   3.897   8.510  2.0201 -0.4105  0.8934
  149SAPE  H18Z16559   4.969   4.078   8.518 -0.2002  0.7602  0.0406
  150SAPE     N16560   5.421   3.092  10.852  0.5449 -0.1876  0.0412
  150SAPE   HN116561   5.368   3.006  10.875  1.8085 -1.2911 -0.9983
  150SAPE   HN216562   5.357   3.171  10.873  0.4669  0.9788 -3.8483
  150SAPE   HN316563   5.449   3.082  10.752 -1.4692 -1.2413 -0.4716
  150SAPE   C1216564   5.546   3.093  10.933 -0.8154  0.2719 -0.6434
  150SAPE  H12A16565   5.518   3.049  11.032 -0.7534 -1.2406 -1.2625
  150SAPE  H12B16566   5.578   3.199  10.934 -1.4405  0.4819  1.0067
  150SAPE   C1116567   5.655   2.997  10.883  0.3454 -0.2370  1.0256
  150SAPE  H11A16568   5.737   3.005  10.958  0.2467 -0.3492  1.1460
  150SAPE  H11B16569   5.681   3.030  10.780 -1.0157 -1.1640  0.3541
  150SAPE     P16570   5.708   2.752  10.827  0.1753 -0.6757  0.2493
  150SAPE   O1316571   5.847   2.805  10.833  0.5906 -0.0136  0.3252
  150SAPE   O1416572   5.681   2.642  10.919  0.4280  0.2428  0.0613
  150SAPE   O1216573   5.610   2.861  10.875 -0.4602 -0.8785  0.3686
  150SAPE   O1116574   5.663   2.712  10.683 -0.1675  0.0887 -0.1965
  150SAPE    C116575   5.563   2.775  10.605 -0.7143 -0.4561 -0.7556
  150SAPE    HA16576   5.464   2.744  10.646  0.2169 -0.2005  1.8826
  150SAPE    HB16577   5.577   2.883  10.622  2.5226 -0.9909  0.8759
  150SAPE    C216578   5.585   2.748  10.455  0.1944  0.5305 -0.3060
  150SAPE    HS16579   5.497   2.798  10.410  0.1993  2.5492  1.6836
  150SAPE   O2116580   5.598   2.604  10.437 -0.6882 -0.0505 -0.2883
  150SAPE   C2116581   5.518   2.552  10.356 -0.6110  0.1694 -0.0581
  150SAPE   O2216582   5.426   2.604  10.300  0.2991 -0.2237 -0.0078
  150SAPE   C2216583   5.550   2.399  10.333  0.5394 -0.0375  0.5443
  150SAPE   H2R16584   5.652   2.376  10.371 -0.4800 -1.5133  2.6145
  150SAPE   H2S16585   5.464   2.341  10.374  0.5821 -2.3270 -2.2574
  150SAPE    C316586   5.715   2.814  10.412 -0.1089  0.8490 -0.6445
  150SAPE    HX16587   5.792   2.786  10.488 -1.0090  3.7549  1.5109
  150SAPE    HY16588   5.708   2.923  10.429  2.3330  1.0978 -0.7745
  150SAPE   O3116589   5.754   2.795  10.275 -0.1030  0.2684  0.0979
  150SAPE   C3116590   5.870   2.744  10.251  0.4584  0.4779 -0.0678
  150SAPE   O3216591   5.942   2.694  10.335 -0.1441  0.6736 -0.4810
  150SAPE   C3216592   5.885   2.738  10.097 -0.7965  0.3913 -0.1313
  150SAPE   H2X16593   5.834   2.827  10.054 -2.6814 -0.0941  0.9875
  150SAPE   H2Y16594   5.824   2.652  10.061 -1.7338  0.8478  0.3227
  150SAPE   C2316595   5.547   2.367  10.183  0.6282  0.1229 -0.0202
  150SAPE   H3R16596   5.475   2.433  10.130  2.3656  1.6133 -0.6288
  150SAPE   H3S16597   5.516   2.262  10.164  2.8011 -0.3421 -1.4126
  150SAPE   C2416598   5.682   2.376  10.121 -0.7213 -0.7465  0.9031
  150SAPE   H4R16599   5.736   2.279  10.130  1.3229  0.3226  0.6329
  150SAPE   H4S16600   5.748   2.449  10.171 -0.5829 -0.6434  0.5776
  150SAPE   C2516601   5.674   2.411   9.974 -0.3693  0.2331 -0.1314
  150SAPE   H5R16602   5.595   2.479   9.938 -1.5868 -1.5989 -1.0939
  150SAPE   C2616603   5.755   2.354   9.876  1.2556 -0.2292 -0.5660
  150SAPE   H6R16604   5.711   2.341   9.776 -1.1283  0.5031  0.3419
  150SAPE   C2716605   5.882   2.273   9.886  0.6237  0.0415 -0.9166
  150SAPE   H7R16606   5.877   2.198   9.968  1.9905  2.1627  1.2477
  150SAPE   H7S16607   5.970   2.330   9.924  0.8332 -0.4289 -0.6902
  150SAPE   C2816608   5.910   2.211   9.752 -0.0086 -0.1906 -0.5886
  150SAPE   H8R16609   5.865   2.111   9.740 -1.0219  0.3431 -1.3522
  150SAPE   C2916610   5.974   2.271   9.646 -0.2015 -0.1356 -0.0810
  150SAPE   H9R16611   5.970   2.217   9.550 -1.8119 -0.0795 -0.0788
  150SAPE  C21016612   6.037   2.407   9.649  0.0175 -0.1956 -0.1995
  150SAPE  H10R16613   6.002   2.465   9.737  2.7431 -2.6526  2.7462
  150SAPE  H10S16614   5.998   2.479   9.574  0.1473  2.7292  2.3499
  150SAPE  C21116615   6.186   2.418   9.641  0.2627  0.4998 -0.1679
  150SAPE  H11R16616   6.240   2.384   9.731 -0.7290 -0.9103 -0.0858
  150SAPE  C21216617   6.255   2.478   9.539 -0.0222 -0.2865 -0.3678
  150SAPE  H12R16618   6.365   2.474   9.538 -0.0417 -1.9544 -0.1091
  150SAPE  C21316619   6.195   2.541   9.413  0.1274  0.4010  0.9277
  150SAPE  H13R16620   6.089   2.509   9.402  1.1968 -3.5410  0.4404
  150SAPE  H13S16621   6.238   2.494   9.322  1.2538  1.2026  1.0368
  150SAPE  C21416622   6.214   2.689   9.407 -0.0494 -0.4097 -0.0689
  150SAPE  H14R16623   6.304   2.729   9.456 -0.7676  0.4821  0.5620
  150SAPE  C21516624   6.136   2.780   9.343 -0.6777 -0.5792  0.2528
  150SAPE  H15R16625   6.156   2.885   9.370  2.1616 -1.4779  2.1977
  150SAPE  C21616626   6.010   2.754   9.261  0.0278  0.2711 -0.2780
  150SAPE  H16R16627   6.013   2.644   9.244 -1.0595  0.3932 -1.3812
  150SAPE  H16S16628   6.028   2.805   9.164 -0.8576  3.4716  1.1288
  150SAPE  C21716629   5.882   2.792   9.336  0.0548  0.3080  0.0657
  150SAPE  H17R16630   5.798   2.755   9.274  0.0733 -0.4910  0.4972
  150SAPE  H17S16631   5.874   2.900   9.357 -4.4929 -0.4433  4.3506
  150SAPE  C21816632   5.875   2.718   9.469  0.7435 -0.0626  0.3787
  150SAPE  H18R16633   5.948   2.753   9.545 -1.7539  0.9084  2.4667
  150SAPE  H18S16634   5.888   2.611   9.444  0.0883  0.7596 -4.5446
  150SAPE  C21916635   5.741   2.751   9.544 -0.0868  0.2377 -0.0994
  150SAPE  H19R16636   5.660   2.731   9.472  0.2828 -1.1297 -0.1657
  150SAPE  H19S16637   5.748   2.858   9.572  1.1324  0.0194  0.5464
  150SAPE  C22016638   5.704   2.657   9.664 -0.1667  0.6977  0.1810
  150SAPE  H20R16639   5.798   2.643   9.722 -0.4105  2.7912  1.1821
  150SAPE  H20S16640   5.667   2.561   9.621  0.9325  0.5635 -0.5079
  150SAPE  H20T16641   5.621   2.710   9.717 -0.7121  0.8301 -0.7850
  150SAPE   C3316642   6.034   2.709  10.046 -0.9374  0.5700  0.0397
  150SAPE   H3X16643   6.072   2.611  10.083 -2.5087 -0.5168 -1.0952
  150SAPE   H3Y16644   6.106   2.785  10.083 -0.8285 -0.6399  2.4998
  150SAPE   C3416645   6.039   2.693   9.893 -0.2334 -0.5117 -0.1363
  150SAPE   H4X16646   5.979   2.768   9.836  1.0949  2.0273  1.5872
  150SAPE   H4Y16647   5.988   2.595   9.886  1.2705 -1.6257  3.0419
  150SAPE   C3516648   6.178   2.703   9.835 -0.2977  0.3057 -0.1659
  150SAPE   H5X16649   6.173   2.691   9.724  2.0465  0.5575 -0.3585
  150SAPE   H5Y16650   6.242   2.635   9.895  0.2638  2.5695  1.9698
  150SAPE   C3616651   6.244   2.838   9.862  0.2688 -0.1582 -0.6650
  150SAPE   H6X16652   6.321   2.827   9.941 -0.3198  0.5737  0.0359
  150SAPE   H6Y16653   6.179   2.908   9.920 -1.0616  0.1519 -2.4370
  150SAPE   C3716654   6.305   2.912   9.738  0.6875 -0.8811 -0.3189
  150SAPE   H7X16655   6.370   2.848   9.674  1.3415  1.8131 -2.5572
  150SAPE   H7Y16656   6.378   2.984   9.781 -0.9240  1.3377 -1.1085
  150SAPE   C3816657   6.197   2.977   9.662  0.3893 -0.5748  0.4732
  150SAPE   H8X16658   6.128   3.031   9.729 -0.7870 -1.0709 -0.2982
  150SAPE   H8Y16659   6.132   2.896   9.623 -0.0705 -0.2270  0.5078
  150SAPE   C3916660   6.248   3.076   9.557 -0.0788  0.2470 -0.0063
  150SAPE   H9X16661   6.296   3.033   9.466 -1.4264  0.0348 -0.6429
  150SAPE   H9Y16662   6.316   3.146   9.611 -1.4196  1.1851  0.5316
  150SAPE  C31016663   6.134   3.156   9.494  0.3516 -0.3058  0.3779
  150SAPE  H10X16664   6.071   3.206   9.570 -1.2174 -2.2448  0.4445
  150SAPE  H10Y16665   6.066   3.082   9.446  2.1684 -2.2933  0.7053
  150SAPE  C31116666   6.184   3.264   9.402 -1.2669 -0.2319  0.1322
  150SAPE  H11X16667   6.254   3.314   9.472 -1.9622  0.9138  0.0406
  150SAPE  H11Y16668   6.097   3.329   9.378  0.4375  1.9703 -0.4291
  150SAPE  C31216669   6.235   3.207   9.268 -0.5274 -0.1083 -0.0594
  150SAPE  H12X16670   6.327   3.145   9.273 -1.0105 -0.9183 -0.8279
  150SAPE  H12Y16671   6.247   3.303   9.214  1.7161 -1.6342 -2.5057
  150SAPE  C31316672   6.120   3.127   9.190 -0.1556 -0.2694 -0.2469
  150SAPE  H13X16673   6.032   3.191   9.169  0.1068  0.0082 -0.5181
  150SAPE  H13Y16674   6.081   3.036   9.240  1.5383 -0.7458  0.2880
  150SAPE  C31416675   6.189   3.080   9.055 -0.2797  0.4948 -0.0445
  150SAPE  H14X16676   6.246   2.986   9.070 -1.8021 -0.6360 -1.0821
  150SAPE  H14Y16677   6.255   3.162   9.019 -1.8047  0.9729 -1.9248
  150SAPE  C31516678   6.084   3.062   8.939  0.0723  0.3491  0.4699
  150SAPE  H15X16679   6.039   3.163   8.931 -0.7455 -0.1692 -2.9493
  150SAPE  H15Y16680   6.018   2.981   8.976  1.6459 -1.6381 -0.8253
  150SAPE  C31616681   6.138   3.025   8.807 -0.3895  0.0639 -0.2248
  150SAPE  H16X16682   6.194   2.929   8.812 -1.4757 -0.5807 -0.2560
  150SAPE  H16Y16683   6.207   3.100   8.763  1.5025 -1.9852 -0.9343
  150SAPE  C31716684   6.036   3.019   8.695  0.7574 -0.1617 -0.8624
  150SAPE  H17X16685   5.950   2.973   8.748  1.6390  2.1430  2.9437
  150SAPE  H17Y16686   6.080   2.957   8.614  3.4394 -0.4171  0.6898
  150SAPE  C31816687   5.989   3.159   8.650  0.4101 -0.3110  0.2266
  150SAPE  H18X16688   5.929   3.160   8.556 -0.8955 -1.3794  1.0187
  150SAPE  H18Y16689   6.082   3.215   8.627  0.0626  0.2578  0.1946
  150SAPE  H18Z16690   5.943   3.216   8.733  0.6248  0.2053 -0.0077
  151SAPE     N16691   3.273   6.663  10.641  0.2685 -0.2295  0.2670
  151SAPE   HN116692   3.374   6.672  10.664 -0.1430  1.0359  1.6669
  151SAPE   HN216693   3.233   6.737  10.701 -0.3266 -0.5667  0.2912
  151SAPE   HN316694   3.239   6.567  10.661  1.0649  0.3483  5.9875
  151SAPE   C1216695   3.271   6.697  10.492  0.7063 -0.5637 -0.6136
  151SAPE  H12A16696   3.375   6.726  10.468  0.5739 -0.1443 -0.6810
  151SAPE  H12B16697   3.209   6.788  10.481  1.0767  0.1309  2.3090
  151SAPE   C1116698   3.214   6.575  10.409  0.2422 -0.7354  0.6057
  151SAPE  H11A16699   3.196   6.591  10.301 -2.2828 -1.8910  0.7798
  151SAPE  H11B16700   3.113   6.564  10.454  0.2487  1.7908  1.3691
  151SAPE     P16701   3.413   6.413  10.360  0.1030  0.5697 -0.0152
  151SAPE   O1316702   3.503   6.533  10.350 -0.6992  0.2642  0.0600
  151SAPE   O1416703   3.462   6.288  10.427  0.7304 -0.3770 -0.7097
  151SAPE   O1216704   3.281   6.452  10.435 -0.0342 -0.4981 -0.6840
  151SAPE   O1116705   3.353   6.385  10.218 -0.8219  0.2169 -0.1312
  151SAPE    C116706   3.403   6.303  10.120 -0.6366  0.2683 -0.2320
  151SAPE    HA16707   3.410   6.202  10.166  0.4176  1.6144  2.7805
  151SAPE    HB16708   3.337   6.296  10.031  1.6073 -0.4102 -1.9241
  151SAPE    C216709   3.545   6.344  10.061 -0.3439 -0.3274  0.1692
  151SAPE    HS16710   3.616   6.361  10.145 -2.4522  1.1461  1.7674
  151SAPE   O2116711   3.522   6.466   9.981 -1.0272 -0.8918  0.2322
  151SAPE   C2116712   3.635   6.533   9.949 -0.2714 -0.0249 -0.1546
  151SAPE   O2216713   3.749   6.502   9.973 -0.5178  0.1388  0.3681
  151SAPE   C2216714   3.605   6.641   9.857  0.1823  0.6425 -0.1697
  151SAPE   H2R16715   3.510   6.620   9.804 -0.6101 -0.3934  1.5781
  151SAPE   H2S16716   3.558   6.716   9.924  0.1437  0.3719  0.1072
  151SAPE    C316717   3.593   6.229   9.969 -0.6121 -0.3020 -1.1398
  151SAPE    HX16718   3.617   6.141  10.031  1.0654  0.9519  0.0881
  151SAPE    HY16719   3.690   6.262   9.925 -1.2620  1.9172 -1.0248
  151SAPE   O3116720   3.496   6.196   9.871  0.7645  0.6617  0.2156
  151SAPE   C3116721   3.499   6.257   9.756 -0.1550 -0.2669  0.0046
  151SAPE   O3216722   3.591   6.326   9.708 -0.3127  0.7146  0.2973
  151SAPE   C3216723   3.369   6.237   9.686 -0.3122 -0.4161 -0.0844
  151SAPE   H2X16724   3.282   6.261   9.751  0.4658  2.9566 -0.1085
  151SAPE   H2Y16725   3.369   6.134   9.646  0.7162  0.2252 -1.8617
  151SAPE   C2316726   3.723   6.702   9.770  0.0377  0.2153 -0.5960
  151SAPE   H3R16727   3.815   6.717   9.830  0.6947  0.3832 -1.6256
  151SAPE   H3S16728   3.706   6.805   9.731  1.9800  0.4787 -0.8038
  151SAPE   C2416729   3.759   6.615   9.650  0.1577  0.4817  0.6243
  151SAPE   H4R16730   3.774   6.512   9.689 -0.0117  0.0761 -0.3558
  151SAPE   H4S16731   3.861   6.644   9.614  0.6567  0.7538  2.1834
  151SAPE   C2516732   3.657   6.615   9.540  1.4462 -0.0333 -0.1135
  151SAPE   H5R16733   3.565   6.567   9.578  2.0890  0.0654  1.6458
  151SAPE   C2616734   3.661   6.681   9.422  1.4524  0.2520  0.3688
  151SAPE   H6R16735   3.574   6.684   9.354  1.9981  0.4023 -0.3269
  151SAPE   C2716736   3.782   6.762   9.377 -0.7158 -0.0923  0.4780
  151SAPE   H7R16737   3.834   6.807   9.464 -0.6020  1.2174 -0.2449
  151SAPE   H7S16738   3.767   6.851   9.312 -0.2688 -0.5714 -0.2850
  151SAPE   C2816739   3.888   6.686   9.295  0.1717 -0.0809 -0.0961
  151SAPE   H8R16740   3.958   6.629   9.359 -0.1772  0.1467  0.5012
  151SAPE   C2916741   3.878   6.668   9.156 -0.8376 -0.6515 -0.0568
  151SAPE   H9R16742   3.960   6.613   9.107 -3.1046 -3.5834 -0.7785
  151SAPE  C21016743   3.775   6.728   9.067 -0.6969  0.0609  0.2159
  151SAPE  H10R16744   3.704   6.788   9.129  1.0906  0.6559  1.7798
  151SAPE  H10S16745   3.716   6.641   9.031 -0.6022 -0.6349  1.6696
  151SAPE  C21116746   3.843   6.813   8.959  0.0396 -0.4533 -0.0778
  151SAPE  H11R16747   3.940   6.857   8.984  1.5349 -2.3850 -2.0698
  151SAPE  C21216748   3.795   6.824   8.835  0.3786  0.3541 -0.5555
  151SAPE  H12R16749   3.857   6.881   8.764  1.1934  1.5148  1.0214
  151SAPE  C21316750   3.661   6.769   8.777 -0.4872  0.0698 -0.1460
  151SAPE  H13R16751   3.584   6.784   8.855 -0.4001 -1.7493  0.3560
  151SAPE  H13S16752   3.685   6.660   8.775  1.8585  0.5339 -0.7431
  151SAPE  C21416753   3.620   6.813   8.637 -0.7561 -0.7537 -0.2219
  151SAPE  H14R16754   3.678   6.893   8.589  0.2424 -1.9351 -1.0262
  151SAPE  C21516755   3.525   6.747   8.568  0.0925 -0.1923  0.2252
  151SAPE  H15R16756   3.508   6.775   8.463 -1.9995  1.5059  0.9245
  151SAPE  C21616757   3.454   6.621   8.611 -0.7694 -0.4078  1.0553
  151SAPE  H16R16758   3.352   6.646   8.649 -0.2962 -0.4992  2.4480
  151SAPE  H16S16759   3.500   6.566   8.696 -0.2696 -0.8410  0.5088
  151SAPE  C21716760   3.448   6.520   8.492  0.1496 -0.9377  0.0944
  151SAPE  H17R16761   3.412   6.563   8.396  3.2689  0.5111 -0.5299
  151SAPE  H17S16762   3.383   6.433   8.516  1.5060 -1.6308  1.4511
  151SAPE  C21816763   3.582   6.451   8.474  0.5513  1.0358 -0.3653
  151SAPE  H18R16764   3.658   6.530   8.456  1.0967  0.5695 -0.1736
  151SAPE  H18S16765   3.585   6.390   8.381  3.1212 -0.4703  0.5773
  151SAPE  C21916766   3.629   6.347   8.576 -0.7417  0.3206 -0.0371
  151SAPE  H19R16767   3.614   6.404   8.671 -0.9872  2.0316 -1.0661
  151SAPE  H19S16768   3.735   6.322   8.556 -1.7189 -2.6299 -2.2478
  151SAPE  C22016769   3.554   6.209   8.586 -0.0895  0.1477 -0.2657
  151SAPE  H20R16770   3.458   6.232   8.637  1.0848  1.6156  1.3901
  151SAPE  H20S16771   3.602   6.141   8.659 -0.9351 -0.7467 -0.5163
  151SAPE  H20T16772   3.534   6.166   8.485  0.5769 -1.1158  0.1190
  151SAPE   C3316773   3.362   6.334   9.566 -0.3853  0.1852  0.8098
  151SAPE   H3X16774   3.392   6.437   9.596  0.0098  0.5162 -0.6269
  151SAPE   H3Y16775   3.263   6.349   9.518  0.3845 -2.0977 -1.7666
  151SAPE   C3416776   3.451   6.294   9.439  0.0628  0.6473 -0.1881
  151SAPE   H4X16777   3.414   6.196   9.405  0.3284 -0.4085  2.3322
  151SAPE   H4Y16778   3.559   6.293   9.466  0.1755 -1.8519 -0.5310
  151SAPE   C3516779   3.421   6.390   9.322  0.0578  1.0307  0.4923
  151SAPE   H5X16780   3.452   6.494   9.347 -2.1397  1.8767 -0.0715
  151SAPE   H5Y16781   3.311   6.391   9.311  0.1339 -0.8325 -1.0474
  151SAPE   C3616782   3.483   6.339   9.190  0.1944  0.0538 -0.0233
  151SAPE   H6X16783   3.435   6.241   9.169  2.8505 -1.4247  0.4527
  151SAPE   H6Y16784   3.590   6.318   9.211  0.4045  0.1736 -0.9186
  151SAPE   C3716785   3.486   6.434   9.071  0.0079  0.2233 -0.1820
  151SAPE   H7X16786   3.562   6.403   8.996 -1.1582 -0.1242 -1.2562
  151SAPE   H7Y16787   3.509   6.536   9.109 -0.2701 -0.3797  1.7521
  151SAPE   C3816788   3.348   6.458   9.001 -0.0410 -0.2867  0.5221
  151SAPE   H8X16789   3.338   6.548   8.937  1.3101  1.1423  2.2161
  151SAPE   H8Y16790   3.267   6.490   9.070  0.6009  1.6285  0.4570
  151SAPE   C3916791   3.305   6.336   8.917  0.0209 -0.2937  0.6020
  151SAPE   H9X16792   3.321   6.247   8.980  0.3717 -0.0253  0.8992
  151SAPE   H9Y16793   3.343   6.322   8.813 -1.3976 -0.4856  0.0941
  151SAPE  C31016794   3.163   6.361   8.877  0.9644 -0.4603 -0.3047
  151SAPE  H10X16795   3.142   6.442   8.804 -0.5222 -0.0510  0.5307
  151SAPE  H10Y16796   3.118   6.389   8.975  0.7524  0.9875 -0.7884
  151SAPE  C31116797   3.095   6.237   8.820 -0.7138  0.2223  0.2760
  151SAPE  H11X16798   3.111   6.159   8.897  1.7234  0.0359 -0.3459
  151SAPE  H11Y16799   3.153   6.212   8.729 -0.9495  1.1156 -0.1418
  151SAPE  C31216800   2.944   6.250   8.795  0.3811 -0.5369  0.0138
  151SAPE  H12X16801   2.926   6.329   8.719 -2.6611  0.2629  1.4023
  151SAPE  H12Y16802   2.888   6.271   8.889  0.5512 -0.4590  0.0972
  151SAPE  C31316803   2.879   6.117   8.736 -0.2873 -0.8204  0.3633
  151SAPE  H13X16804   2.930   6.041   8.799  0.6987  1.7346  2.8210
  151SAPE  H13Y16805   2.915   6.119   8.631 -1.0471  0.6168  0.1120
  151SAPE  C31416806   2.720   6.119   8.739  0.3866 -0.3436 -0.2055
  151SAPE  H14X16807   2.681   6.190   8.663  1.6515 -1.0561 -1.5724
  151SAPE  H14Y16808   2.696   6.156   8.841  2.2469  0.8633 -0.1450
  151SAPE  C31516809   2.671   5.979   8.723  0.1777  0.8735 -0.0912
  151SAPE  H15X16810   2.710   5.905   8.797 -1.9267 -0.6098 -0.3710
  151SAPE  H15Y16811   2.717   5.930   8.635  1.5728 -2.3251  2.2009
  151SAPE  C31616812   2.520   5.985   8.737  0.3428  0.5161  0.6323
  151SAPE  H16X16813   2.467   6.040   8.656  0.9526 -1.0030 -0.8744
  151SAPE  H16Y16814   2.502   6.023   8.839  0.0580 -1.4062  1.3300
  151SAPE  C31716815   2.446   5.849   8.722 -0.8582 -0.3149 -0.0428
  151SAPE  H17X16816   2.515   5.788   8.784 -0.8273  1.0969  1.3836
  151SAPE  H17Y16817   2.460   5.816   8.617  2.4953  2.9187 -0.8710
  151SAPE  C31816818   2.300   5.853   8.771 -0.1576  0.4201  0.4057
  151SAPE  H18X16819   2.239   5.773   8.722  0.2143 -0.9331  2.0605
  151SAPE  H18Y16820   2.255   5.951   8.745 -1.2540 -0.4731 -1.2140
  151SAPE  H18Z16821   2.298   5.840   8.881  0.9626  0.0199  0.3985
  152SAPE     N16822   4.467   6.001  10.801 -0.0845  0.1431  0.0941
  152SAPE   HN116823   4.376   6.051  10.795 -0.2943 -0.3542 -1.2722
  152SAPE   HN216824   4.463   5.939  10.884  0.3806 -0.0275 -0.0088
  152SAPE   HN316825   4.543   6.064  10.835 -0.9212 -0.0799  2.5625
  152SAPE   C1216826   4.502   5.964  10.657 -0.0118 -0.4825 -0.6980
  152SAPE  H12A16827   4.440   5.882  10.616 -0.5758 -1.4878  1.9700
  152SAPE  H12B16828   4.607   5.928  10.653  0.5051  0.9874 -0.9571
  152SAPE   C1116829   4.498   6.088  10.555 -0.0226 -0.3041 -0.3175
  152SAPE  H11A16830   4.515   6.046  10.454  0.2845 -2.2584  0.5011
  152SAPE  H11B16831   4.583   6.155  10.581 -1.7297  2.2852 -0.9998
  152SAPE     P16832   4.368   6.313  10.525 -0.2273 -0.0105 -0.0195
  152SAPE   O1316833   4.230   6.362  10.531 -0.2555  0.2164 -0.1024
  152SAPE   O1416834   4.469   6.393  10.601 -0.2735  0.5448 -0.4862
  152SAPE   O1216835   4.378   6.161  10.564  0.2190 -0.1281 -0.1141
  152SAPE   O1116836   4.413   6.319  10.376 -0.6533 -0.3851 -0.3318
  152SAPE    C116837   4.339   6.232  10.286 -0.3123  0.4112  0.4779
  152SAPE    HA16838   4.405   6.152  10.247 -1.2922  0.6322 -1.8686
  152SAPE    HB16839   4.258   6.169  10.328  0.3978  0.4050  1.8727
  152SAPE    C216840   4.290   6.308  10.161  0.1037  0.3899  0.0180
  152SAPE    HS16841   4.239   6.233  10.097 -0.8710  2.0580 -1.2491
  152SAPE   O2116842   4.397   6.373  10.092 -0.4914  0.0078  0.1360
  152SAPE   C2116843   4.389   6.374   9.957 -0.0336 -0.0284  0.0430
  152SAPE   O2216844   4.293   6.333   9.896  1.0713 -0.3843  0.4236
  152SAPE   C2216845   4.521   6.414   9.895 -0.3917 -0.2135  0.5178
  152SAPE   H2R16846   4.586   6.454   9.975 -1.0034 -2.7119  2.3743
  152SAPE   H2S16847   4.571   6.331   9.840  1.7499 -0.1372  2.2155
  152SAPE    C316848   4.174   6.413  10.195  0.0255  0.3719 -0.1752
  152SAPE    HX16849   4.212   6.489  10.266 -0.8024  0.7371 -0.1033
  152SAPE    HY16850   4.097   6.351  10.246  0.7608  0.4992  1.1202
  152SAPE   O3116851   4.119   6.463  10.070  0.2136  0.3843 -0.3707
  152SAPE   C3116852   4.157   6.587  10.035  0.6276 -0.6869  0.0389
  152SAPE   O3216853   4.225   6.666  10.101  0.2562  0.6660 -0.0485
  152SAPE   C3216854   4.115   6.609   9.894 -0.0890  0.4633 -0.0873
  152SAPE   H2X16855   4.006   6.589   9.886 -0.8453  3.5989  0.8855
  152SAPE   H2Y16856   4.178   6.537   9.838 -0.1036 -1.2085  1.9411
  152SAPE   C2316857   4.496   6.518   9.783  0.4853  0.8123 -0.1478
  152SAPE   H3R16858   4.596   6.559   9.759  1.9486 -2.5849 -0.5240
  152SAPE   H3S16859   4.439   6.602   9.827  0.4435  1.4458 -1.3626
  152SAPE   C2416860   4.442   6.456   9.657 -0.3188 -0.1860 -0.5199
  152SAPE   H4R16861   4.354   6.391   9.676 -1.1066  1.1022  0.4151
  152SAPE   H4S16862   4.524   6.401   9.607  0.4262 -1.7818  2.2518
  152SAPE   C2516863   4.407   6.575   9.568  0.6145 -0.7343 -0.0143
  152SAPE   H5R16864   4.316   6.630   9.593  2.4821  3.3750 -1.3829
  152SAPE   C2616865   4.488   6.629   9.471 -0.2478 -0.2002  0.3959
  152SAPE   H6R16866   4.452   6.726   9.434  0.9424  0.0557 -0.1512
  152SAPE   C2716867   4.630   6.581   9.433 -0.4791 -0.0034  0.6634
  152SAPE   H7R16868   4.629   6.471   9.418 -2.8862  0.0428  0.2249
  152SAPE   H7S16869   4.708   6.590   9.512  0.3163 -3.2645  0.4116
  152SAPE   C2816870   4.673   6.654   9.308  0.3065 -0.4771  0.3074
  152SAPE   H8R16871   4.688   6.757   9.342 -2.3215 -0.3391  1.2677
  152SAPE   C2916872   4.691   6.614   9.176 -0.0061 -0.3913 -0.1198
  152SAPE   H9R16873   4.726   6.688   9.102 -0.6323 -0.7558 -0.7910
  152SAPE  C21016874   4.652   6.479   9.123  0.0858  0.0465  0.5546
  152SAPE  H10R16875   4.564   6.435   9.175  0.3351  1.2728  2.1127
  152SAPE  H10S16876   4.732   6.415   9.165  1.1664  0.1844 -1.1975
  152SAPE  C21116877   4.650   6.479   8.972  0.1103 -0.0536  0.0140
  152SAPE  H11R16878   4.746   6.447   8.929  0.5410 -0.4504  1.2321
  152SAPE  C21216879   4.543   6.517   8.901 -0.4081  0.1609 -1.0907
  152SAPE  H12R16880   4.560   6.514   8.792  1.0788  2.4255 -0.9979
  152SAPE  C21316881   4.415   6.565   8.959  0.3650  0.0456 -0.0499
  152SAPE  H13R16882   4.429   6.591   9.066 -1.3723  0.4832  0.1018
  152SAPE  H13S16883   4.332   6.492   8.961  0.8791 -0.6019 -1.1264
  152SAPE  C21416884   4.368   6.686   8.881  0.5094  0.2774  0.5513
  152SAPE  H14R16885   4.402   6.781   8.925  0.5154  1.2784 -1.4587
  152SAPE  C21516886   4.287   6.684   8.774 -0.9868  0.0255  0.2518
  152SAPE  H15R16887   4.266   6.779   8.722  2.4661  0.8819  0.2205
  152SAPE  C21616888   4.229   6.565   8.702 -0.0512 -0.2622  0.3847
  152SAPE  H16R16889   4.120   6.552   8.721 -0.0540  1.2253  1.5925
  152SAPE  H16S16890   4.264   6.466   8.738 -0.3955  0.2341  2.1602
  152SAPE  C21716891   4.285   6.575   8.564 -0.5443 -0.0537  0.0603
  152SAPE  H17R16892   4.394   6.552   8.565 -0.6995 -0.8225  1.3676
  152SAPE  H17S16893   4.269   6.677   8.524  1.5687  0.1074 -0.5171
  152SAPE  C21816894   4.220   6.474   8.466  0.3533  0.3409 -0.7381
  152SAPE  H18R16895   4.197   6.380   8.520  0.1512  1.6069  1.4846
  152SAPE  H18S16896   4.296   6.452   8.388  1.5193 -1.1218  0.7682
  152SAPE  C21916897   4.094   6.534   8.404  0.7428 -0.0100  0.3452
  152SAPE  H19R16898   4.087   6.479   8.307  2.8536 -0.4046  0.3778
  152SAPE  H19S16899   4.111   6.643   8.391 -0.1840  0.5125  2.9744
  152SAPE  C22016900   3.962   6.516   8.481  0.3770 -0.1908 -0.1773
  152SAPE  H20R16901   3.973   6.558   8.583 -1.3699  0.4546 -0.2181
  152SAPE  H20S16902   3.949   6.406   8.481  1.5434 -0.3845 -2.4166
  152SAPE  H20T16903   3.879   6.573   8.434  2.0737  2.1281 -0.5116
  152SAPE   C3316904   4.140   6.761   9.845 -0.0605  0.4127 -0.5228
  152SAPE   H3X16905   4.248   6.785   9.845  0.3422 -1.2589  0.3053
  152SAPE   H3Y16906   4.083   6.829   9.912 -0.3865 -0.8102  0.4904
  152SAPE   C3416907   4.086   6.772   9.703  0.1380 -0.1694  0.8490
  152SAPE   H4X16908   3.982   6.810   9.687  0.4409  0.1491 -0.4588
  152SAPE   H4Y16909   4.082   6.670   9.660 -1.2231 -0.4052  1.4659
  152SAPE   C3516910   4.182   6.860   9.622  0.0522  0.3690  0.3191
  152SAPE   H5X16911   4.286   6.822   9.629  0.4454  0.8770 -1.9722
  152SAPE   H5Y16912   4.173   6.963   9.662 -1.6848  0.3457  0.0391
  152SAPE   C3616913   4.144   6.866   9.476  0.8613  0.5234 -0.0069
  152SAPE   H6X16914   4.062   6.941   9.462  1.5387  1.1118 -0.8955
  152SAPE   H6Y16915   4.122   6.763   9.442  0.4038  0.1753  1.2634
  152SAPE   C3716916   4.249   6.938   9.389 -0.3681  0.4575  1.0333
  152SAPE   H7X16917   4.348   6.912   9.431 -0.2065  0.3886  0.6135
  152SAPE   H7Y16918   4.236   7.047   9.406 -0.2396  0.7022 -0.3642
  152SAPE   C3816919   4.243   6.895   9.240 -0.3395 -0.6056  0.1121
  152SAPE   H8X16920   4.210   6.790   9.246 -1.5428 -0.4913 -2.7004
  152SAPE   H8Y16921   4.342   6.911   9.192 -1.3043  1.6856 -1.3109
  152SAPE   C3916922   4.144   6.981   9.156 -1.2097  0.8062 -0.5017
  152SAPE   H9X16923   4.165   7.084   9.191 -1.0351  0.1804  1.3517
  152SAPE   H9Y16924   4.036   6.954   9.164 -0.4893 -1.9052  1.5046
  152SAPE  C31016925   4.179   6.990   9.006 -0.1214  0.4016  0.1173
  152SAPE  H10X16926   4.182   6.884   8.971 -0.5284  0.0747  1.0382
  152SAPE  H10Y16927   4.283   7.030   9.000 -0.1390  1.6484  4.6351
  152SAPE  C31116928   4.073   7.080   8.933 -0.3302 -0.3204  0.2832
  152SAPE  H11X16929   4.092   7.182   8.973  1.2830  0.3900 -2.0905
  152SAPE  H11Y16930   3.973   7.056   8.974  0.5029  1.6054  3.8181
  152SAPE  C31216931   4.072   7.083   8.782 -0.5091 -0.1563 -0.1219
  152SAPE  H12X16932   4.053   6.982   8.740  1.2057 -0.7814  0.5080
  152SAPE  H12Y16933   4.174   7.114   8.751 -1.8359  2.9909 -1.8245
  152SAPE  C31316934   3.972   7.182   8.720  0.9297 -0.2529 -0.2763
  152SAPE  H13X16935   3.984   7.271   8.785  1.3247 -1.2847  1.1125
  152SAPE  H13Y16936   3.872   7.151   8.757  0.7048  1.8424  1.0384
  152SAPE  C31416937   3.975   7.201   8.570 -0.0370  0.5274  0.0123
  152SAPE  H14X16938   4.074   7.243   8.541 -0.4730  1.8713  0.3972
  152SAPE  H14Y16939   3.898   7.276   8.540 -1.2507 -0.4204  0.7087
  152SAPE  C31516940   3.945   7.074   8.491 -0.4800  0.0633 -0.0309
  152SAPE  H15X16941   3.852   7.025   8.526  0.1395  0.5666  2.5912
  152SAPE  H15Y16942   4.027   7.001   8.506  0.0929  0.4158 -1.2936
  152SAPE  C31616943   3.929   7.110   8.347  0.4476  0.3609  0.4628
  152SAPE  H16X16944   4.005   7.179   8.304  2.2681 -0.6252  1.9313
  152SAPE  H16Y16945   3.825   7.144   8.330  0.0806 -0.5941  0.7174
  152SAPE  C31716946   3.947   6.988   8.258  0.1183 -0.8868 -0.3928
  152SAPE  H17X16947   4.047   6.944   8.278  0.4091  0.0167  0.2046
  152SAPE  H17Y16948   3.949   7.014   8.149 -2.7026 -1.5583 -0.6591
  152SAPE  C31816949   3.852   6.869   8.287  0.3714  0.1660  0.5588
  152SAPE  H18X16950   3.889   6.818   8.378  0.8532  0.4648  0.5324
  152SAPE  H18Y16951   3.868   6.807   8.196  1.3122  0.0775  0.7750
  152SAPE  H18Z16952   3.745   6.898   8.296 -0.8239 -3.7267  0.6246
  153SAPE     N16953   5.779   6.790  10.919 -0.3738  0.3328 -0.6395
  153SAPE   HN116954   5.711   6.855  10.874  0.9135  1.3809 -1.1340
  153SAPE   HN216955   5.736   6.695  10.921  1.2453 -0.4378  1.4350
  153SAPE   HN316956   5.783   6.820  11.019  1.0402  0.8571 -0.8303
  153SAPE   C1216957   5.906   6.766  10.845 -0.9960  0.6298 -0.9681
  153SAPE  H12A16958   5.879   6.697  10.762 -2.1398 -1.5397  1.0962
  153SAPE  H12B16959   5.967   6.712  10.920 -2.0783  0.9552  0.1786
  153SAPE   C1116960   5.964   6.891  10.785 -0.0747  0.3427 -0.0579
  153SAPE  H11A16961   6.053   6.860  10.726  1.3388  3.3872  0.2981
  153SAPE  H11B16962   5.995   6.965  10.862  2.3040 -0.3060 -0.3070
  153SAPE     P16963   5.829   6.926  10.571 -0.1192 -0.0278 -0.1823
  153SAPE   O1316964   5.740   6.811  10.565 -0.1518  0.6365 -0.0521
  153SAPE   O1416965   5.780   7.055  10.515  0.0724  0.3130 -0.3341
  153SAPE   O1216966   5.865   6.966  10.717 -0.2206 -0.2393 -0.5747
  153SAPE   O1116967   5.972   6.885  10.510 -0.0410 -0.2018 -0.6986
  153SAPE    C116968   6.080   6.965  10.470  0.1231  0.2202 -0.0682
  153SAPE    HA16969   6.055   7.066  10.508  1.8800  0.3020  0.9550
  153SAPE    HB16970   6.172   6.931  10.522  0.3757 -1.7531 -1.6439
  153SAPE    C216971   6.113   6.959  10.321 -0.0214  0.4075  0.2606
  153SAPE    HS16972   6.171   7.049  10.293  0.1565  0.8182  1.8361
  153SAPE   O2116973   5.996   6.951  10.237  0.5264 -0.2157 -0.1228
  153SAPE   C2116974   5.949   7.059  10.170  0.1386  0.4665  0.5900
  153SAPE   O2216975   6.009   7.162  10.167  0.4252 -0.0698  0.2045
  153SAPE   C2216976   5.812   7.025  10.106  0.2636  0.4545 -0.0780
  153SAPE   H2R16977   5.755   6.964  10.179  2.3946 -0.0637  1.2494
  153SAPE   H2S16978   5.760   7.122  10.095 -0.3784  0.3113  1.4964
  153SAPE    C316979   6.197   6.828  10.297 -0.0265  0.5721 -0.1498
  153SAPE    HX16980   6.133   6.742  10.328  0.2939  1.1883  2.4883
  153SAPE    HY16981   6.285   6.818  10.365 -0.5912  1.1412  0.6874
  153SAPE   O3116982   6.240   6.820  10.162  0.2320 -0.4671  0.1966
  153SAPE   C3116983   6.158   6.761  10.077 -0.4793 -0.0037  0.5924
  153SAPE   O3216984   6.050   6.709  10.099 -0.3404  0.2997  0.1114
  153SAPE   C3216985   6.231   6.752   9.947 -0.4532 -0.6737 -1.1082
  153SAPE   H2X16986   6.302   6.668   9.957 -1.4740 -1.5213 -0.7085
  153SAPE   H2Y16987   6.274   6.852   9.925  0.8291 -1.1716 -0.9615
  153SAPE   C2316988   5.818   6.969   9.969  0.5074  0.1210 -0.2088
  153SAPE   H3R16989   5.716   6.939   9.938 -0.5263  2.5951  0.5064
  153SAPE   H3S16990   5.889   6.884   9.971  0.1605 -0.1664  0.2846
  153SAPE   C2416991   5.862   7.071   9.860  0.4280  0.0016 -0.2665
  153SAPE   H4R16992   5.966   7.103   9.880  1.0775 -2.3419  0.3886
  153SAPE   H4S16993   5.800   7.163   9.867 -2.1067 -1.6899  1.3974
  153SAPE   C2516994   5.865   7.022   9.714  0.2088  1.1114  0.2559
  153SAPE   H5R16995   5.909   6.922   9.703  0.6561  1.4455 -1.2387
  153SAPE   C2616996   5.824   7.090   9.604 -1.2246 -0.1154 -1.0401
  153SAPE   H6R16997   5.836   7.038   9.508  3.0819 -0.6636 -0.4206
  153SAPE   C2716998   5.798   7.237   9.594  0.6778  0.6017 -0.0414
  153SAPE   H7R16999   5.743   7.258   9.688 -1.5250 -0.8203 -0.9437
  153SAPE   H7S17000   5.729   7.252   9.508  1.0804  1.5501 -0.2145
  153SAPE   C2817001   5.921   7.317   9.577 -0.2284  0.3780 -0.5112
  153SAPE   H8R17002   6.004   7.274   9.634  0.9914  1.7966 -1.1721
  153SAPE   C2917003   5.943   7.420   9.493 -0.8909  0.1150  0.4982
  153SAPE   H9R17004   6.043   7.461   9.476 -0.9983 -0.3324 -1.3611
  153SAPE  C21017005   5.843   7.483   9.398  0.3977 -0.1065  0.0322
  153SAPE  H10R17006   5.743   7.435   9.398 -0.4051  1.3566 -2.6462
  153SAPE  H10S17007   5.873   7.466   9.292 -2.4166 -1.9002 -0.5745
  153SAPE  C21117008   5.824   7.632   9.400  0.0202 -0.0131 -0.7778
  153SAPE  H11R17009   5.767   7.663   9.489 -2.5108 -1.1736 -1.9087
  153SAPE  C21217010   5.863   7.727   9.316 -0.2676  0.2468  0.3540
  153SAPE  H12R17011   5.857   7.832   9.348  0.9559  1.1329 -2.1189
  153SAPE  C21317012   5.949   7.703   9.193  0.5809  0.1036 -0.1237
  153SAPE  H13R17013   5.997   7.603   9.203 -0.8765 -1.0896 -3.3687
  153SAPE  H13S17014   6.025   7.783   9.203 -0.9491  1.4325  1.4351
  153SAPE  C21417015   5.876   7.719   9.059 -0.4540  0.2424  0.3854
  153SAPE  H14R17016   5.808   7.805   9.061  0.1947  0.7448  1.0425
  153SAPE  C21517017   5.871   7.642   8.951 -0.6833  0.6938 -0.0564
  153SAPE  H15R17018   5.816   7.678   8.863 -2.7092 -0.6039  0.6360
  153SAPE  C21617019   5.950   7.519   8.920 -0.2588 -0.1245  0.0313
  153SAPE  H16R17020   6.013   7.496   9.009 -0.6007  0.0256  0.3118
  153SAPE  H16S17021   6.014   7.540   8.831  0.9693  0.7132  1.0746
  153SAPE  C21717022   5.853   7.406   8.912 -0.4296  0.4377  0.3894
  153SAPE  H17R17023   5.903   7.318   8.867 -2.7136 -0.9093  0.3379
  153SAPE  H17S17024   5.772   7.430   8.840 -0.8621  0.6204  0.9248
  153SAPE  C21817025   5.797   7.352   9.043  0.2161 -0.9849  0.6072
  153SAPE  H18R17026   5.745   7.432   9.098 -0.1476 -0.5863 -0.2893
  153SAPE  H18S17027   5.884   7.328   9.108  1.1122  0.8541  0.1740
  153SAPE  C21917028   5.715   7.226   9.022  0.2826 -0.5719 -0.3151
  153SAPE  H19R17029   5.770   7.152   8.960  1.0166  0.2373 -0.6453
  153SAPE  H19S17030   5.616   7.242   8.975  0.9446  0.6829 -1.3419
  153SAPE  C22017031   5.679   7.165   9.157  0.2761 -0.4171  0.7833
  153SAPE  H20R17032   5.612   7.231   9.216 -0.7983 -1.0505  0.2810
  153SAPE  H20S17033   5.772   7.146   9.215  1.7437  2.3635 -0.4495
  153SAPE  H20T17034   5.622   7.071   9.144 -1.6768  1.0508 -2.0851
  153SAPE   C3317035   6.144   6.717   9.823  0.4057 -0.1492  0.2237
  153SAPE   H3X17036   6.076   6.799   9.792  0.7988 -0.3093 -1.1267
  153SAPE   H3Y17037   6.082   6.626   9.840 -1.1157  0.6869 -0.6344
  153SAPE   C3417038   6.228   6.677   9.698 -0.4737  0.4166 -0.2372
  153SAPE   H4X17039   6.311   6.610   9.732 -0.8052 -0.3654 -0.9279
  153SAPE   H4Y17040   6.268   6.769   9.651 -0.5195  0.0097 -1.0990
  153SAPE   C3517041   6.145   6.610   9.588  0.3424  0.1770  0.4271
  153SAPE   H5X17042   6.072   6.538   9.630  0.6018 -0.2122  0.2073
  153SAPE   H5Y17043   6.212   6.552   9.520 -1.9215 -2.4367  0.2527
  153SAPE   C3617044   6.058   6.713   9.518  0.6282 -0.1702  0.3562
  153SAPE   H6X17045   6.114   6.795   9.468 -0.7722  1.1402  0.8467
  153SAPE   H6Y17046   5.998   6.772   9.590  1.1885  1.2396 -0.2938
  153SAPE   C3717047   5.964   6.648   9.414  0.7908  0.2247  0.0177
  153SAPE   H7X17048   5.879   6.718   9.404  1.8825  1.3596 -1.8677
  153SAPE   H7Y17049   5.908   6.562   9.456  0.4009 -0.8676 -2.5324
  153SAPE   C3817050   6.024   6.595   9.284  0.8394 -0.0876 -0.4925
  153SAPE   H8X17051   5.948   6.555   9.214  0.4565 -0.9985  0.4179
  153SAPE   H8Y17052   6.096   6.518   9.319 -0.2229  0.0601  2.2394
  153SAPE   C3917053   6.100   6.700   9.209 -0.6887 -0.0717  0.4336
  153SAPE   H9X17054   6.161   6.765   9.275 -0.0295  2.1491 -2.1684
  153SAPE   H9Y17055   6.030   6.770   9.158 -0.8350  0.0419  0.7888
  153SAPE  C31017056   6.197   6.640   9.098 -0.2475  0.1706 -0.7229
  153SAPE  H10X17057   6.279   6.580   9.143 -0.1410 -1.0699 -2.4647
  153SAPE  H10Y17058   6.245   6.720   9.038 -1.0657 -0.6138 -2.5101
  153SAPE  C31117059   6.123   6.548   8.998  0.5693  0.1738 -0.9846
  153SAPE  H11X17060   6.059   6.618   8.942  0.1982  0.1096 -0.6435
  153SAPE  H11Y17061   6.067   6.474   9.059  3.3449  0.4746  2.2708
  153SAPE  C31217062   6.212   6.481   8.901  0.2082 -0.3850  0.1451
  153SAPE  H12X17063   6.280   6.407   8.948  0.6728  0.7596  1.3348
  153SAPE  H12Y17064   6.279   6.557   8.855  0.5593  0.3066  1.7400
  153SAPE  C31317065   6.137   6.414   8.789 -0.5395 -0.2716  0.0292
  153SAPE  H13X17066   6.072   6.484   8.732 -0.1362 -0.7524 -1.0520
  153SAPE  H13Y17067   6.062   6.342   8.827 -2.9713  1.9167 -0.3289
  153SAPE  C31417068   6.239   6.341   8.697 -0.4930  0.7164  0.0193
  153SAPE  H14X17069   6.286   6.270   8.768 -2.0591 -0.5397 -0.1525
  153SAPE  H14Y17070   6.303   6.421   8.654 -0.0135 -0.1313 -0.8869
  153SAPE  C31517071   6.172   6.265   8.581  0.1115  0.2189 -0.5706
  153SAPE  H15X17072   6.238   6.182   8.548  1.6453  1.0951  0.1709
  153SAPE  H15Y17073   6.149   6.343   8.505 -0.1486  1.8175  1.0596
  153SAPE  C31617074   6.046   6.192   8.620  0.2546 -0.1317  0.1017
  153SAPE  H16X17075   5.963   6.256   8.658  0.0177 -0.3672 -0.0175
  153SAPE  H16Y17076   6.067   6.111   8.693 -2.1287 -1.3112 -0.4321
  153SAPE  C31717077   5.979   6.116   8.501  0.4568  0.2978 -0.6128
  153SAPE  H17X17078   5.919   6.190   8.445  0.9591 -0.0686 -1.6492
  153SAPE  H17Y17079   5.905   6.046   8.546 -1.5192  1.7192 -1.5724
  153SAPE  C31817080   6.070   6.034   8.413 -0.6703 -0.0313  0.0132
  153SAPE  H18X17081   6.014   5.948   8.371 -2.2821 -0.2839  2.4442
  153SAPE  H18Y17082   6.149   5.980   8.469 -1.6109 -1.2112  0.2391
  153SAPE  H18Z17083   6.112   6.094   8.330 -0.3811 -0.9699 -0.5360
  154SAPE     N17084   5.674   0.484  10.602 -0.0889  0.2372 -0.3204
  154SAPE   HN117085   5.719   0.406  10.550 -0.7923 -0.2413 -0.2358
  154SAPE   HN217086   5.585   0.503  10.552 -0.5921 -0.2680  0.3649
  154SAPE   HN317087   5.739   0.565  10.597  0.0504  0.2145  1.0104
  154SAPE   C1217088   5.639   0.463  10.751 -0.5759 -0.0984  0.6776
  154SAPE  H12A17089   5.735   0.454  10.806  0.0012 -0.9127 -0.3997
  154SAPE  H12B17090   5.598   0.359  10.753  2.9389 -1.8483 -2.5208
  154SAPE   C1117091   5.546   0.568  10.820  0.0011 -0.1687 -0.3054
  154SAPE  H11A17092   5.583   0.672  10.809 -1.5879  0.5643  0.8447
  154SAPE  H11B17093   5.543   0.532  10.925  1.0068 -0.0831 -0.2415
  154SAPE     P17094   5.317   0.679  10.786 -0.0685 -0.2075  0.3128
  154SAPE   O1317095   5.279   0.672  10.927 -0.2871 -0.6636  0.2619
  154SAPE   O1417096   5.377   0.795  10.733 -0.2096 -0.7446  0.1728
  154SAPE   O1217097   5.415   0.558  10.751 -0.7723  0.1208 -0.0677
  154SAPE   O1117098   5.197   0.653  10.708  0.4263 -0.3347  0.1988
  154SAPE    C117099   5.167   0.534  10.630 -0.0008 -0.8511 -0.3132
  154SAPE    HA17100   5.168   0.446  10.698 -1.5540 -0.6649 -0.0198
  154SAPE    HB17101   5.064   0.553  10.593 -0.6342 -1.4142  1.0962
  154SAPE    C217102   5.261   0.523  10.508 -0.0990 -0.2334  0.2879
  154SAPE    HS17103   5.359   0.485  10.546  0.3991 -1.0725 -1.7107
  154SAPE   O2117104   5.270   0.661  10.463  0.0732  0.5750  0.6841
  154SAPE   C2117105   5.391   0.702  10.425  0.1389  0.4357 -0.3728
  154SAPE   O2217106   5.496   0.634  10.428  0.1380 -0.3984  0.1985
  154SAPE   C2217107   5.378   0.836  10.353 -0.3948 -0.0393 -0.5887
  154SAPE   H2R17108   5.310   0.907  10.405  1.5109  2.3913 -1.2339
  154SAPE   H2S17109   5.484   0.868  10.361  0.3975 -2.8050  1.6772
  154SAPE    C317110   5.222   0.419  10.404  0.0530 -0.1472 -0.2633
  154SAPE    HX17111   5.116   0.424  10.370 -0.5084 -3.3002  0.7119
  154SAPE    HY17112   5.210   0.317  10.446 -1.2386  0.1819  0.2361
  154SAPE   O3117113   5.291   0.430  10.282 -0.1029 -0.3304 -0.7638
  154SAPE   C3117114   5.411   0.364  10.281 -0.4137  0.2866 -0.1661
  154SAPE   O3217115   5.459   0.313  10.380  0.3905 -0.0750 -0.1146
  154SAPE   C3217116   5.466   0.369  10.139  0.1032  0.1463  0.1810
  154SAPE   H2X17117   5.525   0.277  10.120 -0.5080  0.0144 -1.1714
  154SAPE   H2Y17118   5.538   0.454  10.143  0.7911 -0.4123 -0.1075
  154SAPE   C2317119   5.344   0.815  10.192 -0.2570 -0.1386 -0.5671
  154SAPE   H3R17120   5.234   0.801  10.184 -0.1900 -0.7316 -0.5418
  154SAPE   H3S17121   5.381   0.714  10.162 -0.5812  0.2591 -2.3899
  154SAPE   C2417122   5.385   0.926  10.094 -0.1701  0.0868 -0.9418
  154SAPE   H4R17123   5.369   0.902   9.987  0.9316  0.1637 -1.1297
  154SAPE   H4S17124   5.490   0.957  10.112 -0.5783  0.8236  0.3066
  154SAPE   C2517125   5.306   1.048  10.131 -0.7956 -0.1560 -0.3743
  154SAPE   H5R17126   5.306   1.073  10.238  0.4655 -2.3354  0.2070
  154SAPE   C2617127   5.231   1.124  10.053 -0.0436 -0.0811 -1.2515
  154SAPE   H6R17128   5.177   1.205  10.104 -0.2157 -0.2890 -1.1011
  154SAPE   C2717129   5.207   1.116   9.906  0.4643  0.3182  1.1414
  154SAPE   H7R17130   5.296   1.095   9.842 -0.1944  0.0366  0.3000
  154SAPE   H7S17131   5.169   1.216   9.876 -2.8726 -1.2039 -0.2416
  154SAPE   C2817132   5.105   1.010   9.865 -0.2889 -0.2631 -0.0405
  154SAPE   H8R17133   5.078   0.943   9.948  1.7531  0.3920  1.2440
  154SAPE   C2917134   5.057   0.994   9.741 -0.7237 -0.3054  0.2931
  154SAPE   H9R17135   4.977   0.921   9.722 -0.9602  0.1349 -0.4522
  154SAPE  C21017136   5.089   1.074   9.619 -0.2368  0.1160  0.0939
  154SAPE  H10R17137   5.136   1.017   9.535  0.3970  0.7142  0.0425
  154SAPE  H10S17138   5.169   1.146   9.644 -2.0729  2.4591 -0.4455
  154SAPE  C21117139   4.965   1.148   9.571 -0.2638  0.0933  0.3836
  154SAPE  H11R17140   4.910   1.196   9.654 -0.3886 -2.1107  1.6483
  154SAPE  C21217141   4.917   1.163   9.441 -0.4938  0.7301 -0.6456
  154SAPE  H12R17142   4.838   1.239   9.428 -0.6218  0.5036 -1.2228
  154SAPE  C21317143   4.976   1.111   9.317  0.1224  0.7916 -0.0531
  154SAPE  H13R17144   4.887   1.058   9.277 -0.3252  0.2621  1.5718
  154SAPE  H13S17145   5.052   1.033   9.341 -2.9347 -2.2855  0.3891
  154SAPE  C21417146   5.035   1.208   9.220  0.4609  0.2006  0.0783
  154SAPE  H14R17147   5.023   1.314   9.245  2.5757  0.7775 -1.1514
  154SAPE  C21517148   5.089   1.177   9.099  0.6053 -0.3358  0.2321
  154SAPE  H15R17149   5.096   1.262   9.030 -3.4289 -1.0175 -1.3002
  154SAPE  C21617150   5.104   1.042   9.034  0.1724  0.4424  0.2642
  154SAPE  H16R17151   5.087   0.969   9.116  0.7027  1.6296  1.4554
  154SAPE  H16S17152   5.208   1.022   9.001 -0.7681 -2.2281 -1.4712
  154SAPE  C21717153   5.028   1.018   8.908  0.3862 -0.7853  0.0252
  154SAPE  H17R17154   4.933   1.075   8.896  0.5411 -0.8258 -1.6896
  154SAPE  H17S17155   5.014   0.908   8.919 -0.2078 -1.3373 -4.3919
  154SAPE  C21817156   5.105   1.040   8.773 -0.0429  0.1855  0.1679
  154SAPE  H18R17157   5.210   1.010   8.792 -0.2371 -0.1485  0.7320
  154SAPE  H18S17158   5.100   1.147   8.741  2.3195 -0.0621 -1.2534
  154SAPE  C21917159   5.055   0.960   8.655  0.3477  0.4845 -0.1139
  154SAPE  H19R17160   4.946   0.981   8.644  0.6639  2.2457 -0.0584
  154SAPE  H19S17161   5.066   0.850   8.671 -2.0713  0.0228 -1.0523
  154SAPE  C22017162   5.142   0.981   8.533  0.1434 -0.1770 -0.6703
  154SAPE  H20R17163   5.144   1.090   8.513 -0.5077  0.0169  0.2244
  154SAPE  H20S17164   5.108   0.925   8.443 -1.2833  0.2265 -0.4136
  154SAPE  H20T17165   5.243   0.941   8.554  0.8181  2.8554  3.1452
  154SAPE   C3317166   5.356   0.388  10.033  0.0725 -0.1497 -0.7570
  154SAPE   H3X17167   5.292   0.475  10.058 -0.2092  0.3659 -3.0670
  154SAPE   H3Y17168   5.298   0.293  10.037 -0.6651  0.3277  0.1888
  154SAPE   C3417169   5.411   0.415   9.893 -0.0615 -0.8559 -0.0839
  154SAPE   H4X17170   5.505   0.356   9.885  1.1742  1.0229 -0.2814
  154SAPE   H4Y17171   5.429   0.524   9.882 -1.2199 -0.6468 -0.0262
  154SAPE   C3517172   5.314   0.383   9.782  0.0746  0.8024 -0.4744
  154SAPE   H5X17173   5.241   0.466   9.781 -0.7439  0.1698  1.9143
  154SAPE   H5Y17174   5.272   0.282   9.800 -0.3014  1.2762  1.5013
  154SAPE   C3617175   5.382   0.361   9.641  0.3202  0.4025  0.4246
  154SAPE   H6X17176   5.443   0.269   9.638 -1.8367 -1.1587  1.4763
  154SAPE   H6Y17177   5.443   0.451   9.618 -0.0934  0.9269  1.3340
  154SAPE   C3717178   5.278   0.358   9.531 -0.0887  0.4057  1.3421
  154SAPE   H7X17179   5.342   0.367   9.441  0.9734 -1.4901  1.8640
  154SAPE   H7Y17180   5.207   0.443   9.543 -1.0862 -0.0762 -0.6621
  154SAPE   C3817181   5.200   0.228   9.516 -0.1666 -0.0363 -0.2553
  154SAPE   H8X17182   5.094   0.246   9.546 -0.4913  2.0240 -2.3019
  154SAPE   H8Y17183   5.240   0.152   9.587 -1.7809  0.0455  0.8063
  154SAPE   C3917184   5.185   0.176   9.373 -0.4350 -0.1705  0.2887
  154SAPE   H9X17185   5.116   0.089   9.374  0.8918 -1.3017 -1.0555
  154SAPE   H9Y17186   5.275   0.127   9.331 -0.3467 -1.6642  2.1090
  154SAPE  C31017187   5.142   0.285   9.272  0.1344  0.3693 -0.4013
  154SAPE  H10X17188   5.220   0.360   9.243 -0.2255  0.9060  0.0019
  154SAPE  H10Y17189   5.060   0.348   9.313 -0.9475 -2.1697  1.6595
  154SAPE  C31117190   5.091   0.231   9.131  0.2665 -0.3443 -1.1076
  154SAPE  H11X17191   5.029   0.310   9.084  1.7583  1.1686 -0.6192
  154SAPE  H11Y17192   5.032   0.140   9.157  0.1414 -0.2378 -1.0126
  154SAPE  C31217193   5.205   0.199   9.040  0.4235  0.5020 -0.1615
  154SAPE  H12X17194   5.247   0.107   9.085 -1.9134 -1.4178 -1.6813
  154SAPE  H12Y17195   5.278   0.283   9.035  0.6183  0.2997 -0.6578
  154SAPE  C31317196   5.163   0.172   8.900  0.3074  0.7401 -0.6804
  154SAPE  H13X17197   5.107   0.258   8.857  0.3687  0.5007 -1.2509
  154SAPE  H13Y17198   5.098   0.083   8.913 -0.9698  1.6348 -0.7227
  154SAPE  C31417199   5.279   0.137   8.799 -0.1002  0.0103 -0.7559
  154SAPE  H14X17200   5.362   0.100   8.862 -0.3586  0.2699 -0.2567
  154SAPE  H14Y17201   5.334   0.227   8.764 -1.1857  0.7720 -0.5760
  154SAPE  C31517202   5.222   0.029   8.702 -0.5386  0.3102  0.3932
  154SAPE  H15X17203   5.133   0.077   8.656 -0.1694 -2.2619 -3.4318
  154SAPE  H15Y17204   5.188  -0.056   8.764 -1.3168  0.8503  0.7341
  154SAPE  C31617205   5.326  -0.022   8.588  0.2885  0.7221 -0.7768
  154SAPE  H16X17206   5.266  -0.096   8.531 -0.1541  1.9842 -2.0271
  154SAPE  H16Y17207   5.415  -0.063   8.638 -0.4738  0.4832  0.4198
  154SAPE  C31717208   5.361   0.099   8.494 -0.3773  0.2649  0.1130
  154SAPE  H17X17209   5.416   0.172   8.559  1.3283 -0.3312 -0.5966
  154SAPE  H17Y17210   5.277   0.151   8.444 -0.1719 -0.6904 -1.2765
  154SAPE  C31817211   5.447   0.045   8.383 -0.4894 -0.1804  0.6729
  154SAPE  H18X17212   5.524  -0.021   8.428 -1.3001 -2.4246 -1.0449
  154SAPE  H18Y17213   5.507   0.127   8.338 -0.4246 -1.2203 -1.2296
  154SAPE  H18Z17214   5.387  -0.002   8.302  0.8530  0.6816 -0.8830
  155SAPE     N17215   0.083   0.833  10.932  0.1666  0.0348  0.2345
  155SAPE   HN117216  -0.015   0.814  10.960  0.5285 -4.1196 -0.6766
  155SAPE   HN217217   0.127   0.750  10.976  1.4019  0.5839  0.0816
  155SAPE   HN317218   0.110   0.926  10.971  0.8662  0.1052 -0.4110
  155SAPE   C1217219   0.087   0.812  10.779  0.0447  0.0186  0.3827
  155SAPE  H12A17220   0.056   0.709  10.750  0.6621  0.8398 -3.8663
  155SAPE  H12B17221   0.193   0.825  10.747  0.2632  0.1901  1.1447
  155SAPE   C1117222  -0.009   0.914  10.715 -0.3669 -0.3266 -0.0362
  155SAPE  H11A17223  -0.029   0.892  10.608  2.3530 -2.0657 -0.2623
  155SAPE  H11B17224   0.029   1.019  10.715 -2.2692  0.4778 -2.9268
  155SAPE     P17225  -0.238   0.804  10.749  0.2883  0.6275 -0.3151
  155SAPE   O1317226  -0.190   0.670  10.807  0.5671 -0.7610 -0.0975
  155SAPE   O1417227  -0.368   0.858  10.801 -0.1758 -0.0723  0.4818
  155SAPE   O1217228  -0.133   0.911  10.785 -0.1982 -0.1551  0.0153
  155SAPE   O1117229  -0.232   0.801  10.588  0.1072 -0.7611 -0.0160
  155SAPE    C117230  -0.248   0.666  10.534  0.7782 -0.0007 -0.3877
  155SAPE    HA17231  -0.307   0.594  10.594  1.0539 -0.4548 -0.6562
  155SAPE    HB17232  -0.301   0.673  10.437 -0.5917 -0.9335  0.2557
  155SAPE    C217233  -0.112   0.599  10.500 -0.5748 -0.3316  1.1921
  155SAPE    HS17234  -0.071   0.571  10.599 -2.5557 -0.9186  1.9007
  155SAPE   O2117235  -0.044   0.697  10.418 -0.3044  0.0404 -0.5387
  155SAPE   C2117236   0.089   0.692  10.419  0.6538  0.1170 -0.7551
  155SAPE   O2217237   0.155   0.629  10.499 -0.1737  0.3927  0.2520
  155SAPE   C2217238   0.129   0.783  10.303  0.5409  0.2264 -0.1893
  155SAPE   H2R17239   0.052   0.862  10.288 -0.6702 -0.5016  1.8771
  155SAPE   H2S17240   0.221   0.842  10.324 -0.1877  0.9286  1.1502
  155SAPE    C317241  -0.142   0.467  10.424  0.5467  0.3161 -0.3731
  155SAPE    HX17242  -0.205   0.389  10.472  2.5099 -1.8300 -1.0742
  155SAPE    HY17243  -0.043   0.416  10.417  0.5964  0.5543 -1.8654
  155SAPE   O3117244  -0.189   0.491  10.289  0.7217 -0.0151 -0.1496
  155SAPE   C3117245  -0.134   0.442  10.188  0.9649 -0.6495  0.0718
  155SAPE   O3217246  -0.023   0.395  10.175 -0.3743 -0.6228  0.2072
  155SAPE   C3217247  -0.243   0.442  10.074 -0.1737 -0.2575 -0.4860
  155SAPE   H2X17248  -0.186   0.403   9.987  2.0275  0.0379  0.7494
  155SAPE   H2Y17249  -0.279   0.544  10.046 -0.0419  0.7234  2.5659
  155SAPE   C2317250   0.165   0.710  10.171  0.4525 -0.5024 -0.0389
  155SAPE   H3R17251   0.153   0.784  10.089 -2.1202  1.1235  1.6565
  155SAPE   H3S17252   0.080   0.644  10.141 -0.0311 -0.9146  2.1181
  155SAPE   C2417253   0.302   0.638  10.171  0.6366  0.7011 -0.3141
  155SAPE   H4R17254   0.291   0.559  10.094  1.1880  3.0821 -3.0012
  155SAPE   H4S17255   0.312   0.586  10.269 -0.0122 -1.6202 -1.4072
  155SAPE   C2517256   0.425   0.721  10.154  0.8689  0.8266 -0.3920
  155SAPE   H5R17257   0.460   0.769  10.246 -0.1578  0.9584 -0.0632
  155SAPE   C2617258   0.503   0.727  10.045 -0.5815 -0.2350 -0.2029
  155SAPE   H6R17259   0.588   0.797  10.046  0.5723 -1.5836  0.2872
  155SAPE   C2717260   0.471   0.665   9.918  0.2191  0.2608  0.2757
  155SAPE   H7R17261   0.361   0.673   9.905 -0.3394 -0.0345  3.9473
  155SAPE   H7S17262   0.503   0.558   9.922 -0.9028 -0.0891  0.1186
  155SAPE   C2817263   0.545   0.716   9.803  0.2695 -0.4938  0.0176
  155SAPE   H8R17264   0.638   0.771   9.823  0.8793 -1.3004 -0.4947
  155SAPE   C2917265   0.508   0.704   9.675 -0.3352  0.1907 -0.5275
  155SAPE   H9R17266   0.580   0.747   9.605 -0.5458  1.3548 -0.0632
  155SAPE  C21017267   0.391   0.637   9.612 -0.1217 -0.0676  0.1355
  155SAPE  H10R17268   0.343   0.717   9.551 -0.7944  0.4929  1.3773
  155SAPE  H10S17269   0.306   0.618   9.681  0.0176  1.1765  0.6719
  155SAPE  C21117270   0.439   0.517   9.530 -0.2293 -0.2135 -0.8389
  155SAPE  H11R17271   0.441   0.422   9.585 -0.8477  1.5249  2.4798
  155SAPE  C21217272   0.463   0.513   9.398  0.4595  0.0512  0.2336
  155SAPE  H12R17273   0.474   0.409   9.361 -0.0776 -0.2918  1.0207
  155SAPE  C21317274   0.456   0.626   9.295 -0.0953 -0.5209  0.1715
  155SAPE  H13R17275   0.560   0.658   9.272 -0.2936  1.2421  1.5088
  155SAPE  H13S17276   0.411   0.717   9.340 -2.6065 -2.0894  1.0335
  155SAPE  C21417277   0.390   0.573   9.166  0.0352 -0.0587 -0.0935
  155SAPE  H14R17278   0.400   0.467   9.140 -0.2309  0.3265 -1.9137
  155SAPE  C21517279   0.337   0.657   9.075 -0.4639 -0.7790 -0.5273
  155SAPE  H15R17280   0.282   0.619   8.988 -1.2647  1.6464 -1.1429
  155SAPE  C21617281   0.325   0.807   9.086  0.3930 -0.1355 -1.4017
  155SAPE  H16R17282   0.366   0.845   9.182 -0.5280 -3.1536  0.3124
  155SAPE  H16S17283   0.216   0.831   9.088  0.2935 -0.6072 -0.4915
  155SAPE  C21717284   0.391   0.876   8.965 -0.3807 -0.0531  0.1745
  155SAPE  H17R17285   0.346   0.822   8.878 -0.5136 -2.0209  1.4021
  155SAPE  H17S17286   0.501   0.864   8.962 -0.4981 -1.3375  0.3961
  155SAPE  C21817287   0.357   1.026   8.960 -0.1057 -0.0607  0.4672
  155SAPE  H18R17288   0.389   1.079   9.052  1.6739  1.1091 -0.7469
  155SAPE  H18S17289   0.247   1.036   8.957 -0.2748 -1.6135  0.9950
  155SAPE  C21917290   0.418   1.087   8.830  0.5398 -0.1643 -0.5057
  155SAPE  H19R17291   0.373   1.189   8.834 -2.0396 -1.2381  0.3240
  155SAPE  H19S17292   0.382   1.029   8.743  1.1657 -1.7405  0.2515
  155SAPE  C22017293   0.569   1.100   8.817  0.0416 -1.2061 -0.5686
  155SAPE  H20R17294   0.619   1.002   8.809  3.8463  0.5063  0.1560
  155SAPE  H20S17295   0.612   1.154   8.904  0.0935 -2.3859  0.1506
  155SAPE  H20T17296   0.588   1.160   8.725  1.9908  1.8800  1.6439
  155SAPE   C3317297  -0.364   0.342  10.090  0.2794 -0.8168  0.0138
  155SAPE   H3X17298  -0.408   0.371  10.187 -0.8849 -2.2171 -0.0642
  155SAPE   H3Y17299  -0.320   0.241  10.107  1.2517 -0.3063  0.6150
  155SAPE   C3417300  -0.475   0.354   9.988  0.2837  0.3409 -0.4322
  155SAPE   H4X17301  -0.505   0.460   9.978  1.2791  1.0279  2.8337
  155SAPE   H4Y17302  -0.560   0.303  10.039  1.5049 -0.3141  1.0247
  155SAPE   C3517303  -0.428   0.300   9.853  0.2064  0.5638  0.2514
  155SAPE   H5X17304  -0.406   0.193   9.873  1.9842  0.5304 -1.5522
  155SAPE   H5Y17305  -0.330   0.341   9.821  0.1547 -0.6005 -1.5537
  155SAPE   C3617306  -0.525   0.332   9.730 -0.1565  0.5888 -0.7975
  155SAPE   H6X17307  -0.554   0.439   9.724  1.4603  1.1628  0.5996
  155SAPE   H6Y17308  -0.621   0.282   9.756 -0.3158  0.4802 -1.5819
  155SAPE   C3717309  -0.470   0.293   9.600  0.2433 -0.0773  0.2959
  155SAPE   H7X17310  -0.447   0.185   9.587  0.0688  0.1354 -2.4561
  155SAPE   H7Y17311  -0.381   0.354   9.573  1.0788 -0.6805  1.5825
  155SAPE   C3817312  -0.577   0.328   9.496  0.2703 -0.7133 -0.0533
  155SAPE   H8X17313  -0.597   0.437   9.489  0.6367 -0.6842 -0.8261
  155SAPE   H8Y17314  -0.674   0.274   9.505  1.1475 -2.4021 -0.2955
  155SAPE   C3917315  -0.532   0.300   9.351 -0.3253  0.1688 -0.7051
  155SAPE   H9X17316  -0.503   0.193   9.339  0.0919  0.1266  0.5117
  155SAPE   H9Y17317  -0.439   0.357   9.330 -0.1509  0.6069  1.0669
  155SAPE  C31017318  -0.637   0.330   9.246  0.5221 -0.1623  0.4983
  155SAPE  H10X17319  -0.683   0.430   9.257  0.2218  0.0689 -2.1630
  155SAPE  H10Y17320  -0.722   0.259   9.259  1.6267 -1.5147  0.6316
  155SAPE  C31117321  -0.594   0.304   9.101 -0.2342  0.4907 -0.2645
  155SAPE  H11X17322  -0.577   0.195   9.094 -0.1481  0.5713 -1.5661
  155SAPE  H11Y17323  -0.507   0.368   9.074  0.9679 -0.9369  0.1115
  155SAPE  C31217324  -0.699   0.325   8.996 -0.3723 -0.2361 -0.6443
  155SAPE  H12X17325  -0.728   0.431   8.983  0.2775  0.0920  0.4661
  155SAPE  H12Y17326  -0.788   0.264   9.023  0.2294  0.3287  3.1837
  155SAPE  C31317327  -0.634   0.293   8.859 -0.5216  0.1187 -0.3418
  155SAPE  H13X17328  -0.529   0.330   8.868  0.1605 -1.3490 -1.6702
  155SAPE  H13Y17329  -0.684   0.353   8.780  0.3624  0.5645 -0.5761
  155SAPE  C31417330  -0.622   0.145   8.825  0.2451 -0.2778 -0.2160
  155SAPE  H14X17331  -0.723   0.101   8.835  0.9029 -1.3837  2.5080
  155SAPE  H14Y17332  -0.551   0.089   8.891  0.0956 -0.3494 -0.1161
  155SAPE  C31517333  -0.567   0.110   8.687  0.2594 -0.0320 -0.4111
  155SAPE  H15X17334  -0.459   0.132   8.693  0.2300  0.1775 -0.6445
  155SAPE  H15Y17335  -0.624   0.172   8.614  0.8328 -0.8708 -1.6036
  155SAPE  C31617336  -0.575  -0.037   8.637 -0.3659  0.3127 -0.0085
  155SAPE  H16X17337  -0.678  -0.078   8.638 -0.1601 -0.2060  0.4046
  155SAPE  H16Y17338  -0.512  -0.090   8.711  0.5589 -1.3536 -1.8866
  155SAPE  C31717339  -0.505  -0.069   8.507 -0.3425 -0.2746  0.4763
  155SAPE  H17X17340  -0.517  -0.172   8.467 -1.3091 -0.2256  0.6083
  155SAPE  H17Y17341  -0.399  -0.050   8.533 -0.3061 -0.4668  0.4681
  155SAPE  C31817342  -0.529   0.031   8.392  0.0187  0.2284  0.4138
  155SAPE  H18X17343  -0.628   0.015   8.342  0.0443  1.3705 -0.0498
  155SAPE  H18Y17344  -0.450   0.013   8.316 -0.4413  1.4468 -0.3926
  155SAPE  H18Z17345  -0.525   0.137   8.427 -1.6848 -0.1957  2.0334
  156SAPE     N17346   3.061   1.315  10.631  0.3733  0.2456  0.2857
  156SAPE   HN117347   3.033   1.408  10.670 -0.9680  0.6154 -1.4413
  156SAPE   HN217348   2.981   1.250  10.637  0.2789 -0.0599 -2.6964
  156SAPE   HN317349   3.134   1.271  10.691  0.1542 -2.0504 -1.0476
  156SAPE   C1217350   3.109   1.313  10.489 -0.5782 -0.0250  0.1219
  156SAPE  H12A17351   3.036   1.370  10.427  1.3993  1.1761 -1.2318
  156SAPE  H12B17352   3.110   1.205  10.463 -0.4284  0.1259 -0.5331
  156SAPE   C1117353   3.243   1.378  10.472 -0.1093  0.5032 -0.0473
  156SAPE  H11A17354   3.232   1.484  10.503  1.0072  1.0250 -1.3363
  156SAPE  H11B17355   3.266   1.382  10.363 -1.6970 -0.5823 -0.4700
  156SAPE     P17356   3.473   1.368  10.576 -0.0705  0.4051 -0.4504
  156SAPE   O1317357   3.493   1.496  10.507  0.9104  0.4408  0.0008
  156SAPE   O1417358   3.502   1.374  10.723  0.5246 -0.5789  0.6487
  156SAPE   O1217359   3.332   1.296  10.546  0.1599 -0.6016  0.7929
  156SAPE   O1117360   3.570   1.258  10.521 -0.2790  0.6945  0.0773
  156SAPE    C117361   3.672   1.178  10.589  0.0074 -0.0477  0.4838
  156SAPE    HA17362   3.740   1.248  10.641  1.9951 -1.2697 -0.3801
  156SAPE    HB17363   3.623   1.121  10.671  3.1349 -2.0432  1.1280
  156SAPE    C217364   3.740   1.077  10.494 -0.5142  0.1487 -0.4564
  156SAPE    HS17365   3.826   1.025  10.543 -1.6741 -1.9601 -0.5318
  156SAPE   O2117366   3.795   1.151  10.382 -0.3711 -0.5290 -0.7169
  156SAPE   C2117367   3.886   1.235  10.422 -0.6456 -0.1345  1.2938
  156SAPE   O2217368   3.935   1.257  10.529 -0.4369  0.6980  0.1246
  156SAPE   C2217369   3.937   1.296  10.289  0.0767 -1.1309 -0.0297
  156SAPE   H2R17370   3.996   1.219  10.234  1.0257 -0.2394 -0.3193
  156SAPE   H2S17371   3.846   1.321  10.231  0.3493  0.8372  0.2984
  156SAPE    C317372   3.644   0.975  10.440 -0.2014  0.7362  0.3150
  156SAPE    HX17373   3.539   1.013  10.438 -1.1620 -1.7729 -0.6336
  156SAPE    HY17374   3.635   0.891  10.512 -1.2816 -0.1491 -0.8166
  156SAPE   O3117375   3.675   0.927  10.309 -0.2475  0.0140 -0.0173
  156SAPE   C3117376   3.794   0.858  10.287  0.6436 -0.3699  0.3162
  156SAPE   O3217377   3.865   0.825  10.380  0.3299 -0.2058 -0.3993
  156SAPE   C3217378   3.808   0.821  10.139 -0.1547 -0.0149 -0.0346
  156SAPE   H2X17379   3.771   0.913  10.089 -3.6486 -0.1956  1.8766
  156SAPE   H2Y17380   3.740   0.734  10.130 -1.0677  0.6302  0.4021
  156SAPE   C2317381   4.010   1.430  10.301 -0.0957  0.9401 -1.4522
  156SAPE   H3R17382   4.068   1.441  10.395  0.9479  0.0612 -1.9657
  156SAPE   H3S17383   3.933   1.507  10.321 -0.5789  0.3377 -0.9374
  156SAPE   C2417384   4.082   1.461  10.171 -0.3252 -0.1815 -0.1705
  156SAPE   H4R17385   4.125   1.563  10.180  0.9068 -0.4785 -2.0940
  156SAPE   H4S17386   4.008   1.467  10.088 -0.4046  0.0486 -0.0835
  156SAPE   C2517387   4.196   1.370  10.136  0.1222 -0.7423  0.2088
  156SAPE   H5R17388   4.259   1.339  10.221  1.7671 -1.3819 -1.2090
  156SAPE   C2617389   4.222   1.323  10.009 -0.2755  0.0097 -0.7843
  156SAPE   H6R17390   4.305   1.251  10.000  1.5048  1.6784  1.1023
  156SAPE   C2717391   4.161   1.355   9.877  0.7257 -0.5034 -0.4861
  156SAPE   H7R17392   4.051   1.345   9.883  0.5578  1.2010 -0.3894
  156SAPE   H7S17393   4.177   1.271   9.805 -0.9691 -1.3228  0.0349
  156SAPE   C2817394   4.203   1.496   9.832  0.2194  0.5687 -0.7953
  156SAPE   H8R17395   4.233   1.566   9.912 -0.7055  2.0376 -1.7026
  156SAPE   C2917396   4.204   1.543   9.705 -0.4278  0.6425 -0.3211
  156SAPE   H9R17397   4.243   1.645   9.692 -0.1199  0.4125 -1.2344
  156SAPE  C21017398   4.170   1.477   9.577  0.1816 -0.3124 -0.1005
  156SAPE  H10R17399   4.070   1.505   9.538 -0.6094 -1.5509  0.9524
  156SAPE  H10S17400   4.177   1.367   9.596  2.7182 -0.0930  0.5652
  156SAPE  C21117401   4.277   1.505   9.469  0.3101  1.2655  0.1775
  156SAPE  H11R17402   4.376   1.539   9.500  1.8026  1.0049 -3.7317
  156SAPE  C21217403   4.256   1.492   9.334 -0.5751 -0.7956 -0.1292
  156SAPE  H12R17404   4.343   1.507   9.268  0.6725 -1.1237  1.3789
  156SAPE  C21317405   4.133   1.443   9.270 -0.3943 -0.5371 -0.6419
  156SAPE  H13R17406   4.113   1.510   9.184  0.0151  0.0821 -0.2593
  156SAPE  H13S17407   4.039   1.449   9.329  0.9398 -0.1203  1.5327
  156SAPE  C21417408   4.144   1.296   9.231  0.4764 -0.3835  0.3106
  156SAPE  H14R17409   4.156   1.221   9.310 -1.4028  1.0261  2.0360
  156SAPE  C21517410   4.146   1.255   9.101 -0.1650  0.7040  0.4852
  156SAPE  H15R17411   4.142   1.146   9.088  3.0332  0.5364  0.3552
  156SAPE  C21617412   4.133   1.335   8.975 -0.7836 -0.7925 -0.0023
  156SAPE  H16R17413   4.232   1.371   8.941  0.0562 -2.3700  0.6458
  156SAPE  H16S17414   4.061   1.418   8.991  0.7294  0.3520  1.0727
  156SAPE  C21717415   4.074   1.251   8.859 -0.2812  0.2447  0.2039
  156SAPE  H17R17416   3.965   1.240   8.877  0.1656 -2.3768  1.9532
  156SAPE  H17S17417   4.140   1.161   8.859  1.5469  1.5205  0.7427
  156SAPE  C21817418   4.099   1.323   8.725 -0.2575 -0.1729 -0.3181
  156SAPE  H18R17419   4.196   1.377   8.719  0.0860 -0.7743 -0.2830
  156SAPE  H18S17420   4.018   1.397   8.710 -1.3898 -1.3196 -0.0396
  156SAPE  C21917421   4.068   1.226   8.605  0.4306  0.0570 -0.3009
  156SAPE  H19R17422   3.973   1.171   8.619 -0.8765  2.2299 -0.2360
  156SAPE  H19S17423   4.151   1.151   8.602 -0.4312 -0.8909 -2.4357
  156SAPE  C22017424   4.054   1.292   8.470 -0.3261 -0.5636  0.0923
  156SAPE  H20R17425   3.967   1.360   8.462 -0.2386 -0.3669  0.7543
  156SAPE  H20S17426   4.045   1.212   8.393  0.7187 -0.5127 -0.1052
  156SAPE  H20T17427   4.152   1.337   8.442 -0.9021  0.5760 -0.1246
  156SAPE   C3317428   3.950   0.785  10.097  0.0898 -0.3203  0.3523
  156SAPE   H3X17429   3.987   0.695  10.152  0.6005 -2.0780 -2.6482
  156SAPE   H3Y17430   4.023   0.865  10.120  2.7633 -2.6742  0.6325
  156SAPE   C3417431   3.957   0.749   9.949  0.0698  0.4942  0.3827
  156SAPE   H4X17432   3.872   0.684   9.921  0.9646  0.6708 -3.1140
  156SAPE   H4Y17433   4.051   0.697   9.925  0.5419  1.9721 -1.1723
  156SAPE   C3517434   3.952   0.869   9.851  0.4679 -0.0797  0.3014
  156SAPE   H5X17435   3.988   0.954   9.913  2.0547 -0.7300  0.3267
  156SAPE   H5Y17436   3.850   0.900   9.820  1.3259  2.1328 -0.5368
  156SAPE   C3617437   4.040   0.859   9.723  0.5741 -0.1465  0.4851
  156SAPE   H6X17438   4.012   0.783   9.647 -1.9262  1.3838 -0.2443
  156SAPE   H6Y17439   4.141   0.830   9.759  0.5044  2.8284  3.5149
  156SAPE   C3717440   4.050   0.985   9.628  0.8828 -0.7444  0.4461
  156SAPE   H7X17441   4.113   1.062   9.678 -1.9083  1.2968  1.0554
  156SAPE   H7Y17442   3.946   1.024   9.627  0.7836 -0.8613  2.3412
  156SAPE   C3817443   4.108   0.973   9.486  0.0151  0.3112  0.1660
  156SAPE   H8X17444   4.210   0.933   9.503 -0.2462  0.8612  3.8880
  156SAPE   H8Y17445   4.119   1.077   9.451 -0.4775  0.9121  1.7161
  156SAPE   C3917446   4.019   0.896   9.387  0.7345  0.7683  0.3616
  156SAPE   H9X17447   3.913   0.919   9.408  0.4584 -1.3541  1.6110
  156SAPE   H9Y17448   4.021   0.789   9.419  0.8263  0.5818 -0.2545
  156SAPE  C31017449   4.039   0.919   9.240  0.2410  0.4716  0.1206
  156SAPE  H10X17450   4.136   0.881   9.201 -1.0988 -2.2691 -0.8388
  156SAPE  H10Y17451   4.024   1.026   9.214 -3.0890  0.4781  1.6261
  156SAPE  C31117452   3.927   0.832   9.165 -0.2032  0.2434 -0.1618
  156SAPE  H11X17453   3.828   0.869   9.200  0.4588  0.8933  1.0824
  156SAPE  H11Y17454   3.936   0.723   9.183  2.3149  0.6611  1.5253
  156SAPE  C31217455   3.920   0.862   9.011  0.1813  0.0049 -0.8509
  156SAPE  H12X17456   4.016   0.829   8.965  0.9784 -0.3119  0.9449
  156SAPE  H12Y17457   3.892   0.968   8.996  1.5866  0.9745  2.4797
  156SAPE  C31317458   3.826   0.760   8.945  0.3263  0.7514  0.8002
  156SAPE  H13X17459   3.719   0.781   8.964 -0.0094 -0.3269  0.1415
  156SAPE  H13Y17460   3.859   0.663   8.987 -0.0499  0.3179  0.1093
  156SAPE  C31417461   3.842   0.742   8.791 -0.4733  0.2734 -0.3961
  156SAPE  H14X17462   3.784   0.657   8.750 -1.5532 -0.1048  1.7865
  156SAPE  H14Y17463   3.948   0.711   8.778 -0.0615  0.5327  1.9488
  156SAPE  C31517464   3.799   0.860   8.706  0.0183 -0.2697 -0.0281
  156SAPE  H15X17465   3.855   0.955   8.716  1.4922 -1.0990 -0.1372
  156SAPE  H15Y17466   3.696   0.884   8.738  0.9151  3.9690  0.1667
  156SAPE  C31617467   3.789   0.817   8.558  0.1649  0.1537  0.2901
  156SAPE  H16X17468   3.721   0.730   8.544  1.0988 -1.2340  3.3792
  156SAPE  H16Y17469   3.890   0.797   8.516 -0.3989 -0.2435 -0.9020
  156SAPE  C31717470   3.728   0.926   8.473 -0.3468  0.5501 -0.3555
  156SAPE  H17X17471   3.809   1.001   8.458  1.5073 -1.0390  1.1548
  156SAPE  H17Y17472   3.647   0.981   8.525 -0.7415 -1.8515  1.7645
  156SAPE  C31817473   3.687   0.864   8.338 -0.2811  0.0016  0.5775
  156SAPE  H18X17474   3.661   0.947   8.269  2.9657 -0.1542 -0.9757
  156SAPE  H18Y17475   3.598   0.797   8.345 -0.1365 -0.2824 -0.2242
  156SAPE  H18Z17476   3.775   0.817   8.290 -1.0603  1.1624 -2.1343
  157SAPE     N17477   3.452   6.041  10.521 -0.8225 -0.1140  0.8759
  157SAPE   HN117478   3.493   5.974  10.453 -1.1419  1.0583 -0.5087
  157SAPE   HN217479   3.351   6.024  10.506 -0.8492 -0.1577  1.0962
  157SAPE   HN317480   3.474   6.138  10.490  1.9774 -0.9196  0.0433
  157SAPE   C1217481   3.493   6.024  10.669 -0.8834  0.0660  0.0046
  157SAPE  H12A17482   3.424   6.091  10.725 -2.5604  0.0644 -1.9425
  157SAPE  H12B17483   3.597   6.063  10.675 -0.7410 -0.2500 -0.3544
  157SAPE   C1117484   3.473   5.883  10.722  0.1350 -0.4467  0.2351
  157SAPE  H11A17485   3.498   5.890  10.830 -1.3070 -0.0275  0.5689
  157SAPE  H11B17486   3.548   5.816  10.675  0.1282  1.4741 -2.7203
  157SAPE     P17487   3.266   5.754  10.801 -0.0212 -0.1095 -0.3035
  157SAPE   O1317488   3.277   5.608  10.764 -0.4343  0.1810 -0.3307
  157SAPE   O1417489   3.305   5.799  10.935  0.4540 -0.3353 -0.2479
  157SAPE   O1217490   3.342   5.836  10.695 -0.4394  0.5887 -0.4270
  157SAPE   O1117491   3.115   5.803  10.781 -0.4002 -0.3021 -0.7464
  157SAPE    C117492   3.086   5.887  10.669 -0.5355  0.7438 -0.7335
  157SAPE    HA17493   2.989   5.938  10.685 -0.6754  0.7417 -1.5316
  157SAPE    HB17494   3.159   5.968  10.647  0.4247 -0.7371 -3.4462
  157SAPE    C217495   3.064   5.804  10.536  0.1908 -1.0313 -0.2936
  157SAPE    HS17496   3.166   5.778  10.501  2.0548  1.3473  2.8806
  157SAPE   O2117497   2.997   5.895  10.447  0.1728  0.0908 -0.0103
  157SAPE   C2117498   3.070   5.994  10.402  0.0784 -0.1570 -0.6323
  157SAPE   O2217499   3.189   6.012  10.420  0.1395  0.4509  0.7137
  157SAPE   C2217500   2.983   6.091  10.320  0.1957  0.2947  0.0870
  157SAPE   H2R17501   2.937   6.033  10.237 -1.0407  0.2563  0.7766
  157SAPE   H2S17502   2.903   6.120  10.391 -0.7842  0.9295 -1.2178
  157SAPE    C317503   2.985   5.672  10.568  0.1326 -0.1574  0.7102
  157SAPE    HX17504   2.907   5.701  10.642 -1.3817  2.1214 -1.6111
  157SAPE    HY17505   3.043   5.602  10.631  2.3554 -0.6198 -1.7038
  157SAPE   O3117506   2.920   5.610  10.450 -0.9082 -0.1139  0.2250
  157SAPE   C3117507   3.007   5.546  10.372 -0.6126  0.7097  0.3652
  157SAPE   O3217508   3.124   5.520  10.400 -0.5683  1.2081  0.2545
  157SAPE   C3217509   2.941   5.523  10.237 -0.1765 -0.0374 -0.3583
  157SAPE   H2X17510   2.864   5.443  10.243  0.0041 -0.1069  1.5861
  157SAPE   H2Y17511   3.022   5.486  10.169  1.1209 -0.1138  1.1615
  157SAPE   C2317512   3.042   6.211  10.249 -0.2986 -0.0692  0.5422
  157SAPE   H3R17513   3.128   6.171  10.191 -0.1783 -0.8763  1.2650
  157SAPE   H3S17514   3.089   6.284  10.319  1.7261 -1.6324  0.8927
  157SAPE   C2417515   2.955   6.297  10.143 -0.1055  0.6788 -0.0771
  157SAPE   H4R17516   2.971   6.406  10.154 -1.0222  0.6272  2.3920
  157SAPE   H4S17517   2.849   6.270  10.166  0.5608 -0.2367  2.2241
  157SAPE   C2517518   2.980   6.255  10.002  0.2864 -0.2261 -0.3164
  157SAPE   H5R17519   2.951   6.155   9.965  0.7227  0.0582 -1.4568
  157SAPE   C2617520   3.010   6.340   9.900 -0.0726 -0.4957 -0.3749
  157SAPE   H6R17521   3.025   6.308   9.796 -0.0399  0.6270 -0.7250
  157SAPE   C2717522   3.027   6.488   9.919  0.0969 -0.6906 -0.6493
  157SAPE   H7R17523   3.008   6.523  10.023  0.4327  0.8322 -1.0820
  157SAPE   H7S17524   2.951   6.545   9.862 -1.6852 -0.8514  1.4138
  157SAPE   C2817525   3.163   6.546   9.882  0.0871  0.1579  0.0203
  157SAPE   H8R17526   3.233   6.542   9.966  0.8350  1.3778 -0.5168
  157SAPE   C2917527   3.199   6.584   9.754  0.2431 -0.6474  0.0176
  157SAPE   H9R17528   3.299   6.624   9.734 -0.9057  3.0584  0.8586
  157SAPE  C21017529   3.120   6.570   9.630 -0.3119  0.0934 -0.2019
  157SAPE  H10R17530   3.077   6.467   9.634 -0.5016  0.1734 -0.1847
  157SAPE  H10S17531   3.185   6.573   9.540 -1.3688  1.1714 -0.9651
  157SAPE  C21117532   3.013   6.671   9.610  0.8024 -0.0907  0.2342
  157SAPE  H11R17533   3.045   6.773   9.638  0.9237  0.4283 -1.6566
  157SAPE  C21217534   2.882   6.651   9.571 -0.1608  0.1294 -0.1256
  157SAPE  H12R17535   2.819   6.739   9.555  0.5717  0.3049 -2.2990
  157SAPE  C21317536   2.822   6.519   9.546 -0.1848  0.0442 -0.3157
  157SAPE  H13R17537   2.889   6.434   9.572  2.7559  2.3985  0.3905
  157SAPE  H13S17538   2.823   6.511   9.435 -0.4598 -1.5133 -0.2287
  157SAPE  C21417539   2.682   6.504   9.593  0.0718  0.0510  0.3437
  157SAPE  H14R17540   2.665   6.519   9.701 -0.8668  1.8979 -0.0107
  157SAPE  C21517541   2.573   6.502   9.517  0.3189 -0.1014  0.2174
  157SAPE  H15R17542   2.479   6.475   9.568  1.1068 -1.0548  1.2453
  157SAPE  C21617543   2.551   6.512   9.371 -0.3980  0.0262  0.5472
  157SAPE  H16R17544   2.647   6.532   9.318 -1.1005  2.0668 -0.0647
  157SAPE  H16S17545   2.477   6.594   9.362  0.2022  0.9180  3.0188
  157SAPE  C21717546   2.482   6.397   9.295 -0.2303  0.4849  0.1084
  157SAPE  H17R17547   2.454   6.429   9.192  0.0505 -0.0791 -0.1506
  157SAPE  H17S17548   2.393   6.365   9.353 -0.8716 -0.2887 -1.2500
  157SAPE  C21817549   2.561   6.264   9.296 -0.0787  0.0607 -0.4448
  157SAPE  H18R17550   2.499   6.173   9.314 -0.9333  0.8685  0.8613
  157SAPE  H18S17551   2.632   6.274   9.380  1.3066  1.4967 -1.7139
  157SAPE  C21917552   2.655   6.259   9.169 -0.5404  0.0677  0.5034
  157SAPE  H19R17553   2.691   6.359   9.137 -4.2654  1.4837  0.3044
  157SAPE  H19S17554   2.593   6.216   9.088  0.6265  1.4413 -1.1711
  157SAPE  C22017555   2.776   6.170   9.184  0.3079  0.1230  0.4460
  157SAPE  H20R17556   2.743   6.064   9.176 -2.7734  0.9930  0.3391
  157SAPE  H20S17557   2.820   6.180   9.285  0.0194  1.7532  0.4459
  157SAPE  H20T17558   2.848   6.189   9.102  1.6859  0.1934  1.6428
  157SAPE   C3317559   2.882   5.644  10.170 -0.4164  0.0413  0.4883
  157SAPE   H3X17560   2.919   5.738  10.216  0.0645  0.1553 -0.1146
  157SAPE   H3Y17561   2.771   5.654  10.179 -0.5332  0.2380 -0.9058
  157SAPE   C3417562   2.903   5.636  10.016  0.3742 -0.0127 -0.1658
  157SAPE   H4X17563   3.012   5.627   9.997  0.5865 -1.7263  1.5670
  157SAPE   H4Y17564   2.869   5.728   9.965 -1.5767 -0.0973  0.8863
  157SAPE   C3517565   2.840   5.512   9.949  0.6153 -0.0563  0.1461
  157SAPE   H5X17566   2.730   5.518   9.961  0.5117 -0.9988 -0.2445
  157SAPE   H5Y17567   2.865   5.412   9.991  0.8255 -1.3701 -2.8871
  157SAPE   C3617568   2.871   5.507   9.797  0.2082 -0.2077 -0.8813
  157SAPE   H6X17569   2.975   5.468   9.786  0.1888 -0.4568 -0.2379
  157SAPE   H6Y17570   2.879   5.612   9.761 -0.6685 -0.5722 -2.2056
  157SAPE   C3717571   2.772   5.428   9.712 -0.0405 -0.2772 -0.6080
  157SAPE   H7X17572   2.687   5.499   9.710 -1.2754 -1.6542  0.5471
  157SAPE   H7Y17573   2.742   5.331   9.757 -1.8085 -0.2597 -1.6302
  157SAPE   C3817574   2.824   5.412   9.574  0.2624  0.4319  1.0708
  157SAPE   H8X17575   2.886   5.501   9.551  0.2633  0.3198  0.6428
  157SAPE   H8Y17576   2.739   5.419   9.503  0.4149  1.0279  0.9472
  157SAPE   C3917577   2.899   5.279   9.549 -0.4296  0.1314 -0.5371
  157SAPE   H9X17578   2.837   5.199   9.593  0.2935 -1.3193 -2.0467
  157SAPE   H9Y17579   2.997   5.276   9.601  0.0144  2.5727 -1.0734
  157SAPE  C31017580   2.926   5.236   9.401  0.3801 -0.3647 -0.3441
  157SAPE  H10X17581   2.830   5.251   9.347 -0.0098  1.8369  0.8628
  157SAPE  H10Y17582   2.942   5.126   9.400  1.3974 -0.2247  0.1589
  157SAPE  C31117583   3.044   5.308   9.342 -0.5229 -0.2119  0.5002
  157SAPE  H11X17584   3.136   5.271   9.392 -1.1691 -0.6185  1.4058
  157SAPE  H11Y17585   3.034   5.410   9.384 -1.6336  0.0480 -0.3534
  157SAPE  C31217586   3.052   5.326   9.187  0.1409 -0.3938 -0.2461
  157SAPE  H12X17587   3.129   5.403   9.165  0.4013 -0.2633  1.0415
  157SAPE  H12Y17588   2.959   5.375   9.150  0.4385 -1.1957 -2.1734
  157SAPE  C31317589   3.069   5.194   9.110  0.5137 -0.6294 -0.4432
  157SAPE  H13X17590   2.992   5.121   9.141  1.7738 -1.7079  0.2208
  157SAPE  H13Y17591   3.152   5.138   9.157 -0.9245 -0.5875  2.3481
  157SAPE  C31417592   3.078   5.229   8.956 -0.3474  0.4851 -0.1282
  157SAPE  H14X17593   3.159   5.305   8.947 -1.5068  2.0451  1.8491
  157SAPE  H14Y17594   2.978   5.267   8.927 -1.5000  0.0071  2.8532
  157SAPE  C31517595   3.108   5.114   8.864  0.1518 -0.0592  0.0432
  157SAPE  H15X17596   3.019   5.048   8.861 -1.6288  2.2034 -0.5102
  157SAPE  H15Y17597   3.203   5.072   8.903 -0.0396 -1.3033 -0.8076
  157SAPE  C31617598   3.136   5.147   8.716 -0.0332  0.6473  0.1563
  157SAPE  H16X17599   3.131   5.058   8.650 -0.4880  1.3038 -0.7091
  157SAPE  H16Y17600   3.241   5.180   8.701  0.4909 -1.1245 -0.4179
  157SAPE  C31717601   3.037   5.244   8.665 -0.1884  0.1623  0.6093
  157SAPE  H17X17602   3.069   5.348   8.688  1.6384 -0.0231 -0.8602
  157SAPE  H17Y17603   2.934   5.240   8.706 -0.0736  2.0473  1.2130
  157SAPE  C31817604   3.026   5.228   8.512  0.3979  0.0115  0.7137
  157SAPE  H18X17605   2.992   5.124   8.496  3.8576 -0.8282 -2.4497
  157SAPE  H18Y17606   3.119   5.236   8.452 -1.0510  1.7307 -1.4163
  157SAPE  H18Z17607   2.957   5.311   8.486 -1.5124 -0.9016  2.4817
  158SAPE     N17608   5.089   0.925  10.614  0.0287 -0.1514 -0.2773
  158SAPE   HN117609   5.045   0.835  10.585 -0.8733 -0.1521  1.0242
  158SAPE   HN217610   5.187   0.900  10.638  0.0823 -2.2447 -2.3173
  158SAPE   HN317611   5.029   0.937  10.698  1.8548  0.4721  0.9931
  158SAPE   C1217612   5.074   1.035  10.518 -0.3746  0.0344 -0.4399
  158SAPE  H12A17613   5.093   0.992  10.417  2.9886 -1.7348  0.8211
  158SAPE  H12B17614   5.149   1.111  10.548  1.5973 -1.8175 -0.4950
  158SAPE   C1117615   4.938   1.109  10.522  0.1303 -0.4861 -0.0804
  158SAPE  H11A17616   4.854   1.039  10.502 -1.2305  0.7217  1.1740
  158SAPE  H11B17617   4.931   1.182  10.438 -1.8808 -0.9250 -0.3583
  158SAPE     P17618   4.957   1.324  10.680 -0.1812 -0.4192 -0.4060
  158SAPE   O1317619   4.848   1.398  10.750 -0.1874  0.1669  0.4122
  158SAPE   O1417620   5.092   1.331  10.741  0.4288 -0.2981  0.4973
  158SAPE   O1217621   4.912   1.177  10.648  0.0673  0.0699 -0.2483
  158SAPE   O1117622   4.954   1.384  10.534 -0.1494  0.1415  0.2105
  158SAPE    C117623   4.842   1.464  10.493  0.6098 -0.6986  0.1962
  158SAPE    HA17624   4.750   1.401  10.497 -0.2358  0.5533  2.3726
  158SAPE    HB17625   4.820   1.549  10.560 -2.1816 -0.9553 -0.2723
  158SAPE    C217626   4.861   1.504  10.343  0.5228 -0.5801 -0.1724
  158SAPE    HS17627   4.775   1.570  10.316  1.4155  1.0934  0.8778
  158SAPE   O2117628   4.876   1.390  10.260  0.0895  0.2847  0.4748
  158SAPE   C2117629   4.774   1.322  10.216 -0.3198  0.0624  0.0118
  158SAPE   O2217630   4.661   1.359  10.244 -0.0229  0.5008  0.1566
  158SAPE   C2217631   4.815   1.212  10.122 -0.9198 -0.0399 -0.4778
  158SAPE   H2R17632   4.838   1.258  10.023 -3.9235 -0.4053 -1.4537
  158SAPE   H2S17633   4.909   1.165  10.160 -0.3381 -0.4693 -2.3460
  158SAPE    C317634   4.986   1.597  10.322  1.1275 -0.2698 -0.4174
  158SAPE    HX17635   5.077   1.555  10.369  0.6521 -0.7108  0.1126
  158SAPE    HY17636   4.980   1.688  10.386 -0.1033 -1.0952  0.6690
  158SAPE   O3117637   5.002   1.636  10.189 -0.0437 -0.0874  0.5681
  158SAPE   C3117638   5.078   1.559  10.109  0.4712  0.0209 -0.4860
  158SAPE   O3217639   5.137   1.463  10.148  0.3611  0.4226 -0.2728
  158SAPE   C3217640   5.073   1.622   9.968 -0.1421 -0.0528  0.1234
  158SAPE   H2X17641   5.130   1.718   9.971 -0.1748 -0.0482  1.1955
  158SAPE   H2Y17642   4.968   1.650   9.948  0.4881  0.6947 -2.4184
  158SAPE   C2317643   4.707   1.103  10.096  0.2101 -0.0047 -0.2678
  158SAPE   H3R17644   4.625   1.156  10.043  1.2264  3.4788  1.3955
  158SAPE   H3S17645   4.681   1.043  10.186  0.1234 -0.6265 -0.7004
  158SAPE   C2417646   4.763   0.994  10.002  0.2333 -0.6953  0.5833
  158SAPE   H4R17647   4.856   0.957  10.050  0.6816  0.0204  0.2879
  158SAPE   H4S17648   4.803   1.042   9.909  0.2056  0.1098  0.9782
  158SAPE   C2517649   4.656   0.889   9.975  0.1106  0.5550 -0.2918
  158SAPE   H5R17650   4.634   0.821  10.059 -2.6350  0.2190 -1.1980
  158SAPE   C2617651   4.580   0.870   9.862 -0.1442 -0.5339  0.2770
  158SAPE   H6R17652   4.506   0.789   9.869  0.1027 -0.7527  0.3744
  158SAPE   C2717653   4.603   0.952   9.736  0.4379  0.5363 -0.0724
  158SAPE   H7R17654   4.632   0.895   9.645 -2.0224  0.8520 -1.1404
  158SAPE   H7S17655   4.693   1.016   9.744  1.8403 -1.2401 -0.9928
  158SAPE   C2817656   4.476   1.028   9.698 -0.5768  0.3542  0.1591
  158SAPE   H8R17657   4.396   1.040   9.773 -0.7651  5.2566 -0.5030
  158SAPE   C2917658   4.452   1.079   9.575  0.1854 -0.2326 -0.0845
  158SAPE   H9R17659   4.349   1.106   9.548  0.6034 -0.3823 -1.8982
  158SAPE  C21017660   4.528   1.071   9.450 -0.1313 -0.2630  0.0929
  158SAPE  H10R17661   4.508   0.981   9.388 -0.1833  1.1390 -2.0452
  158SAPE  H10S17662   4.637   1.080   9.471 -0.0419 -0.6562 -0.2036
  158SAPE  C21117663   4.492   1.180   9.356  0.0923  0.0329  0.5954
  158SAPE  H11R17664   4.445   1.267   9.404 -0.6909 -0.3228  0.4879
  158SAPE  C21217665   4.495   1.176   9.224 -0.3306  0.1202  0.3102
  158SAPE  H12R17666   4.447   1.261   9.174 -1.7886  0.3497  1.9954
  158SAPE  C21317667   4.550   1.067   9.137  0.0580 -0.2028 -0.3355
  158SAPE  H13R17668   4.615   1.003   9.201 -1.2868 -0.4328  0.8494
  158SAPE  H13S17669   4.630   1.107   9.071  0.3151  2.9831  1.6904
  158SAPE  C21417670   4.430   0.993   9.076 -0.3756 -0.0364 -0.4681
  158SAPE  H14R17671   4.402   0.901   9.131  1.5828 -0.9971 -1.0040
  158SAPE  C21517672   4.384   1.008   8.954  0.8693  0.2468 -0.7957
  158SAPE  H15R17673   4.294   0.951   8.927  2.3601 -2.5905 -0.1081
  158SAPE  C21617674   4.425   1.099   8.847 -0.3384  0.0391  0.2721
  158SAPE  H16R17675   4.481   1.183   8.893  1.5859 -1.2492  0.3875
  158SAPE  H16S17676   4.330   1.142   8.807 -0.1481 -0.8478 -1.2095
  158SAPE  C21717677   4.493   1.037   8.723 -0.1787 -1.0978 -0.1070
  158SAPE  H17R17678   4.437   0.946   8.692 -2.9018  0.8822 -1.4502
  158SAPE  H17S17679   4.593   0.999   8.751 -0.8212 -2.4150  0.5113
  158SAPE  C21817680   4.490   1.144   8.610 -0.5567  0.4991 -0.0717
  158SAPE  H18R17681   4.402   1.210   8.622 -0.2863  1.0672 -1.1579
  158SAPE  H18S17682   4.490   1.103   8.507  0.0231  0.8390 -0.2066
  158SAPE  C21917683   4.608   1.241   8.610  0.8496  0.7217  0.3405
  158SAPE  H19R17684   4.694   1.173   8.595  1.4492  1.2141  1.4553
  158SAPE  H19S17685   4.639   1.273   8.712  0.0023 -1.3426  1.3251
  158SAPE  C22017686   4.610   1.356   8.508  0.0558  0.0883  0.3693
  158SAPE  H20R17687   4.576   1.313   8.412  0.2590  0.3763  0.1652
  158SAPE  H20S17688   4.709   1.401   8.483 -0.8716  0.7712 -2.4096
  158SAPE  H20T17689   4.539   1.440   8.527  1.5143  0.9282  2.6057
  158SAPE   C3317690   5.125   1.521   9.864  0.2088 -0.8894 -0.2397
  158SAPE   H3X17691   5.043   1.465   9.813 -0.0376 -0.5980 -0.1657
  158SAPE   H3Y17692   5.196   1.446   9.905  2.9403  1.7605  0.1615
  158SAPE   C3417693   5.208   1.601   9.758  0.6823 -0.0359 -0.3421
  158SAPE   H4X17694   5.303   1.640   9.800  0.0246  2.9931 -1.4182
  158SAPE   H4Y17695   5.147   1.694   9.747  1.1616  0.4484  0.9371
  158SAPE   C3517696   5.240   1.526   9.629 -0.2747 -1.1303  0.3676
  158SAPE   H5X17697   5.144   1.489   9.586 -0.9660 -0.1753  1.0488
  158SAPE   H5Y17698   5.301   1.438   9.658  0.6050 -0.8434 -0.5658
  158SAPE   C3617699   5.302   1.612   9.517  0.6395 -0.6224  0.0086
  158SAPE   H6X17700   5.387   1.664   9.567  1.8511 -0.9595 -1.6158
  158SAPE   H6Y17701   5.239   1.692   9.472 -1.9367 -2.1004  0.7859
  158SAPE   C3717702   5.339   1.530   9.393 -0.2234  0.5301  0.0942
  158SAPE   H7X17703   5.257   1.462   9.363  0.9305 -0.9743  0.2511
  158SAPE   H7Y17704   5.424   1.462   9.412  1.1495  1.2282 -3.0721
  158SAPE   C3817705   5.369   1.623   9.275  0.5289 -0.4325 -0.4911
  158SAPE   H8X17706   5.447   1.690   9.319  0.3772 -1.3874  1.3385
  158SAPE   H8Y17707   5.279   1.681   9.246  0.3844 -0.8817 -0.9609
  158SAPE   C3917708   5.433   1.560   9.153  0.3280  0.0898  0.0844
  158SAPE   H9X17709   5.371   1.472   9.125 -1.3476  1.2366 -0.0085
  158SAPE   H9Y17710   5.530   1.514   9.181 -0.3914 -0.9944  0.8622
  158SAPE  C31017711   5.453   1.652   9.028 -0.1090  0.7525  0.2315
  158SAPE  H10X17712   5.520   1.737   9.055  2.6856 -0.9018 -0.9614
  158SAPE  H10Y17713   5.353   1.689   8.998 -1.8183 -1.4465  2.7490
  158SAPE  C31117714   5.519   1.575   8.912  0.3264  0.2001  0.7940
  158SAPE  H11X17715   5.470   1.476   8.906  0.4156  0.1601  0.7301
  158SAPE  H11Y17716   5.628   1.560   8.928  0.5724 -1.4653 -1.9205
  158SAPE  C31217717   5.477   1.646   8.785 -0.0988  0.3128 -0.6845
  158SAPE  H12X17718   5.538   1.738   8.770  0.3092  0.0943 -0.4050
  158SAPE  H12Y17719   5.375   1.688   8.799 -0.3914 -0.6906  0.2966
  158SAPE  C31317720   5.478   1.572   8.652 -0.3767 -0.0962 -0.4253
  158SAPE  H13X17721   5.585   1.557   8.626  0.4260  1.3568  1.7716
  158SAPE  H13Y17722   5.437   1.640   8.575 -0.1623  1.6924  0.9833
  158SAPE  C31417723   5.404   1.436   8.656  0.2841  0.1955 -1.0710
  158SAPE  H14X17724   5.434   1.389   8.752 -4.1767  1.8126  1.3907
  158SAPE  H14Y17725   5.451   1.376   8.575 -1.0879  0.2954 -1.9734
  158SAPE  C31517726   5.249   1.424   8.642  0.5614 -0.2552 -0.1547
  158SAPE  H15X17727   5.201   1.492   8.715 -1.7863  0.5152 -2.2851
  158SAPE  H15Y17728   5.229   1.321   8.678  0.3807  0.0520  0.6468
  158SAPE  C31617729   5.182   1.433   8.504  0.0612  0.0266 -0.4499
  158SAPE  H16X17730   5.181   1.340   8.444  0.9247  0.7115 -1.5705
  158SAPE  H16Y17731   5.244   1.504   8.444  0.8028  0.2224  0.5287
  158SAPE  C31717732   5.038   1.483   8.518 -0.9993 -0.3689 -0.4798
  158SAPE  H17X17733   5.047   1.574   8.582 -1.0885 -0.4017 -0.4203
  158SAPE  H17Y17734   4.982   1.401   8.567  0.1287 -0.4828  0.6776
  158SAPE  C31817735   4.973   1.521   8.382 -0.5227 -0.3868  0.4259
  158SAPE  H18X17736   5.038   1.599   8.337 -0.1069 -1.3776 -0.7504
  158SAPE  H18Y17737   4.874   1.566   8.403 -1.3479 -0.1957 -3.3401
  158SAPE  H18Z17738   4.964   1.439   8.308 -1.2152  1.5400 -1.6988
  159SAPE     N17739   3.501   3.494   6.411 -0.0997  0.0526 -0.9635
  159SAPE   HN117740   3.458   3.566   6.349  0.3349  1.0130 -0.1702
  159SAPE   HN217741   3.593   3.538   6.428  0.0263 -0.3655 -0.5467
  159SAPE   HN317742   3.504   3.400   6.365  0.9079 -0.0778 -0.6547
  159SAPE   C1217743   3.426   3.503   6.536 -0.0329 -0.2831 -0.1990
  159SAPE  H12A17744   3.424   3.610   6.565  0.8072 -0.0839 -0.8310
  159SAPE  H12B17745   3.462   3.430   6.611 -0.5113 -1.4470 -1.0715
  159SAPE   C1117746   3.283   3.452   6.499 -1.1496 -0.3670  0.4924
  159SAPE  H11A17747   3.227   3.440   6.595  0.6282  1.9030  1.9471
  159SAPE  H11B17748   3.296   3.355   6.448  0.9915  0.5299 -0.8226
  159SAPE     P17749   3.158   3.681   6.469 -0.4535 -0.6978  0.3558
  159SAPE   O1317750   3.263   3.785   6.478  0.0894  0.3398  0.0071
  159SAPE   O1417751   3.045   3.726   6.383  0.3033 -0.3534 -0.1589
  159SAPE   O1217752   3.223   3.542   6.416 -0.4838 -0.6418  0.6697
  159SAPE   O1117753   3.109   3.651   6.617 -0.2584 -0.0967  0.5099
  159SAPE    C117754   3.066   3.758   6.703  0.0246  0.1441  0.2310
  159SAPE    HA17755   3.100   3.860   6.676  2.5703 -0.5961  0.4305
  159SAPE    HB17756   2.956   3.751   6.690 -0.1483 -3.0891  2.2701
  159SAPE    C217757   3.091   3.729   6.852 -0.0522 -1.0723  0.2760
  159SAPE    HS17758   3.012   3.788   6.902 -0.8335  1.2974 -3.3570
  159SAPE   O2117759   3.229   3.768   6.878 -0.3658  0.9890 -0.1975
  159SAPE   C2117760   3.244   3.888   6.939 -0.8076  0.6776 -0.2491
  159SAPE   O2217761   3.162   3.970   6.968 -0.3791 -0.7376  0.0987
  159SAPE   C2217762   3.384   3.898   6.997 -0.3625  0.4887 -0.2670
  159SAPE   H2R17763   3.459   3.867   6.922  1.2225 -1.7736  2.1070
  159SAPE   H2S17764   3.404   4.006   7.013  0.8266  0.4143 -1.1554
  159SAPE    C317765   3.052   3.589   6.891  0.1050 -0.8218 -0.2216
  159SAPE    HX17766   3.104   3.513   6.830 -1.3431 -1.5138 -0.6508
  159SAPE    HY17767   2.947   3.576   6.856  0.1963 -0.3973 -0.6590
  159SAPE   O3117768   3.054   3.558   7.033  0.4085  0.2118 -0.3107
  159SAPE   C3117769   3.172   3.515   7.086 -0.1732 -0.8398  0.0461
  159SAPE   O3217770   3.272   3.489   7.021  0.6212  0.0777  0.9658
  159SAPE   C3217771   3.152   3.498   7.237  0.1606 -0.3336  0.5860
  159SAPE   H2X17772   3.100   3.402   7.256  0.2499 -0.2427  1.3152
  159SAPE   H2Y17773   3.098   3.586   7.278  0.1281 -0.6302  1.1951
  159SAPE   C2317774   3.408   3.846   7.141 -0.0181 -0.2427  0.4677
  159SAPE   H3R17775   3.516   3.856   7.169  0.5345  0.2235 -1.6296
  159SAPE   H3S17776   3.399   3.736   7.153  0.6351 -0.2173  1.2728
  159SAPE   C2417777   3.325   3.923   7.241 -0.0931 -0.8736  0.7445
  159SAPE   H4R17778   3.215   3.905   7.233 -0.4705  0.0848  3.0112
  159SAPE   H4S17779   3.335   4.033   7.224  0.5367 -1.2484 -1.6731
  159SAPE   C2517780   3.370   3.901   7.383  0.0767  0.4320  0.6685
  159SAPE   H5R17781   3.470   3.943   7.403  0.2915 -0.1381  0.8363
  159SAPE   C2617782   3.298   3.856   7.485  0.0660 -0.1077 -0.3546
  159SAPE   H6R17783   3.348   3.853   7.583 -1.2793  2.7575  0.5234
  159SAPE   C2717784   3.157   3.809   7.474  0.7650 -0.3291 -0.0322
  159SAPE   H7R17785   3.139   3.709   7.520  0.9780  0.1769  1.1805
  159SAPE   H7S17786   3.130   3.794   7.367 -1.5753  0.0567  0.4680
  159SAPE   C2817787   3.053   3.914   7.519  0.3924 -0.1511 -0.7562
  159SAPE   H8R17788   3.015   3.997   7.457 -1.1708 -0.5373 -0.3710
  159SAPE   C2917789   3.006   3.918   7.648  0.8533 -0.1224  0.6541
  159SAPE   H9R17790   2.933   3.997   7.670 -0.5834 -0.9869 -0.8397
  159SAPE  C21017791   3.050   3.833   7.759  0.3105  0.6764 -0.4434
  159SAPE  H10R17792   3.147   3.858   7.807  1.0522 -1.5266 -0.6353
  159SAPE  H10S17793   3.083   3.733   7.723  0.1974  0.3849  0.2490
  159SAPE  C21117794   2.947   3.820   7.873  0.0795  0.0029  0.4681
  159SAPE  H11R17795   2.843   3.805   7.839  0.6234 -0.9800 -0.8182
  159SAPE  C21217796   2.974   3.831   8.001 -0.0522 -0.6169  0.2604
  159SAPE  H12R17797   2.885   3.822   8.064  0.1865  0.5864  0.8129
  159SAPE  C21317798   3.103   3.850   8.074  0.8854 -0.2591 -0.2918
  159SAPE  H13R17799   3.185   3.869   8.001  0.7962 -0.2909 -0.4015
  159SAPE  H13S17800   3.127   3.751   8.119  2.1643 -0.5609 -1.5695
  159SAPE  C21417801   3.088   3.957   8.183  0.4088 -0.0977 -0.2189
  159SAPE  H14R17802   3.090   4.061   8.146 -2.1952  0.6288  1.4380
  159SAPE  C21517803   3.076   3.945   8.317 -0.2051  0.2520 -0.4530
  159SAPE  H15R17804   3.055   4.027   8.386 -1.8733 -0.0506 -0.5521
  159SAPE  C21617805   3.072   3.811   8.392 -0.1349 -0.2020  0.0798
  159SAPE  H16R17806   3.043   3.725   8.328 -1.0804  0.1457  0.0232
  159SAPE  H16S17807   3.006   3.805   8.481 -0.0666 -0.5858  0.1036
  159SAPE  C21717808   3.215   3.795   8.444 -0.0694  0.1270  0.0233
  159SAPE  H17R17809   3.255   3.879   8.504  0.2583 -0.3974  0.5535
  159SAPE  H17S17810   3.285   3.802   8.358 -1.0541 -2.4269 -1.1062
  159SAPE  C21817811   3.240   3.653   8.503 -0.2351  0.0774 -0.2525
  159SAPE  H18R17812   3.180   3.577   8.448  0.1161 -0.7890  0.5306
  159SAPE  H18S17813   3.210   3.636   8.608 -2.3267  1.9882 -0.4649
  159SAPE  C21917814   3.388   3.593   8.485 -0.3753  0.2070  1.4827
  159SAPE  H19R17815   3.453   3.667   8.537  0.3152  1.0291 -0.4595
  159SAPE  H19S17816   3.402   3.590   8.375 -2.5050 -2.0174  1.2002
  159SAPE  C22017817   3.412   3.456   8.533 -0.2112 -0.5120  0.3092
  159SAPE  H20R17818   3.516   3.424   8.508  0.5247  3.0331 -1.7650
  159SAPE  H20S17819   3.325   3.401   8.492  0.0944 -0.2628 -0.6907
  159SAPE  H20T17820   3.398   3.452   8.643  0.2968  2.2297  0.5388
  159SAPE   C3317821   3.288   3.473   7.306  0.1156 -0.2026 -0.0790
  159SAPE   H3X17822   3.353   3.561   7.290  0.8845 -0.9291 -1.1607
  159SAPE   H3Y17823   3.342   3.398   7.245  0.7470  1.6483 -1.9182
  159SAPE   C3417824   3.289   3.429   7.448  0.4484 -0.2900  0.1584
  159SAPE   H4X17825   3.280   3.319   7.460  0.7167 -0.2356  0.8648
  159SAPE   H4Y17826   3.205   3.479   7.502  1.5783  0.8894  0.8589
  159SAPE   C3517827   3.423   3.479   7.510  0.7202 -0.0079 -0.0571
  159SAPE   H5X17828   3.420   3.590   7.504 -2.0718 -0.0450 -0.7049
  159SAPE   H5Y17829   3.505   3.437   7.449 -0.7090 -2.2760 -0.5460
  159SAPE   C3617830   3.439   3.433   7.656  0.9605  0.8540  0.2279
  159SAPE   H6X17831   3.341   3.454   7.704  0.4530  0.4559 -0.6288
  159SAPE   H6Y17832   3.512   3.495   7.714  2.2997 -1.2416  0.8853
  159SAPE   C3717833   3.479   3.285   7.668  0.1285  0.3343  0.5703
  159SAPE   H7X17834   3.542   3.265   7.579 -0.2096  0.1531  0.3698
  159SAPE   H7Y17835   3.401   3.207   7.651 -0.0738  0.9640 -1.7189
  159SAPE   C3817836   3.559   3.241   7.795  0.2944 -0.1861 -0.4990
  159SAPE   H8X17837   3.664   3.274   7.777  0.8222  0.0174  2.3705
  159SAPE   H8Y17838   3.569   3.130   7.801  1.2180 -0.0385  1.5293
  159SAPE   C3917839   3.504   3.299   7.923  0.1430  0.4395 -0.4451
  159SAPE   H9X17840   3.404   3.263   7.954 -0.4671  1.5313 -1.0789
  159SAPE   H9Y17841   3.482   3.406   7.903 -1.7113  0.3111  0.7316
  159SAPE  C31017842   3.614   3.306   8.031  0.1801 -0.6322 -0.2852
  159SAPE  H10X17843   3.569   3.355   8.120 -0.7725  1.8244 -2.0178
  159SAPE  H10Y17844   3.700   3.370   8.001 -0.3633  0.5411  0.5542
  159SAPE  C31117845   3.665   3.168   8.068  0.3377 -0.1892 -0.1727
  159SAPE  H11X17846   3.668   3.103   7.978 -2.0462  0.7837 -1.0299
  159SAPE  H11Y17847   3.587   3.126   8.134 -1.3342  0.7759 -1.4359
  159SAPE  C31217848   3.796   3.164   8.154  0.5300 -0.3430 -0.3972
  159SAPE  H12X17849   3.876   3.224   8.107 -0.9479  2.8610  0.8234
  159SAPE  H12Y17850   3.830   3.060   8.172 -0.4862 -0.7146 -0.5506
  159SAPE  C31317851   3.778   3.230   8.292 -1.1361 -0.1158 -0.2868
  159SAPE  H13X17852   3.675   3.263   8.314 -1.8414 -1.9090 -0.7383
  159SAPE  H13Y17853   3.838   3.324   8.300 -1.3650 -0.1318  3.1380
  159SAPE  C31417854   3.830   3.147   8.414 -0.0784 -0.6953  0.4556
  159SAPE  H14X17855   3.935   3.128   8.385 -0.0490 -0.6164  0.5105
  159SAPE  H14Y17856   3.773   3.054   8.432  1.1316 -1.5977 -0.2313
  159SAPE  C31517857   3.834   3.235   8.544  0.1814 -0.4982 -0.0271
  159SAPE  H15X17858   3.745   3.212   8.607  1.8114  0.5500  2.8773
  159SAPE  H15Y17859   3.826   3.343   8.521 -1.2164 -0.6179 -0.1565
  159SAPE  C31617860   3.960   3.210   8.623 -0.1637 -0.7122 -0.1946
  159SAPE  H16X17861   3.982   3.101   8.626  0.4934 -0.5673  0.4344
  159SAPE  H16Y17862   3.954   3.226   8.733  2.2453  1.7678 -0.3338
  159SAPE  C31717863   4.068   3.301   8.578 -0.3275  0.6037 -0.1819
  159SAPE  H17X17864   4.057   3.408   8.608 -0.6243  0.8140 -0.9829
  159SAPE  H17Y17865   4.061   3.298   8.467  1.0486 -3.3738 -0.3203
  159SAPE  C31817866   4.211   3.248   8.609 -0.4107  0.8513 -0.1862
  159SAPE  H18X17867   4.230   3.251   8.719 -1.9273  0.8960  0.0870
  159SAPE  H18Y17868   4.295   3.307   8.566  1.8233 -2.6883 -1.0611
  159SAPE  H18Z17869   4.222   3.143   8.574 -0.3887  1.2470 -1.4190
  160SAPE     N17870   2.090   5.184   6.096 -0.0081 -0.5671 -0.1032
  160SAPE   HN117871   2.180   5.133   6.099 -0.2426 -1.0033 -0.4490
  160SAPE   HN217872   2.060   5.196   5.997  0.4638 -1.2301 -0.3334
  160SAPE   HN317873   2.116   5.273   6.144 -0.7933 -0.7842  0.7691
  160SAPE   C1217874   2.002   5.106   6.180  0.0276 -0.2504 -0.1650
  160SAPE  H12A17875   1.990   5.010   6.125 -2.5550  0.2553 -0.5793
  160SAPE  H12B17876   1.908   5.163   6.191  0.4949  0.2581  1.6025
  160SAPE   C1117877   2.082   5.074   6.314  1.0427  0.4894  0.3816
  160SAPE  H11A17878   2.007   5.014   6.369 -0.7554 -0.1552 -2.5491
  160SAPE  H11B17879   2.100   5.164   6.375  1.0265  1.5395 -1.1001
  160SAPE     P17880   2.342   5.060   6.318 -0.3280  0.0862  0.1184
  160SAPE   O1317881   2.448   4.967   6.280 -0.3226 -0.0548 -0.4231
  160SAPE   O1417882   2.358   5.198   6.262  0.4000  0.2251  0.0925
  160SAPE   O1217883   2.206   5.006   6.286  0.6976 -0.2022 -0.4855
  160SAPE   O1117884   2.329   5.062   6.474 -0.4033  0.1212 -0.1268
  160SAPE    C117885   2.433   5.137   6.547  0.3817  0.1990 -0.8946
  160SAPE    HA17886   2.533   5.102   6.514 -0.6017  0.4660 -4.5249
  160SAPE    HB17887   2.423   5.245   6.523  0.7221  0.6398  0.8214
  160SAPE    C217888   2.416   5.136   6.700 -0.3851  0.0021  0.2368
  160SAPE    HS17889   2.485   5.217   6.733 -0.6293  0.2412  0.1731
  160SAPE   O2117890   2.457   5.013   6.753  0.9055  0.3675 -0.3705
  160SAPE   C2117891   2.582   4.997   6.773 -0.3412 -0.2714  0.0896
  160SAPE   O2217892   2.667   5.076   6.753  0.4120  0.0356 -0.1373
  160SAPE   C2217893   2.610   4.862   6.834  0.7715 -0.2352 -0.4980
  160SAPE   H2R17894   2.536   4.789   6.795  0.1171  0.8406 -1.3168
  160SAPE   H2S17895   2.715   4.852   6.797  0.5550 -1.3239 -0.8418
  160SAPE    C317896   2.270   5.178   6.738 -0.5425 -0.4060  0.4175
  160SAPE    HX17897   2.208   5.111   6.673 -0.6910  1.7849 -1.8658
  160SAPE    HY17898   2.249   5.282   6.705 -0.8717 -1.0485 -1.5783
  160SAPE   O3117899   2.249   5.167   6.878  0.6893  0.2427  0.0988
  160SAPE   C3117900   2.121   5.150   6.917  0.4517  0.5283  0.1915
  160SAPE   O3217901   2.024   5.152   6.842  0.1442  0.4638 -0.1444
  160SAPE   C3217902   2.126   5.099   7.065  0.5597 -0.5117 -0.1834
  160SAPE   H2X17903   2.213   5.030   7.067  1.0967  0.1757  0.7629
  160SAPE   H2Y17904   2.038   5.031   7.066 -1.8683  2.0871 -4.4267
  160SAPE   C2317905   2.613   4.848   6.987 -0.8270 -0.7955 -0.2603
  160SAPE   H3R17906   2.697   4.903   7.035  0.2544 -2.7931  0.2586
  160SAPE   H3S17907   2.640   4.742   7.005  1.3566 -0.1861  0.3632
  160SAPE   C2417908   2.479   4.871   7.062 -0.2969 -0.0283  1.1079
  160SAPE   H4R17909   2.391   4.826   7.012  1.4377 -1.1737 -1.1447
  160SAPE   H4S17910   2.450   4.976   7.037  1.2103  0.1755 -0.0016
  160SAPE   C2517911   2.471   4.832   7.209  0.7081 -0.3573  1.0914
  160SAPE   H5R17912   2.443   4.727   7.222 -0.4112 -0.1009  0.8359
  160SAPE   C2617913   2.493   4.915   7.312 -0.2480  0.4117  0.0129
  160SAPE   H6R17914   2.488   4.870   7.412 -1.1440 -2.4926 -1.2249
  160SAPE   C2717915   2.544   5.054   7.295 -0.3148 -0.3802 -0.4774
  160SAPE   H7R17916   2.480   5.097   7.215  0.9232  2.3972 -0.0733
  160SAPE   H7S17917   2.640   5.050   7.240 -0.0700 -1.9101  0.0069
  160SAPE   C2817918   2.536   5.134   7.424 -0.3673  0.6242  0.1469
  160SAPE   H8R17919   2.462   5.215   7.420  0.9673  1.8281 -1.0564
  160SAPE   C2917920   2.598   5.099   7.547 -0.8827 -0.9568 -0.6843
  160SAPE   H9R17921   2.575   5.160   7.636 -1.3811 -3.8137  1.2706
  160SAPE  C21017922   2.700   4.988   7.571 -0.0433 -0.5454 -0.1810
  160SAPE  H10R17923   2.745   4.948   7.478 -0.9245 -2.7434  0.2859
  160SAPE  H10S17924   2.634   4.912   7.619 -0.7158  0.1995  0.1082
  160SAPE  C21117925   2.808   5.043   7.657  0.6687 -0.1225 -0.4736
  160SAPE  H11R17926   2.873   5.113   7.601  1.4570  0.0113  0.5727
  160SAPE  C21217927   2.823   5.025   7.794  0.0519  0.1209  0.1013
  160SAPE  H12R17928   2.897   5.081   7.852 -0.4910  0.4063  0.5335
  160SAPE  C21317929   2.733   4.936   7.884  0.6030  0.4376  0.4399
  160SAPE  H13R17930   2.683   4.865   7.815  0.5001 -0.1692  1.1309
  160SAPE  H13S17931   2.652   4.997   7.930  0.2989 -0.1438  0.6881
  160SAPE  C21417932   2.819   4.848   7.979 -0.1173 -0.0534  0.3678
  160SAPE  H14R17933   2.840   4.748   7.937 -3.4200 -0.3412 -0.9362
  160SAPE  C21517934   2.856   4.886   8.101 -0.1664  0.1165 -0.8365
  160SAPE  H15R17935   2.935   4.831   8.154  0.4200  1.5216 -0.1800
  160SAPE  C21617936   2.825   5.015   8.174  0.1062 -0.1075  0.1152
  160SAPE  H16R17937   2.736   5.057   8.123 -1.4201 -4.7959 -1.5317
  160SAPE  H16S17938   2.904   5.092   8.165  0.6635 -0.5915  0.7749
  160SAPE  C21717939   2.784   5.004   8.318  0.2748  0.1700  0.2845
  160SAPE  H17R17940   2.749   5.104   8.350 -3.1960 -1.3385  1.6521
  160SAPE  H17S17941   2.875   4.984   8.379  0.6595  0.0386 -0.3198
  160SAPE  C21817942   2.675   4.896   8.345  0.6235 -0.0145 -0.3889
  160SAPE  H18R17943   2.709   4.793   8.321  1.5392  0.1329  0.2079
  160SAPE  H18S17944   2.586   4.916   8.281 -0.9639 -2.4512  0.9054
  160SAPE  C21917945   2.648   4.890   8.491  0.1700 -0.2073  0.1271
  160SAPE  H19R17946   2.633   4.990   8.537  2.4933  0.9260 -1.3902
  160SAPE  H19S17947   2.739   4.863   8.549 -0.5633  0.6217  1.7203
  160SAPE  C22017948   2.523   4.805   8.530  0.0518  0.9705 -0.0016
  160SAPE  H20R17949   2.519   4.700   8.493 -0.0760  0.2710  1.8814
  160SAPE  H20S17950   2.425   4.853   8.507 -0.1672 -0.0252 -1.3040
  160SAPE  H20T17951   2.530   4.800   8.641  0.2986 -1.0653 -0.0623
  160SAPE   C3317952   2.153   5.191   7.187 -0.3049  0.4061  0.5291
  160SAPE   H3X17953   2.237   5.264   7.180  0.3500 -0.4191 -0.5029
  160SAPE   H3Y17954   2.185   5.110   7.255 -2.5005 -2.1937 -1.3257
  160SAPE   C3417955   2.012   5.247   7.230  0.1475  0.4495  0.0091
  160SAPE   H4X17956   1.959   5.167   7.285 -0.8211 -1.3521 -3.2389
  160SAPE   H4Y17957   1.956   5.280   7.140  0.9042 -0.0804 -0.6691
  160SAPE   C3517958   2.009   5.363   7.335  0.0416  0.1125 -0.6707
  160SAPE   H5X17959   1.902   5.374   7.362  0.7458  0.9869  2.1652
  160SAPE   H5Y17960   2.044   5.465   7.307 -1.3106  1.2102  1.3335
  160SAPE   C3617961   2.081   5.312   7.456 -0.1422  0.2296 -0.3582
  160SAPE   H6X17962   2.189   5.292   7.439 -0.0766  1.4706 -1.5169
  160SAPE   H6Y17963   2.036   5.215   7.488 -1.4085 -0.0697 -2.8392
  160SAPE   C3717964   2.066   5.403   7.578 -0.2954 -0.5120  0.3862
  160SAPE   H7X17965   1.969   5.386   7.630  1.3385 -0.0492  3.9392
  160SAPE   H7Y17966   2.076   5.508   7.542  1.9874  0.0565  2.3688
  160SAPE   C3817967   2.169   5.382   7.682 -0.1826  0.2894  0.0703
  160SAPE   H8X17968   2.157   5.458   7.763 -0.3566 -1.5829  1.9003
  160SAPE   H8Y17969   2.265   5.407   7.634  0.2233 -2.7525 -0.9344
  160SAPE   C3917970   2.186   5.234   7.737  0.3149  0.2892 -0.1211
  160SAPE   H9X17971   2.231   5.163   7.665 -0.3826 -2.4229  1.9507
  160SAPE   H9Y17972   2.086   5.189   7.728  0.5984 -0.4189  0.2333
  160SAPE  C31017973   2.253   5.221   7.869  0.1013  0.1072  0.1148
  160SAPE  H10X17974   2.216   5.135   7.930 -0.2951  0.2372  0.0637
  160SAPE  H10Y17975   2.221   5.311   7.926 -1.1265 -0.2663  0.0501
  160SAPE  C31117976   2.408   5.215   7.849  0.5010 -0.3282 -0.3291
  160SAPE  H11X17977   2.452   5.287   7.777  1.6178 -1.5731 -0.9363
  160SAPE  H11Y17978   2.437   5.111   7.821 -3.2219 -1.1298 -1.8129
  160SAPE  C31217979   2.490   5.248   7.974  0.3980 -0.9717 -0.6200
  160SAPE  H12X17980   2.595   5.213   7.970  1.3279  1.5619 -0.0216
  160SAPE  H12Y17981   2.437   5.199   8.058  0.5305  1.5130  1.0220
  160SAPE  C31317982   2.506   5.404   7.996 -0.0800 -0.7392 -0.1274
  160SAPE  H13X17983   2.407   5.450   7.980  1.2254  1.7097 -1.7775
  160SAPE  H13Y17984   2.563   5.449   7.912 -1.2428  2.5998  0.7380
  160SAPE  C31417985   2.570   5.451   8.120  0.5805  0.8804 -0.0864
  160SAPE  H14X17986   2.673   5.409   8.133 -0.0438 -0.1554  1.9686
  160SAPE  H14Y17987   2.521   5.414   8.212  0.6024  1.3596  0.1210
  160SAPE  C31517988   2.582   5.605   8.136  0.4435  0.0110 -0.1387
  160SAPE  H15X17989   2.485   5.629   8.186 -0.0379  1.5368 -1.7055
  160SAPE  H15Y17990   2.587   5.646   8.033 -0.2404 -1.7573 -0.9148
  160SAPE  C31617991   2.706   5.650   8.211 -0.2568 -0.1036 -0.3280
  160SAPE  H16X17992   2.687   5.753   8.248 -0.7188  0.1296 -1.2016
  160SAPE  H16Y17993   2.795   5.649   8.145 -1.0832  0.5439 -1.4692
  160SAPE  C31717994   2.728   5.570   8.341 -0.1139 -0.1166 -0.4237
  160SAPE  H17X17995   2.839   5.568   8.340 -0.0006 -0.2373  2.3252
  160SAPE  H17Y17996   2.701   5.462   8.338 -2.7016  0.1570  3.8037
  160SAPE  C31817997   2.678   5.625   8.464 -0.1973 -0.9715  0.5484
  160SAPE  H18X17998   2.570   5.633   8.486  0.0785  0.4169  1.5055
  160SAPE  H18Y17999   2.715   5.729   8.467 -0.6739 -0.7963  0.4479
  160SAPE  H18Z18000   2.720   5.574   8.553 -1.2937 -3.0107 -0.0311
  161SAPE     N18001   5.171   3.830   6.074  0.7849 -0.9432 -0.3145
  161SAPE   HN118002   5.240   3.886   6.128  0.7099  0.4805 -1.6412
  161SAPE   HN218003   5.125   3.752   6.126 -0.3678 -1.1127 -1.5382
  161SAPE   HN318004   5.202   3.805   5.978 -1.4359 -1.0286 -1.0472
  161SAPE   C1218005   5.066   3.941   6.058  0.0815 -0.0284  0.5014
  161SAPE  H12A18006   4.988   3.894   5.993  1.5966 -2.2420  0.1689
  161SAPE  H12B18007   5.108   4.026   5.999  1.6338 -1.8313 -1.1549
  161SAPE   C1118008   5.005   3.981   6.194  0.0416 -0.0855 -0.1562
  161SAPE  H11A18009   4.953   3.895   6.241 -1.7688  0.6732 -0.7134
  161SAPE  H11B18010   4.923   4.054   6.184 -0.2383 -0.4415 -0.4964
  161SAPE     P18011   5.146   4.182   6.310  0.2010  0.3679  0.0285
  161SAPE   O1318012   5.288   4.190   6.350  0.4593  0.0471  0.0268
  161SAPE   O1418013   5.092   4.261   6.197  0.5013  0.2054 -0.3907
  161SAPE   O1218014   5.107   4.030   6.286  0.0193  0.2081  0.0186
  161SAPE   O1118015   5.054   4.223   6.445 -0.3760 -0.1508  0.1930
  161SAPE    C118016   4.919   4.183   6.444 -0.2174  0.2085  0.6569
  161SAPE    HA18017   4.866   4.224   6.355 -1.3419 -2.3100  0.0824
  161SAPE    HB18018   4.912   4.072   6.449 -3.1626  0.3075  0.7509
  161SAPE    C218019   4.834   4.229   6.563  0.5236  0.8250  0.3372
  161SAPE    HS18020   4.806   4.336   6.553 -1.2924  0.5164  1.7149
  161SAPE   O2118021   4.912   4.204   6.681  0.6083  0.0219  0.1084
  161SAPE   C2118022   4.875   4.267   6.788 -0.0069  0.4276 -0.6401
  161SAPE   O2218023   4.776   4.338   6.804 -0.1560  0.5120 -0.1426
  161SAPE   C2218024   4.981   4.261   6.901 -0.2241  0.9300  0.0091
  161SAPE   H2R18025   4.992   4.154   6.929 -1.6398  0.7086 -0.2155
  161SAPE   H2S18026   5.071   4.308   6.856  0.8700 -1.9810 -1.1261
  161SAPE    C318027   4.703   4.148   6.568  0.4609 -0.5304 -0.2171
  161SAPE    HX18028   4.673   4.157   6.461  0.4798  1.0134 -0.1159
  161SAPE    HY18029   4.623   4.201   6.624 -0.1360  0.5679 -2.0055
  161SAPE   O3118030   4.717   4.013   6.614 -0.3343  0.0610 -0.6244
  161SAPE   C3118031   4.676   3.993   6.744 -0.5999 -0.1356 -0.7382
  161SAPE   O3218032   4.633   4.077   6.816  0.2483  0.0308  0.0233
  161SAPE   C3218033   4.692   3.846   6.780  0.0944 -0.1123 -0.7443
  161SAPE   H2X18034   4.794   3.810   6.756  0.2395  0.5807 -1.1871
  161SAPE   H2Y18035   4.620   3.785   6.722 -1.7795 -0.4480  1.7723
  161SAPE   C2318036   4.932   4.337   7.020 -0.0161  0.9681  0.3381
  161SAPE   H3R18037   4.843   4.289   7.064  1.8678 -2.1021  1.1391
  161SAPE   H3S18038   4.904   4.438   6.984 -0.5527 -0.5691 -4.2454
  161SAPE   C2418039   5.050   4.342   7.120 -0.2484 -0.1612  0.4429
  161SAPE   H4R18040   5.123   4.403   7.062 -0.9711  1.6720  1.3937
  161SAPE   H4S18041   5.090   4.239   7.131 -0.0023 -0.1224 -0.0339
  161SAPE   C2518042   5.003   4.396   7.252 -0.3110  0.1341  0.2244
  161SAPE   H5R18043   4.979   4.503   7.240  1.3874  0.4426 -0.6395
  161SAPE   C2618044   4.981   4.328   7.371 -0.1146 -0.2169  0.3682
  161SAPE   H6R18045   4.939   4.384   7.456  0.1581  1.5714 -0.6255
  161SAPE   C2718046   5.000   4.181   7.400  0.6774 -0.7156  0.2905
  161SAPE   H7R18047   5.011   4.117   7.309 -2.0803  1.2249 -1.5739
  161SAPE   H7S18048   4.902   4.147   7.439  0.4750  0.7160  1.0760
  161SAPE   C2818049   5.108   4.151   7.494  0.6036  0.9135 -0.2841
  161SAPE   H8R18050   5.210   4.140   7.455  1.7164  1.8255  2.1575
  161SAPE   C2918051   5.086   4.142   7.626 -0.0696 -0.0102  0.5391
  161SAPE   H9R18052   5.178   4.123   7.684  0.5880 -1.9485 -1.0295
  161SAPE  C21018053   4.958   4.156   7.706  0.2774 -0.3248 -0.6839
  161SAPE  H10R18054   4.925   4.051   7.717 -2.2293  0.1452 -2.8016
  161SAPE  H10S18055   4.881   4.203   7.642  1.4859  0.5645 -1.5331
  161SAPE  C21118056   4.977   4.244   7.831  0.4468 -0.5573  0.1218
  161SAPE  H11R18057   5.016   4.345   7.810 -0.5705  0.1364  1.4536
  161SAPE  C21218058   4.953   4.201   7.961  0.1707  0.7061  0.1253
  161SAPE  H12R18059   4.969   4.265   8.050  0.2660 -0.2337  0.7961
  161SAPE  C21318060   4.900   4.064   8.002  1.1536  0.7207 -0.7936
  161SAPE  H13R18061   4.952   4.033   8.095  0.5075 -0.8789 -0.9347
  161SAPE  H13S18062   4.917   3.978   7.934 -2.1635 -1.7757  1.2068
  161SAPE  C21418063   4.755   4.081   8.014  0.8161  0.1790 -0.1110
  161SAPE  H14R18064   4.695   4.067   7.923 -1.0676  4.6844  0.1915
  161SAPE  C21518065   4.692   4.106   8.127  0.7211 -0.2499 -1.0337
  161SAPE  H15R18066   4.582   4.111   8.128  0.6958 -0.1251  1.5245
  161SAPE  C21618067   4.755   4.132   8.260  0.7150  0.4520  0.0872
  161SAPE  H16R18068   4.863   4.156   8.264  1.2842 -1.9132  1.2251
  161SAPE  H16S18069   4.752   4.037   8.319  0.7904  0.3193 -0.1223
  161SAPE  C21718070   4.684   4.248   8.338 -0.7685 -0.6042  0.5697
  161SAPE  H17R18071   4.730   4.241   8.439 -1.3484 -0.4127  0.8530
  161SAPE  H17S18072   4.577   4.223   8.350 -0.5410 -2.1983 -0.5030
  161SAPE  C21818073   4.688   4.394   8.275  0.0151 -0.1949  0.0195
  161SAPE  H18R18074   4.679   4.398   8.164  0.6408  0.0652 -0.0216
  161SAPE  H18S18075   4.796   4.413   8.289  0.0084 -0.0352 -0.1354
  161SAPE  C21918076   4.607   4.501   8.350 -0.4806  0.1363 -0.1071
  161SAPE  H19R18077   4.500   4.494   8.322  0.3990 -0.0167 -3.8909
  161SAPE  H19S18078   4.632   4.606   8.325 -2.3945  0.6948  0.1138
  161SAPE  C22018079   4.628   4.497   8.497 -0.2649  0.4498 -0.0695
  161SAPE  H20R18080   4.582   4.586   8.546  1.5701  0.7608  1.1767
  161SAPE  H20S18081   4.733   4.492   8.531 -0.4192 -2.6565  0.2543
  161SAPE  H20T18082   4.584   4.408   8.546  3.5476 -2.9451 -2.2103
  161SAPE   C3318083   4.648   3.829   6.930  0.2391  0.2756  0.0711
  161SAPE   H3X18084   4.653   3.719   6.949 -1.1211 -0.0923 -1.3844
  161SAPE   H3Y18085   4.547   3.869   6.953  0.3562  1.1364 -0.8489
  161SAPE   C3418086   4.756   3.879   7.023  0.3725  0.0716 -0.1496
  161SAPE   H4X18087   4.762   3.990   7.018 -0.3367  0.0694 -2.1578
  161SAPE   H4Y18088   4.857   3.847   6.991  0.3473 -2.8330  2.2630
  161SAPE   C3518089   4.734   3.842   7.162  0.3613  0.0732  0.0311
  161SAPE   H5X18090   4.702   3.735   7.159 -2.9087  0.9512 -2.3026
  161SAPE   H5Y18091   4.653   3.901   7.209 -0.9738 -0.9383 -0.9109
  161SAPE   C3618092   4.868   3.856   7.238 -0.5234  0.5720  0.1073
  161SAPE   H6X18093   4.938   3.936   7.206  0.5192  0.9380  2.9680
  161SAPE   H6Y18094   4.924   3.762   7.218 -1.3008  0.3809 -1.2998
  161SAPE   C3718095   4.853   3.859   7.395  0.3451 -0.0802 -0.6534
  161SAPE   H7X18096   4.800   3.953   7.421  1.4628 -0.0096  1.6205
  161SAPE   H7Y18097   4.946   3.854   7.454 -1.0398 -1.1967  1.5842
  161SAPE   C3818098   4.776   3.733   7.447 -0.5424  0.1736  0.2695
  161SAPE   H8X18099   4.815   3.641   7.398  0.3601  0.8567 -0.3207
  161SAPE   H8Y18100   4.670   3.734   7.413 -0.0068  1.0621 -1.5208
  161SAPE   C3918101   4.773   3.721   7.600  0.3044 -0.5473  0.1777
  161SAPE   H9X18102   4.872   3.709   7.649  0.1553  2.5948  1.5245
  161SAPE   H9Y18103   4.731   3.621   7.624 -3.0756  0.8735  0.6996
  161SAPE  C31018104   4.687   3.825   7.681 -0.1285 -0.1406  0.1238
  161SAPE  H10X18105   4.585   3.816   7.637 -0.5667  1.2141  0.8111
  161SAPE  H10Y18106   4.734   3.924   7.666  0.3843 -0.4098 -0.0795
  161SAPE  C31118107   4.683   3.791   7.835 -0.1212 -0.5585  0.4568
  161SAPE  H11X18108   4.617   3.871   7.875 -2.7210 -0.2527 -3.8009
  161SAPE  H11Y18109   4.786   3.812   7.869 -0.1349 -1.8015  1.3616
  161SAPE  C31218110   4.624   3.650   7.868 -0.3486 -0.4741 -0.0642
  161SAPE  H12X18111   4.702   3.578   7.834 -0.5436 -0.1438 -1.2398
  161SAPE  H12Y18112   4.536   3.640   7.802  0.7985 -0.3061 -1.6762
  161SAPE  C31318113   4.592   3.634   8.019 -0.2056  0.6602  0.4763
  161SAPE  H13X18114   4.576   3.525   8.038 -0.9982 -0.0988 -3.7022
  161SAPE  H13Y18115   4.505   3.703   8.028 -0.0174  0.9637 -0.0323
  161SAPE  C31418116   4.695   3.674   8.113 -0.7689 -0.3011 -0.4773
  161SAPE  H14X18117   4.669   3.663   8.220 -1.0325  1.1932 -0.3627
  161SAPE  H14Y18118   4.724   3.781   8.099  0.9463 -0.3406  2.1569
  161SAPE  C31518119   4.827   3.588   8.093  0.0580 -0.7916 -0.0844
  161SAPE  H15X18120   4.903   3.626   8.164 -0.7345 -1.5990  1.2330
  161SAPE  H15Y18121   4.865   3.612   7.991  1.2479 -0.2315  0.4716
  161SAPE  C31618122   4.823   3.431   8.110 -0.0717  0.0104 -0.0150
  161SAPE  H16X18123   4.927   3.396   8.092  0.4884  1.0617  1.0528
  161SAPE  H16Y18124   4.753   3.381   8.039  1.5800 -0.0358 -1.6722
  161SAPE  C31718125   4.791   3.390   8.253  0.1554 -0.0245 -0.0206
  161SAPE  H17X18126   4.687   3.392   8.292  0.4043  0.6120  0.6351
  161SAPE  H17Y18127   4.839   3.466   8.320  1.3027  1.5314 -2.4551
  161SAPE  C31818128   4.835   3.249   8.287  0.2237 -0.2926 -0.1945
  161SAPE  H18X18129   4.830   3.225   8.395 -1.8721  2.6404  0.5046
  161SAPE  H18Y18130   4.941   3.234   8.256  2.2871  2.9852  4.1064
  161SAPE  H18Z18131   4.772   3.178   8.230 -0.1584 -0.4212  0.3813
  162SAPE     N18132   3.798   4.557   6.641  0.1201  0.6933 -1.1118
  162SAPE   HN118133   3.896   4.592   6.645  0.8122 -0.9918 -1.9788
  162SAPE   HN218134   3.744   4.556   6.729 -1.1769 -0.7911 -1.8753
  162SAPE   HN318135   3.807   4.455   6.623 -2.2168 -0.1294  1.6538
  162SAPE   C1218136   3.753   4.636   6.523 -0.3426  0.0894 -0.2926
  162SAPE  H12A18137   3.641   4.634   6.524 -0.3438  0.2782  0.0828
  162SAPE  H12B18138   3.781   4.576   6.434 -4.1634 -0.2170 -1.4615
  162SAPE   C1118139   3.829   4.771   6.523 -0.2834 -0.5129 -0.5388
  162SAPE  H11A18140   3.811   4.818   6.622  3.9790 -0.3293  0.3154
  162SAPE  H11B18141   3.780   4.835   6.447  0.0824 -0.5615 -0.8186
  162SAPE     P18142   4.039   4.785   6.378 -0.0640 -0.0451 -0.2241
  162SAPE   O1318143   4.177   4.738   6.403  0.6525  0.3160  0.2650
  162SAPE   O1418144   3.962   4.725   6.269  1.0008 -0.0423 -0.0853
  162SAPE   O1218145   3.974   4.760   6.517  0.0224  0.1984 -0.3469
  162SAPE   O1118146   4.052   4.936   6.363  0.1549  0.0175 -0.4758
  162SAPE    C118147   4.020   5.029   6.471  0.5335 -0.0922  0.0210
  162SAPE    HA18148   3.911   5.027   6.492  0.0532 -1.2015 -2.2434
  162SAPE    HB18149   4.090   5.003   6.553 -0.7718 -1.2698  0.8075
  162SAPE    C218150   4.065   5.175   6.440  0.5727  0.4650 -0.1308
  162SAPE    HS18151   4.013   5.225   6.356 -2.5283 -2.4901 -0.1915
  162SAPE   O2118152   4.212   5.175   6.426  0.8912  0.5468 -0.5324
  162SAPE   C2118153   4.268   5.150   6.311  0.2421  0.3934 -0.7661
  162SAPE   O2218154   4.213   5.137   6.201 -0.0407  0.5892 -0.1165
  162SAPE   C2218155   4.419   5.138   6.333 -0.6863 -0.0544 -0.2946
  162SAPE   H2R18156   4.450   5.157   6.228 -0.8111 -0.9494 -0.4939
  162SAPE   H2S18157   4.451   5.222   6.399  0.4595  0.0694 -0.9773
  162SAPE    C318158   4.019   5.262   6.559 -0.4098 -0.1596 -0.2965
  162SAPE    HX18159   3.910   5.256   6.580 -0.1334 -0.0141  1.2969
  162SAPE    HY18160   4.056   5.366   6.545  0.0346 -0.1757  0.7175
  162SAPE   O3118161   4.079   5.213   6.677 -0.4819  0.0800  0.4974
  162SAPE   C3118162   4.045   5.292   6.781 -0.4648 -0.0155 -0.7891
  162SAPE   O3218163   3.980   5.390   6.775  0.2029 -0.0909  0.5471
  162SAPE   C3218164   4.093   5.240   6.911 -0.3562  0.1207  0.3601
  162SAPE   H2X18165   4.200   5.214   6.895 -0.8498 -1.7662 -0.1239
  162SAPE   H2Y18166   4.031   5.153   6.942  2.5371 -1.5844  1.7858
  162SAPE   C2318167   4.471   5.006   6.393  0.8230 -0.8286  0.1229
  162SAPE   H3R18168   4.581   5.024   6.394  0.7483  0.4210 -2.8718
  162SAPE   H3S18169   4.453   4.916   6.331 -1.1332 -1.5444  1.6128
  162SAPE   C2418170   4.411   4.976   6.532  0.3292 -0.3867  0.9907
  162SAPE   H4R18171   4.310   4.931   6.522  0.0428 -0.3534  3.1633
  162SAPE   H4S18172   4.403   5.070   6.591  0.2695 -0.0824  0.5060
  162SAPE   C2518173   4.511   4.887   6.597  0.0152  0.6919  0.3037
  162SAPE   H5R18174   4.543   4.801   6.538 -1.6715  1.3972 -1.7578
  162SAPE   C2618175   4.538   4.896   6.729  0.3556 -0.0525 -0.1658
  162SAPE   H6R18176   4.614   4.830   6.774  0.0474 -0.4076 -0.1625
  162SAPE   C2718177   4.495   5.006   6.817  0.3912 -0.0997 -0.3626
  162SAPE   H7R18178   4.476   4.969   6.920 -0.3288  1.0178 -0.0781
  162SAPE   H7S18179   4.407   5.063   6.779  2.3464  1.7625 -2.3696
  162SAPE   C2818180   4.602   5.109   6.825 -0.0962  0.6001 -0.3738
  162SAPE   H8R18181   4.671   5.107   6.739 -0.1098  2.5360 -0.4720
  162SAPE   C2918182   4.619   5.191   6.927 -0.4234  0.0823  0.0453
  162SAPE   H9R18183   4.714   5.245   6.920 -0.9826  0.8671 -2.8953
  162SAPE  C21018184   4.527   5.191   7.049 -0.1868  0.2340  0.6851
  162SAPE  H10R18185   4.427   5.147   7.025  0.0764  0.5889 -1.2380
  162SAPE  H10S18186   4.488   5.291   7.076  0.1891  0.4241  0.5140
  162SAPE  C21118187   4.584   5.120   7.165  0.5825  0.7666 -0.7751
  162SAPE  H11R18188   4.603   5.014   7.143  1.4362  0.9952 -1.1792
  162SAPE  C21218189   4.643   5.164   7.274  0.6322  0.4077 -0.0936
  162SAPE  H12R18190   4.673   5.091   7.350 -2.0264  0.0179  0.6653
  162SAPE  C21318191   4.651   5.309   7.311  0.0609  0.1823 -0.1686
  162SAPE  H13R18192   4.552   5.333   7.355  1.3398  1.6123  2.1858
  162SAPE  H13S18193   4.671   5.366   7.217 -0.3242 -1.0241 -1.0027
  162SAPE  C21418194   4.765   5.329   7.412  0.6929  0.1723  0.1237
  162SAPE  H14R18195   4.862   5.296   7.372  1.0594  1.1231  0.2095
  162SAPE  C21518196   4.762   5.390   7.533  0.1230  0.3583 -0.1442
  162SAPE  H15R18197   4.854   5.395   7.592 -1.2864 -1.6343  2.3838
  162SAPE  C21618198   4.639   5.441   7.607  0.1668 -0.1561 -0.4140
  162SAPE  H16R18199   4.550   5.441   7.541 -0.5500 -0.3834  0.5344
  162SAPE  H16S18200   4.653   5.543   7.649 -2.9646  0.4873 -0.6809
  162SAPE  C21718201   4.595   5.359   7.724  0.3410  0.5127 -0.3657
  162SAPE  H17R18202   4.566   5.260   7.686  1.2206  0.2878 -0.4865
  162SAPE  H17S18203   4.506   5.412   7.763 -0.6488 -0.4393 -1.2887
  162SAPE  C21818204   4.706   5.335   7.831  0.2083  0.0521 -0.4960
  162SAPE  H18R18205   4.803   5.300   7.788  0.9884 -1.7328  2.4825
  162SAPE  H18S18206   4.658   5.255   7.891 -0.5036 -1.3895 -2.8650
  162SAPE  C21918207   4.730   5.451   7.933 -0.2696  0.3088  0.7736
  162SAPE  H19R18208   4.633   5.477   7.979 -1.4321 -1.2711 -0.6550
  162SAPE  H19S18209   4.768   5.538   7.875  0.7187 -0.6813 -0.1096
  162SAPE  C22018210   4.839   5.420   8.035  0.0687 -0.0645  0.0722
  162SAPE  H20R18211   4.929   5.375   7.988  1.5163  2.4368  0.2768
  162SAPE  H20S18212   4.796   5.349   8.109  1.8096 -0.6113  0.6074
  162SAPE  H20T18213   4.866   5.516   8.084 -1.5768  1.1844 -1.3268
  162SAPE   C3318214   4.096   5.344   7.024  0.0198 -0.2385 -0.0253
  162SAPE   H3X18215   3.991   5.373   7.048  0.6493 -0.0015  2.7240
  162SAPE   H3Y18216   4.153   5.434   6.994  1.0385 -0.7913  0.2044
  162SAPE   C3418217   4.156   5.289   7.149 -0.5455 -0.0453  0.1833
  162SAPE   H4X18218   4.264   5.269   7.135 -0.6273  0.4094 -1.2698
  162SAPE   H4Y18219   4.107   5.196   7.185  3.0823 -1.1615  2.8555
  162SAPE   C3518220   4.147   5.383   7.271  0.3366 -0.1678 -0.0676
  162SAPE   H5X18221   4.038   5.395   7.290 -0.0584 -2.9548 -0.0912
  162SAPE   H5Y18222   4.182   5.484   7.242 -1.9177  0.5665 -0.3997
  162SAPE   C3618223   4.211   5.335   7.401 -0.7720  0.2543  0.3795
  162SAPE   H6X18224   4.321   5.330   7.385 -0.8827  1.4562 -0.9012
  162SAPE   H6Y18225   4.171   5.234   7.425  0.6499 -0.3915  0.1946
  162SAPE   C3718226   4.167   5.408   7.525 -0.4851 -0.6852 -0.5609
  162SAPE   H7X18227   4.063   5.378   7.549 -1.1023  1.2800 -0.5928
  162SAPE   H7Y18228   4.178   5.518   7.516  0.9895 -0.8445 -0.9331
  162SAPE   C3818229   4.237   5.367   7.657 -0.6219  0.5707 -0.2535
  162SAPE   H8X18230   4.345   5.383   7.637 -0.2783 -1.6598 -0.4141
  162SAPE   H8Y18231   4.218   5.258   7.667 -0.2163  0.2002 -2.7784
  162SAPE   C3918232   4.215   5.455   7.783 -0.2643  0.6609  1.3436
  162SAPE   H9X18233   4.262   5.430   7.880 -0.2898  2.5242  1.8726
  162SAPE   H9Y18234   4.108   5.452   7.813 -0.2348 -1.1248  1.3973
  162SAPE  C31018235   4.253   5.599   7.752  0.0069 -0.3719 -0.0183
  162SAPE  H10X18236   4.179   5.634   7.677 -0.1025  1.8372  1.0427
  162SAPE  H10Y18237   4.357   5.607   7.713 -0.5501  1.0710 -1.2762
  162SAPE  C31118238   4.244   5.688   7.872  0.2420 -0.0638 -0.0928
  162SAPE  H11X18239   4.256   5.791   7.833  0.0892 -0.2408 -0.6045
  162SAPE  H11Y18240   4.330   5.682   7.942 -0.0362 -1.6686  0.1682
  162SAPE  C31218241   4.112   5.663   7.949 -0.0482  0.0348 -0.2767
  162SAPE  H12X18242   4.129   5.563   7.996  1.6268 -1.1575 -3.1500
  162SAPE  H12Y18243   4.023   5.652   7.884 -1.2402  2.6688  0.8016
  162SAPE  C31318244   4.090   5.773   8.052  0.8145  0.7672  0.7127
  162SAPE  H13X18245   4.075   5.859   7.984  0.8114  0.9378  0.9290
  162SAPE  H13Y18246   4.176   5.789   8.120  1.3194  0.1938  0.2306
  162SAPE  C31418247   3.954   5.759   8.120 -0.4750  0.8207 -0.3968
  162SAPE  H14X18248   3.961   5.685   8.202  0.4251  0.7190 -0.5631
  162SAPE  H14Y18249   3.879   5.709   8.054 -1.1622 -0.0875  1.0222
  162SAPE  C31518250   3.885   5.886   8.171 -0.1650 -0.6883  0.2924
  162SAPE  H15X18251   3.843   5.941   8.084  0.4153  0.0717  0.4706
  162SAPE  H15Y18252   3.959   5.934   8.240 -0.0754 -1.5339  0.7971
  162SAPE  C31618253   3.764   5.840   8.261 -0.1790  0.1475  0.2796
  162SAPE  H16X18254   3.794   5.774   8.345  3.0437  0.0246 -0.8350
  162SAPE  H16Y18255   3.693   5.782   8.198  1.4968 -2.2229  0.4397
  162SAPE  C31718256   3.688   5.962   8.322 -0.0885 -0.7568  0.7799
  162SAPE  H17X18257   3.758   6.009   8.394  0.4170 -0.1939 -0.0609
  162SAPE  H17Y18258   3.594   5.942   8.379 -1.7368 -1.1307 -1.8865
  162SAPE  C31818259   3.648   6.060   8.216  1.0233 -0.5664  0.0892
  162SAPE  H18X18260   3.729   6.125   8.177 -0.3164 -1.0481 -4.0200
  162SAPE  H18Y18261   3.562   6.123   8.249  1.7209  0.4434  0.0173
  162SAPE  H18Z18262   3.610   6.010   8.124 -0.9656  2.4802 -0.8961
  163SAPE     N18263   2.788   3.890   6.427 -0.3429  0.1014  0.5317
  163SAPE   HN118264   2.837   3.799   6.435  0.5359  0.6749  2.1868
  163SAPE   HN218265   2.867   3.957   6.429 -0.7721  0.6060  0.8050
  163SAPE   HN318266   2.739   3.911   6.516 -1.4013 -0.0067 -0.0027
  163SAPE   C1218267   2.689   3.903   6.314  1.1655  1.1094  0.2583
  163SAPE  H12A18268   2.609   3.826   6.328 -0.5590  2.4960 -1.4167
  163SAPE  H12B18269   2.729   3.888   6.211  1.6554  3.5236  0.0522
  163SAPE   C1118270   2.618   4.038   6.320 -0.9023  1.2929  0.3633
  163SAPE  H11A18271   2.531   4.028   6.252 -1.2283  2.6761  0.5519
  163SAPE  H11B18272   2.693   4.115   6.294 -1.2593  1.9775  1.2916
  163SAPE     P18273   2.517   4.212   6.484  0.0957 -0.2267 -0.0282
  163SAPE   O1318274   2.618   4.293   6.549  0.0957 -0.0807 -0.0718
  163SAPE   O1418275   2.449   4.273   6.370  0.1528 -0.3612  0.4542
  163SAPE   O1218276   2.580   4.068   6.450  0.2769  0.8996 -0.6921
  163SAPE   O1118277   2.406   4.184   6.584  0.0413  0.2607 -0.2202
  163SAPE    C118278   2.444   4.127   6.712  0.0846  0.3249 -0.5685
  163SAPE    HA18279   2.457   4.016   6.710 -1.6552  0.1050 -1.4986
  163SAPE    HB18280   2.530   4.176   6.762  1.1985 -1.1747 -0.9380
  163SAPE    C218281   2.333   4.165   6.816  0.3840 -0.2199  0.9170
  163SAPE    HS18282   2.238   4.123   6.777  0.8166  0.9375 -1.6269
  163SAPE   O2118283   2.333   4.306   6.820  0.4720  0.2195  0.1054
  163SAPE   C2118284   2.225   4.386   6.812  0.4935  0.4436 -0.3876
  163SAPE   O2218285   2.114   4.355   6.782 -0.6850 -0.6685 -0.0003
  163SAPE   C2218286   2.269   4.523   6.873  0.5462  0.0635  0.0396
  163SAPE   H2R18287   2.332   4.490   6.958 -0.0599 -0.5435  0.2611
  163SAPE   H2S18288   2.336   4.576   6.802  0.5016  1.0224  0.6972
  163SAPE    C318289   2.359   4.122   6.957 -0.1750  0.6221 -0.8288
  163SAPE    HX18290   2.300   4.180   7.031  0.6874 -0.4469  0.7536
  163SAPE    HY18291   2.465   4.151   6.972 -0.2439 -0.0189  1.2116
  163SAPE   O3118292   2.330   3.981   6.977  0.4129  0.4004 -0.7662
  163SAPE   C3118293   2.209   3.955   7.009  0.0179  1.1744 -0.2846
  163SAPE   O3218294   2.123   4.037   7.043 -1.1047  0.0332  0.4309
  163SAPE   C3218295   2.173   3.802   6.991  0.3962  0.3651  0.0324
  163SAPE   H2X18296   2.243   3.765   6.912  0.8634 -2.1470  1.4986
  163SAPE   H2Y18297   2.068   3.807   6.957  0.5634  0.1045 -0.5431
  163SAPE   C2318298   2.143   4.606   6.907  0.1487 -0.9249 -0.2631
  163SAPE   H3R18299   2.070   4.620   6.824  0.2397 -1.6324 -0.4710
  163SAPE   H3S18300   2.179   4.708   6.932  2.8272 -1.8236 -0.0750
  163SAPE   C2418301   2.056   4.559   7.027 -0.0488  0.0648  0.0626
  163SAPE   H4R18302   2.001   4.463   7.011 -1.0767  0.1674  2.5351
  163SAPE   H4S18303   1.977   4.636   7.038 -0.4984  0.0886 -2.6810
  163SAPE   C2518304   2.138   4.537   7.155 -0.6161  0.0486 -0.2378
  163SAPE   H5R18305   2.214   4.457   7.151  0.1628  0.7032  0.8175
  163SAPE   C2618306   2.146   4.615   7.267  0.0301 -0.4863 -0.1508
  163SAPE   H6R18307   2.201   4.578   7.354 -0.6766  1.2536  1.0981
  163SAPE   C2718308   2.061   4.740   7.290 -0.1090  0.4573  0.7332
  163SAPE   H7R18309   1.986   4.708   7.366  0.5056 -0.9535  0.7645
  163SAPE   H7S18310   2.004   4.781   7.204 -0.2457  1.3053  1.2169
  163SAPE   C2818311   2.141   4.853   7.343  0.9835  0.0604 -0.9957
  163SAPE   H8R18312   2.158   4.914   7.253 -2.3206  0.1030 -1.7240
  163SAPE   C2918313   2.194   4.880   7.459  0.0492  0.2485 -0.1842
  163SAPE   H9R18314   2.258   4.968   7.472  2.9592 -1.7497 -0.0280
  163SAPE  C21018315   2.183   4.800   7.585 -0.1740 -0.5381  0.1290
  163SAPE  H10R18316   2.120   4.709   7.579 -1.9422  0.5068  1.8681
  163SAPE  H10S18317   2.126   4.858   7.660 -0.0488  0.7572 -0.7357
  163SAPE  C21118318   2.326   4.753   7.626  0.1920  0.2449 -0.6723
  163SAPE  H11R18319   2.386   4.707   7.547 -2.2354 -1.4111 -1.6726
  163SAPE  C21218320   2.366   4.740   7.754 -0.8819 -0.5278 -0.4567
  163SAPE  H12R18321   2.466   4.698   7.776 -0.3398  1.3182  0.8545
  163SAPE  C21318322   2.295   4.789   7.883  0.2045 -0.2692 -0.1612
  163SAPE  H13R18323   2.201   4.733   7.900 -0.1246  0.0280 -0.9468
  163SAPE  H13S18324   2.255   4.892   7.871 -0.0113  0.0972  2.9398
  163SAPE  C21418325   2.389   4.797   7.999 -0.4360  0.0424 -0.2223
  163SAPE  H14R18326   2.483   4.852   7.983  0.0802 -1.0858 -1.1923
  163SAPE  C21518327   2.368   4.755   8.125 -0.0240 -0.0184  0.1373
  163SAPE  H15R18328   2.434   4.765   8.212 -2.2752  0.5919  1.8909
  163SAPE  C21618329   2.242   4.689   8.168  0.1876  0.4284 -0.5217
  163SAPE  H16R18330   2.263   4.581   8.185 -0.1087  0.6373  1.3821
  163SAPE  H16S18331   2.153   4.690   8.101 -1.2962 -4.0796  1.0536
  163SAPE  C21718332   2.183   4.736   8.304 -0.4086  0.3367 -0.3533
  163SAPE  H17R18333   2.263   4.712   8.377  2.3222  1.2166 -2.8566
  163SAPE  H17S18334   2.101   4.664   8.323 -2.1303  2.7550  2.3097
  163SAPE  C21818335   2.146   4.877   8.320  0.0358 -0.5317  0.6935
  163SAPE  H18R18336   2.191   4.941   8.242 -2.0722 -1.7831 -1.6866
  163SAPE  H18S18337   2.180   4.918   8.418 -2.0466 -0.3333  1.3972
  163SAPE  C21918338   1.997   4.909   8.328 -0.4684 -0.2573  0.5439
  163SAPE  H19R18339   1.948   4.842   8.402 -1.4866 -0.8142 -0.5959
  163SAPE  H19S18340   1.947   4.886   8.232  1.4368  0.5408 -0.7098
  163SAPE  C22018341   1.972   5.059   8.367 -0.3246  0.4776  0.8005
  163SAPE  H20R18342   2.044   5.088   8.447  1.4313 -1.0679 -0.1298
  163SAPE  H20S18343   1.863   5.076   8.382 -0.7166  0.5519 -1.7809
  163SAPE  H20T18344   1.998   5.126   8.283  0.3399  0.9401  1.3655
  163SAPE   C3318345   2.174   3.727   7.124 -0.3432 -0.0625  0.4217
  163SAPE   H3X18346   2.127   3.627   7.110  1.5642 -0.8635 -0.5720
  163SAPE   H3Y18347   2.127   3.773   7.213  2.0537 -2.2040  2.9931
  163SAPE   C3418348   2.319   3.699   7.154  0.2148  0.1186 -1.1128
  163SAPE   H4X18349   2.371   3.788   7.194  1.7213 -0.8795 -0.7911
  163SAPE   H4Y18350   2.376   3.657   7.068  0.3607 -1.6696 -0.1836
  163SAPE   C3518351   2.327   3.589   7.273  0.1586  0.4235  0.2536
  163SAPE   H5X18352   2.434   3.567   7.292  0.2820  1.1768  0.4868
  163SAPE   H5Y18353   2.262   3.502   7.251 -0.8089  1.2404 -0.2507
  163SAPE   C3618354   2.277   3.641   7.413  0.5756 -0.6942 -0.0334
  163SAPE   H6X18355   2.167   3.627   7.408  0.5898 -0.7873 -0.1096
  163SAPE   H6Y18356   2.299   3.747   7.436  3.2470 -1.4521  1.3695
  163SAPE   C3718357   2.332   3.564   7.530  0.4436  0.0201 -1.2488
  163SAPE   H7X18358   2.439   3.565   7.558 -0.0827 -0.4956  0.9806
  163SAPE   H7Y18359   2.308   3.457   7.512 -1.5131  0.2390 -0.1659
  163SAPE   C3818360   2.253   3.618   7.649 -0.1975  0.3271 -0.4597
  163SAPE   H8X18361   2.147   3.595   7.627 -0.0574  0.5294 -1.3778
  163SAPE   H8Y18362   2.263   3.728   7.645 -1.0493  0.5219  1.4209
  163SAPE   C3918363   2.292   3.558   7.781 -0.1749 -0.2713 -0.2452
  163SAPE   H9X18364   2.399   3.566   7.807 -0.2787  0.6434 -0.0455
  163SAPE   H9Y18365   2.241   3.460   7.781 -0.4054 -0.1562 -0.7835
  163SAPE  C31018366   2.221   3.643   7.897 -0.4913 -0.2525 -0.5236
  163SAPE  H10X18367   2.228   3.747   7.860  1.1178 -0.2413 -0.2759
  163SAPE  H10Y18368   2.278   3.641   7.992  0.7341  2.0925 -1.1285
  163SAPE  C31118369   2.076   3.607   7.910 -0.1741  0.7633 -0.1033
  163SAPE  H11X18370   2.069   3.499   7.935 -0.4702  0.3719 -1.7261
  163SAPE  H11Y18371   2.020   3.622   7.815  1.6109  0.7192 -1.1911
  163SAPE  C31218372   2.008   3.701   8.013  0.6750 -0.7399 -0.6433
  163SAPE  H12X18373   2.035   3.804   7.982 -1.8192  0.3459  0.4581
  163SAPE  H12Y18374   2.054   3.693   8.114  1.8553 -2.8930 -1.2940
  163SAPE  C31318375   1.857   3.677   8.026  0.2158  0.4622 -0.0563
  163SAPE  H13X18376   1.826   3.764   8.088 -0.1585 -0.3180  0.8697
  163SAPE  H13Y18377   1.826   3.588   8.084 -0.4757  1.2237  0.7737
  163SAPE  C31418378   1.780   3.669   7.891  0.3649  0.0042 -0.2231
  163SAPE  H14X18379   1.811   3.579   7.833 -0.4586 -0.0630 -0.5672
  163SAPE  H14Y18380   1.817   3.753   7.829 -0.1292 -0.6165 -1.3886
  163SAPE  C31518381   1.627   3.684   7.893 -0.2722  0.6504  0.3822
  163SAPE  H15X18382   1.595   3.774   7.949 -0.7315 -0.2877  1.6725
  163SAPE  H15Y18383   1.576   3.601   7.946  1.1809 -0.7846 -0.3561
  163SAPE  C31618384   1.573   3.715   7.753 -0.6193  0.5461  0.4469
  163SAPE  H16X18385   1.639   3.793   7.708 -1.1082  0.1756 -0.9663
  163SAPE  H16Y18386   1.467   3.748   7.763 -0.7076  1.3750 -2.2480
  163SAPE  C31718387   1.562   3.580   7.668 -0.1339  0.1556  0.4560
  163SAPE  H17X18388   1.505   3.505   7.728 -1.4439  0.1280 -0.7767
  163SAPE  H17Y18389   1.668   3.547   7.670 -0.1228  0.1602  0.0236
  163SAPE  C31818390   1.510   3.582   7.526  0.2102 -0.0341  0.8052
  163SAPE  H18X18391   1.405   3.617   7.517  0.8917  1.9445  0.1211
  163SAPE  H18Y18392   1.518   3.476   7.492 -0.7895 -0.2428  1.1750
  163SAPE  H18Z18393   1.571   3.649   7.462 -1.6116  1.5300  0.6374
  164SAPE     N18394   4.634   0.283   5.885 -0.2281 -0.8952  0.3407
  164SAPE   HN118395   4.552   0.237   5.929  0.2293  0.2559  2.5182
  164SAPE   HN218396   4.600   0.360   5.824  2.5897  1.1474  1.1713
  164SAPE   HN318397   4.695   0.213   5.837  0.6642 -0.7209  1.1830
  164SAPE   C1218398   4.701   0.370   5.986  0.2394 -0.5856 -0.4281
  164SAPE  H12A18399   4.799   0.401   5.945 -0.2811  1.4064 -0.2707
  164SAPE  H12B18400   4.713   0.309   6.078 -0.0290  0.0064  0.0057
  164SAPE   C1118401   4.623   0.495   6.021  0.0305  0.1774  0.2185
  164SAPE  H11A18402   4.640   0.545   6.119 -1.8192  1.1582  0.0771
  164SAPE  H11B18403   4.516   0.466   6.028  0.0934  0.1248  1.0687
  164SAPE     P18404   4.568   0.736   5.926  0.1909  0.4804  0.2427
  164SAPE   O1318405   4.606   0.822   5.812  0.1313  0.3937  0.4021
  164SAPE   O1418406   4.423   0.712   5.943  0.1349  0.0666 -1.0601
  164SAPE   O1218407   4.633   0.590   5.920 -0.0395 -0.0052  0.2823
  164SAPE   O1118408   4.637   0.799   6.052 -0.3242 -0.0002  0.2859
  164SAPE    C118409   4.780   0.832   6.038 -0.3589 -0.2051  0.3364
  164SAPE    HA18410   4.842   0.741   6.023 -0.2080 -0.0636  0.0948
  164SAPE    HB18411   4.805   0.905   5.958  0.8848 -0.6877  0.2515
  164SAPE    C218412   4.829   0.904   6.173 -0.3093  0.3863  0.3434
  164SAPE    HS18413   4.939   0.921   6.170 -0.1391 -0.6696 -1.9103
  164SAPE   O2118414   4.792   0.825   6.287 -0.6002  0.1920 -0.6480
  164SAPE   C2118415   4.866   0.721   6.300  0.1997 -0.1290  0.5737
  164SAPE   O2218416   4.961   0.689   6.236 -0.3623  0.0327  0.4436
  164SAPE   C2218417   4.803   0.634   6.407  0.0385 -0.6075  0.3279
  164SAPE   H2R18418   4.698   0.667   6.422  0.1253 -0.7224  1.2867
  164SAPE   H2S18419   4.800   0.528   6.374  0.0038 -0.8865  1.2003
  164SAPE    C318420   4.749   1.039   6.180  0.1876  0.0416  0.0736
  164SAPE    HX18421   4.645   1.009   6.156  0.2792  0.5720 -1.0149
  164SAPE    HY18422   4.785   1.109   6.102 -3.4681  1.9039 -0.1059
  164SAPE   O3118423   4.764   1.092   6.317 -0.3777 -0.0966  0.1158
  164SAPE   C3118424   4.657   1.100   6.392  0.2399  0.2331 -0.2156
  164SAPE   O3218425   4.543   1.067   6.361 -0.3746 -0.0971  0.0077
  164SAPE   C3218426   4.686   1.164   6.530 -0.1444 -0.4416 -0.4179
  164SAPE   H2X18427   4.698   1.274   6.514 -0.4529  0.1468  2.6758
  164SAPE   H2Y18428   4.782   1.117   6.561  0.1196 -0.5403 -1.3514
  164SAPE   C2318429   4.864   0.658   6.552 -0.5461 -0.5530 -0.0969
  164SAPE   H3R18430   4.881   0.767   6.563 -0.7922 -0.6148  0.9733
  164SAPE   H3S18431   4.964   0.609   6.546  2.1691  4.2654  1.0255
  164SAPE   C2418432   4.793   0.572   6.662  0.0781 -0.0521 -0.4510
  164SAPE   H4R18433   4.862   0.561   6.749 -1.6253 -3.0074  0.6384
  164SAPE   H4S18434   4.784   0.469   6.622 -3.2563  0.1855 -0.5917
  164SAPE   C2518435   4.662   0.627   6.705 -0.2431  0.0479 -0.4638
  164SAPE   H5R18436   4.572   0.583   6.658 -2.0205 -0.1856  2.8304
  164SAPE   C2618437   4.638   0.716   6.797 -0.5799 -0.3308 -0.8050
  164SAPE   H6R18438   4.537   0.743   6.830 -1.0819 -0.1172 -2.4369
  164SAPE   C2718439   4.747   0.789   6.871 -0.2459 -0.2648  0.1920
  164SAPE   H7R18440   4.723   0.896   6.883  1.8319  0.2429  0.2901
  164SAPE   H7S18441   4.836   0.805   6.805 -2.6447  0.3088 -3.1747
  164SAPE   C2818442   4.773   0.725   7.003 -0.0966 -0.1331  0.0318
  164SAPE   H8R18443   4.746   0.618   7.003 -1.9221  0.2907 -0.5041
  164SAPE   C2918444   4.793   0.773   7.126 -0.5288  0.3188 -0.3587
  164SAPE   H9R18445   4.798   0.696   7.205  0.6330  0.0635 -0.6534
  164SAPE  C21018446   4.818   0.912   7.174  1.2074 -0.3560 -0.2872
  164SAPE  H10R18447   4.845   0.977   7.087  1.1504 -0.5755 -0.4684
  164SAPE  H10S18448   4.913   0.909   7.232 -0.4108 -0.0061  2.5229
  164SAPE  C21118449   4.714   0.988   7.263  0.1900 -0.1753  0.3663
  164SAPE  H11R18450   4.692   1.080   7.208  0.1392 -0.7080 -0.5280
  164SAPE  C21218451   4.659   0.952   7.379 -0.6763  0.2168  0.9155
  164SAPE  H12R18452   4.597   1.035   7.418 -1.3755  0.1966 -0.1222
  164SAPE  C21318453   4.685   0.830   7.468 -0.4902 -0.3523 -0.0422
  164SAPE  H13R18454   4.681   0.731   7.416 -1.6252  0.8124 -2.3212
  164SAPE  H13S18455   4.604   0.828   7.544 -0.8596 -1.1995 -0.4437
  164SAPE  C21418456   4.816   0.845   7.539 -0.3476  0.2644 -0.4565
  164SAPE  H14R18457   4.909   0.837   7.481  0.5495 -3.3538  1.2015
  164SAPE  C21518458   4.825   0.855   7.669 -0.0596  0.2817  0.1614
  164SAPE  H15R18459   4.922   0.869   7.721 -0.7849  0.1745  1.6079
  164SAPE  C21618460   4.728   0.871   7.778 -0.3808 -0.0198  1.1219
  164SAPE  H16R18461   4.632   0.839   7.733  0.9385 -1.9897 -0.4302
  164SAPE  H16S18462   4.702   0.975   7.809 -5.6318 -1.2150  1.7070
  164SAPE  C21718463   4.740   0.765   7.894 -0.0618  0.3826 -1.0939
  164SAPE  H17R18464   4.741   0.660   7.858  2.6376  0.0239 -0.2072
  164SAPE  H17S18465   4.663   0.802   7.965  0.8144  0.8265 -0.3524
  164SAPE  C21818466   4.873   0.782   7.974  0.2927  0.8126 -0.2968
  164SAPE  H18R18467   4.868   0.876   8.033  0.5505  0.4710  0.2752
  164SAPE  H18S18468   4.956   0.794   7.901  1.3448  0.1559  0.7736
  164SAPE  C21918469   4.900   0.653   8.059  0.7087  0.5501  0.2480
  164SAPE  H19R18470   4.889   0.573   7.983 -1.5753  0.7604  0.2728
  164SAPE  H19S18471   4.829   0.648   8.145  1.4241  0.8201  0.8650
  164SAPE  C22018472   5.048   0.646   8.118  0.9110  0.0880  0.9005
  164SAPE  H20R18473   5.053   0.737   8.183 -0.1900  1.3255 -0.6509
  164SAPE  H20S18474   5.123   0.652   8.037 -0.6263 -3.0225 -0.9196
  164SAPE  H20T18475   5.059   0.553   8.177  0.0863 -0.1570  0.6909
  164SAPE   C3318476   4.577   1.131   6.642 -0.5825 -1.1673  0.6370
  164SAPE   H3X18477   4.545   1.025   6.644  1.3476 -1.7891  1.1194
  164SAPE   H3Y18478   4.491   1.199   6.627  0.6541  0.3872  0.2080
  164SAPE   C3418479   4.642   1.144   6.776 -0.3956 -0.4838 -0.3516
  164SAPE   H4X18480   4.736   1.085   6.778 -0.8157 -1.1646 -0.0907
  164SAPE   H4Y18481   4.579   1.099   6.856 -0.5418  0.8600  0.3263
  164SAPE   C3518482   4.686   1.283   6.817 -0.6168  0.3170  0.5715
  164SAPE   H5X18483   4.591   1.340   6.812 -0.0904  1.1220 -1.4266
  164SAPE   H5Y18484   4.758   1.328   6.745 -1.5089  3.4683  1.5333
  164SAPE   C3618485   4.763   1.300   6.950 -0.6123 -0.3979  0.5522
  164SAPE   H6X18486   4.857   1.356   6.931 -0.6693 -0.0734  1.2010
  164SAPE   H6Y18487   4.781   1.201   6.997 -1.4193  0.0995  1.9801
  164SAPE   C3718488   4.695   1.389   7.052 -0.3128  0.6931 -0.2747
  164SAPE   H7X18489   4.611   1.331   7.098 -0.1510 -0.1099 -0.9677
  164SAPE   H7Y18490   4.656   1.480   7.002 -2.0949 -0.5520 -1.2569
  164SAPE   C3818491   4.796   1.435   7.165 -0.6733  0.7677  0.7928
  164SAPE   H8X18492   4.742   1.524   7.203 -1.7641  0.0507  0.9702
  164SAPE   H8Y18493   4.890   1.471   7.117 -0.4454  1.4119  1.7025
  164SAPE   C3918494   4.803   1.330   7.277  0.2131  0.5883 -0.0450
  164SAPE   H9X18495   4.867   1.242   7.252  0.2889 -0.0512  2.1735
  164SAPE   H9Y18496   4.696   1.300   7.283  0.4537 -0.1991  0.5774
  164SAPE  C31018497   4.835   1.391   7.410  0.1577 -0.3623 -0.6171
  164SAPE  H10X18498   4.765   1.475   7.428  1.5790  0.5452  0.9574
  164SAPE  H10Y18499   4.938   1.433   7.402  0.5073 -1.0349  0.1910
  164SAPE  C31118500   4.833   1.290   7.525 -0.5520  0.2818  0.0656
  164SAPE  H11X18501   4.904   1.209   7.499  0.8229  1.4412  0.0585
  164SAPE  H11Y18502   4.731   1.248   7.533 -1.1334  1.8549  1.5764
  164SAPE  C31218503   4.864   1.345   7.668  0.1187  0.1434  0.4362
  164SAPE  H12X18504   4.802   1.433   7.693  0.2512  1.9444 -4.4631
  164SAPE  H12Y18505   4.972   1.372   7.656 -0.2700  0.6153 -3.1240
  164SAPE  C31318506   4.851   1.229   7.769 -1.0377  0.2987 -0.3480
  164SAPE  H13X18507   4.919   1.147   7.736 -0.0270  1.0003 -0.0727
  164SAPE  H13Y18508   4.748   1.190   7.783 -0.5105 -0.7842  0.6399
  164SAPE  C31418509   4.905   1.287   7.902  0.4753 -0.0367 -0.0644
  164SAPE  H14X18510   4.839   1.374   7.923 -1.1227 -1.2894  0.2427
  164SAPE  H14Y18511   5.009   1.320   7.880 -0.3684  2.1934 -0.9677
  164SAPE  C31518512   4.894   1.180   8.012  0.2689  0.1847 -0.0366
  164SAPE  H15X18513   4.973   1.105   7.992 -0.3611 -0.6624  0.5966
  164SAPE  H15Y18514   4.795   1.132   8.000  1.3457 -2.3818  0.7276
  164SAPE  C31618515   4.919   1.239   8.152 -0.0133 -0.4844 -0.2478
  164SAPE  H16X18516   4.839   1.301   8.198  0.8779 -0.7047  1.6792
  164SAPE  H16Y18517   5.012   1.300   8.146 -0.4799  0.2364 -0.2528
  164SAPE  C31718518   4.947   1.134   8.263  0.0733  1.0568 -0.3561
  164SAPE  H17X18519   4.987   1.180   8.356  0.6711  0.4185 -0.2851
  164SAPE  H17Y18520   5.028   1.064   8.231  0.0054  0.4276  0.8014
  164SAPE  C31818521   4.817   1.052   8.296 -0.3257  0.0421 -0.4978
  164SAPE  H18X18522   4.830   0.955   8.348  1.3458 -1.4012 -3.3183
  164SAPE  H18Y18523   4.790   1.017   8.193  0.9526 -0.2298 -0.7598
  164SAPE  H18Z18524   4.737   1.112   8.343  0.0151  2.2124 -2.5010
  165SAPE     N18525   5.463   4.009   6.462 -0.1831 -0.1809  0.1001
  165SAPE   HN118526   5.402   4.007   6.546 -0.3570  2.4131  0.1107
  165SAPE   HN218527   5.425   4.081   6.397 -1.3281  0.5944  1.5695
  165SAPE   HN318528   5.461   3.916   6.416 -2.8914  0.9338 -2.3424
  165SAPE   C1218529   5.611   4.037   6.498  0.6591 -0.5325 -0.3111
  165SAPE  H12A18530   5.649   3.955   6.562  0.5377  1.1220  1.9879
  165SAPE  H12B18531   5.604   4.133   6.553 -0.4067 -0.2691 -0.8754
  165SAPE   C1118532   5.706   4.055   6.372  0.4386 -0.2465  0.0632
  165SAPE  H11A18533   5.812   4.029   6.393 -0.1454 -4.8651 -1.5055
  165SAPE  H11B18534   5.697   4.163   6.350  0.7821  0.1729  1.7888
  165SAPE     P18535   5.720   3.822   6.258  0.3797  0.2969 -0.0062
  165SAPE   O1318536   5.618   3.735   6.191  0.4239 -0.1393 -0.1662
  165SAPE   O1418537   5.848   3.828   6.186 -0.0530 -0.3216 -0.1883
  165SAPE   O1218538   5.664   3.968   6.259  0.2940  0.0260 -0.0130
  165SAPE   O1118539   5.744   3.772   6.402  0.5601 -0.2752  0.0101
  165SAPE    C118540   5.818   3.654   6.431  0.0382 -0.0003  0.0317
  165SAPE    HA18541   5.772   3.564   6.384  0.4664  0.2940 -0.9823
  165SAPE    HB18542   5.923   3.664   6.398  0.3901  0.7742  1.2960
  165SAPE    C218543   5.823   3.619   6.583 -0.4578 -0.1732 -0.0938
  165SAPE    HS18544   5.888   3.530   6.599  0.7957  0.4599 -1.4141
  165SAPE   O2118545   5.695   3.606   6.633  0.1632  0.0357 -0.4444
  165SAPE   C2118546   5.643   3.486   6.651  0.5874 -0.3194 -0.2619
  165SAPE   O2218547   5.692   3.379   6.614  0.1820 -0.3764  0.4148
  165SAPE   C2218548   5.521   3.499   6.742 -0.3265 -0.7084  0.8165
  165SAPE   H2R18549   5.548   3.545   6.839  0.3995 -0.1805  0.3708
  165SAPE   H2S18550   5.448   3.567   6.693  1.8542  0.1644 -1.3642
  165SAPE    C318551   5.891   3.746   6.652 -0.0353  0.8223  0.5199
  165SAPE    HX18552   5.818   3.825   6.627 -0.2537 -0.3875 -3.1602
  165SAPE    HY18553   5.988   3.769   6.604 -0.0469 -0.3906 -0.1067
  165SAPE   O3118554   5.897   3.734   6.795 -0.1295 -0.5371  0.1631
  165SAPE   C3118555   5.988   3.650   6.840 -1.4773 -0.2793  0.0024
  165SAPE   O3218556   6.072   3.590   6.773 -0.0637 -0.3669  0.4290
  165SAPE   C3218557   5.968   3.632   6.994  0.4777  0.4611  0.2480
  165SAPE   H2X18558   5.859   3.640   7.015  0.3924  0.0038 -0.0029
  165SAPE   H2Y18559   6.016   3.715   7.051  0.7506 -1.1722  2.5136
  165SAPE   C2318560   5.447   3.366   6.756 -0.2737 -0.3937  0.5430
  165SAPE   H3R18561   5.479   3.280   6.693  2.3812 -0.3368  1.6969
  165SAPE   H3S18562   5.340   3.371   6.727  0.1487  1.5549 -0.8581
  165SAPE   C2418563   5.444   3.319   6.901 -0.3375  0.2633  0.0194
  165SAPE   H4R18564   5.548   3.303   6.936  0.4785  1.1342 -1.8412
  165SAPE   H4S18565   5.405   3.216   6.915  1.9186 -0.5146  0.9423
  165SAPE   C2518566   5.375   3.407   6.993  0.3870 -0.6743 -0.3492
  165SAPE   H5R18567   5.301   3.475   6.948 -0.8978 -1.2213  0.8537
  165SAPE   C2618568   5.393   3.415   7.132  0.5408  0.7119 -0.4048
  165SAPE   H6R18569   5.320   3.468   7.194  0.1462 -1.7818  1.4350
  165SAPE   C2718570   5.475   3.327   7.218 -0.6270 -0.5025  0.0153
  165SAPE   H7R18571   5.509   3.240   7.157 -1.1716  1.2706 -3.0401
  165SAPE   H7S18572   5.424   3.284   7.307 -0.2084 -0.9642  0.0362
  165SAPE   C2818573   5.603   3.397   7.258  0.1466  0.8351 -0.1424
  165SAPE   H8R18574   5.671   3.417   7.174 -1.8579 -0.9931 -2.3534
  165SAPE   C2918575   5.660   3.392   7.380  0.9035  0.2313  0.5254
  165SAPE   H9R18576   5.759   3.441   7.384  1.2737 -0.4983  0.4393
  165SAPE  C21018577   5.608   3.320   7.499  0.3285 -0.0554  0.0563
  165SAPE  H10R18578   5.680   3.317   7.583 -0.2922 -0.5873  0.5823
  165SAPE  H10S18579   5.581   3.219   7.462  2.1969  0.2281 -2.2948
  165SAPE  C21118580   5.471   3.379   7.552 -0.0400 -0.0981 -0.3513
  165SAPE  H11R18581   5.410   3.440   7.482  0.7384  1.0874 -0.0378
  165SAPE  C21218582   5.418   3.350   7.672  0.0053 -0.0334 -1.0713
  165SAPE  H12R18583   5.312   3.373   7.691  0.7564  1.3233  2.1594
  165SAPE  C21318584   5.474   3.245   7.767  0.0419 -0.1479 -0.2423
  165SAPE  H13R18585   5.493   3.285   7.869 -1.9276  0.8988 -0.2312
  165SAPE  H13S18586   5.576   3.215   7.737 -0.8957 -2.0563 -1.7593
  165SAPE  C21418587   5.384   3.126   7.759  0.0871  0.0891 -0.3218
  165SAPE  H14R18588   5.368   3.084   7.659  0.7352  0.2642 -0.5029
  165SAPE  C21518589   5.340   3.048   7.863 -0.6915  0.6314  1.0347
  165SAPE  H15R18590   5.283   2.957   7.839 -1.5183  1.5738 -0.7261
  165SAPE  C21618591   5.352   3.075   8.012 -0.1258 -0.0059  0.1629
  165SAPE  H16R18592   5.267   3.042   8.075  0.4764  0.5456  1.2899
  165SAPE  H16S18593   5.367   3.183   8.036  3.0572 -0.5063  0.8982
  165SAPE  C21718594   5.488   3.019   8.067  0.2649  0.4613  0.0495
  165SAPE  H17R18595   5.571   3.084   8.034 -1.7201  2.0690 -2.0784
  165SAPE  H17S18596   5.510   2.916   8.033 -0.7457 -0.2394  1.3929
  165SAPE  C21818597   5.488   3.006   8.219  0.0161 -0.0857  0.1035
  165SAPE  H18R18598   5.403   2.937   8.239 -0.8315  0.7826 -0.4144
  165SAPE  H18S18599   5.477   3.109   8.258 -1.6458 -0.5889  1.1018
  165SAPE  C21918600   5.625   2.945   8.276  0.2677 -0.0013 -0.6081
  165SAPE  H19R18601   5.706   2.971   8.204  0.8958 -0.4990 -0.0941
  165SAPE  H19S18602   5.618   2.835   8.286  2.8935 -0.1546  0.3290
  165SAPE  C22018603   5.653   3.000   8.418 -0.1595  0.1655  0.0365
  165SAPE  H20R18604   5.759   3.004   8.448 -0.0457  2.6296 -0.4784
  165SAPE  H20S18605   5.593   2.940   8.490 -1.9740  0.1938 -1.3737
  165SAPE  H20T18606   5.617   3.105   8.427  2.8011  1.1854  1.0603
  165SAPE   C3318607   6.022   3.500   7.050  0.1900  0.2987  0.1760
  165SAPE   H3X18608   6.130   3.484   7.032  0.1673 -0.2082  0.4871
  165SAPE   H3Y18609   5.976   3.412   7.001  0.1758 -1.4502  3.0985
  165SAPE   C3418610   6.026   3.472   7.199 -0.0353 -0.4520 -1.5392
  165SAPE   H4X18611   5.919   3.468   7.230  0.6166 -0.0484  1.0115
  165SAPE   H4Y18612   6.070   3.564   7.244 -1.9073 -0.0007 -0.5042
  165SAPE   C3518613   6.104   3.350   7.239  1.0744 -0.3861  0.1094
  165SAPE   H5X18614   6.199   3.353   7.182  1.1328  0.4990  0.2278
  165SAPE   H5Y18615   6.053   3.258   7.206  2.3255 -1.0322 -0.0678
  165SAPE   C3618616   6.122   3.334   7.389 -0.0497  0.1926  0.1066
  165SAPE   H6X18617   6.169   3.420   7.442  2.0143 -0.0594 -1.2184
  165SAPE   H6Y18618   6.198   3.254   7.400  1.6150  1.8088  0.9829
  165SAPE   C3718619   6.004   3.295   7.472  0.1372  0.2931  0.1758
  165SAPE   H7X18620   5.953   3.207   7.427  0.2914  1.0275 -1.5269
  165SAPE   H7Y18621   5.921   3.368   7.463  0.0602  0.1439 -0.3840
  165SAPE   C3818622   6.048   3.262   7.623 -0.4798 -0.9799  0.5510
  165SAPE   H8X18623   6.068   3.358   7.675  0.5014 -0.3101 -0.9927
  165SAPE   H8Y18624   6.147   3.212   7.614 -0.7252 -1.6471  1.4765
  165SAPE   C3918625   5.951   3.168   7.691 -0.1782  0.1728  0.0015
  165SAPE   H9X18626   5.958   3.067   7.647  0.9286 -0.1255  0.8074
  165SAPE   H9Y18627   5.844   3.195   7.678 -0.1579  0.0177 -0.4778
  165SAPE  C31018628   5.992   3.178   7.839 -1.0294 -0.0073  0.1655
  165SAPE  H10X18629   5.966   3.271   7.894  1.4133  0.1360  1.2040
  165SAPE  H10Y18630   6.103   3.176   7.831 -0.8448 -2.4592  2.0984
  165SAPE  C31118631   5.960   3.071   7.942 -0.1264  1.1656  0.5765
  165SAPE  H11X18632   5.978   2.973   7.893  0.4152 -0.3321  3.4882
  165SAPE  H11Y18633   5.855   3.062   7.979 -0.9233  1.1628 -1.5850
  165SAPE  C31218634   6.057   3.059   8.062 -0.0396 -0.8282  0.3551
  165SAPE  H12X18635   6.065   3.160   8.107  1.9916  0.0789 -1.8353
  165SAPE  H12Y18636   6.161   3.046   8.027 -0.4720  1.1874 -1.9413
  165SAPE  C31318637   6.015   2.946   8.153 -0.0327  0.3070 -0.6721
  165SAPE  H13X18638   6.044   2.855   8.097 -0.3185  0.1586 -0.5814
  165SAPE  H13Y18639   5.905   2.938   8.168 -0.3852  0.6201 -2.7650
  165SAPE  C31418640   6.086   2.976   8.283  0.2077 -0.5877  0.2240
  165SAPE  H14X18641   6.028   2.922   8.361 -1.2420  0.3062 -0.1880
  165SAPE  H14Y18642   6.074   3.086   8.297 -1.3188 -0.8646  1.3084
  165SAPE  C31518643   6.228   2.935   8.310 -0.1955  0.2879 -0.2740
  165SAPE  H15X18644   6.259   2.987   8.403 -0.7240  1.2258 -0.6070
  165SAPE  H15Y18645   6.295   2.968   8.228 -0.8022  2.4073  0.0155
  165SAPE  C31618646   6.236   2.784   8.351  0.6742 -0.0406 -0.2101
  165SAPE  H16X18647   6.197   2.721   8.268 -2.3725 -0.3879  1.3376
  165SAPE  H16Y18648   6.164   2.769   8.435  1.1387  0.9639  0.3890
  165SAPE  C31718649   6.379   2.744   8.398  0.1165  0.0535  0.3127
  165SAPE  H17X18650   6.462   2.751   8.325  2.1661 -2.1470  2.2262
  165SAPE  H17Y18651   6.374   2.636   8.425  2.1069 -0.3381 -0.7245
  165SAPE  C31818652   6.433   2.829   8.520 -0.2047  0.0649  0.2014
  165SAPE  H18X18653   6.389   2.789   8.613  0.4909  1.2673  1.0705
  165SAPE  H18Y18654   6.420   2.939   8.508  1.8285  0.1700 -1.7950
  165SAPE  H18Z18655   6.543   2.820   8.532  0.2878  0.8886 -2.8266
  166SAPE     N18656   3.773   6.369   5.634  0.0341 -0.1828 -0.6249
  166SAPE   HN118657   3.808   6.462   5.664 -0.0274 -0.6315  0.9174
  166SAPE   HN218658   3.851   6.312   5.593  0.3658 -0.2235  0.0496
  166SAPE   HN318659   3.690   6.380   5.573 -0.7339 -0.7647  0.2909
  166SAPE   C1218660   3.731   6.291   5.763  0.2198 -0.0603  0.8192
  166SAPE  H12A18661   3.819   6.294   5.831  0.7498 -0.1915  0.1495
  166SAPE  H12B18662   3.707   6.184   5.747  0.5917 -0.4718  2.7651
  166SAPE   C1118663   3.627   6.374   5.834  0.0020 -0.3529 -0.0053
  166SAPE  H11A18664   3.619   6.322   5.932  0.5061 -1.7620 -0.6779
  166SAPE  H11B18665   3.529   6.369   5.783  0.1658 -2.3275 -0.1845
  166SAPE     P18666   3.585   6.615   5.941  0.3112 -0.0684  0.8391
  166SAPE   O1318667   3.622   6.754   5.906 -0.3774 -0.5363  0.6603
  166SAPE   O1418668   3.437   6.583   5.907  0.2018  0.1003  0.1545
  166SAPE   O1218669   3.670   6.511   5.858 -0.1442 -0.7683 -0.2008
  166SAPE   O1118670   3.625   6.576   6.091 -0.5119  0.7415  0.0075
  166SAPE    C118671   3.755   6.542   6.133 -0.2018  1.2758 -0.1517
  166SAPE    HA18672   3.818   6.494   6.055  0.7853 -2.1022  2.5066
  166SAPE    HB18673   3.801   6.634   6.174  3.4092 -0.4695  0.0508
  166SAPE    C218674   3.757   6.440   6.250  0.5357 -0.8714  0.2438
  166SAPE    HS18675   3.731   6.344   6.201  2.3302  0.0136 -2.7195
  166SAPE   O2118676   3.663   6.483   6.347  0.5231 -0.3104  0.2631
  166SAPE   C2118677   3.630   6.392   6.439 -0.4027 -0.9593  0.4704
  166SAPE   O2218678   3.673   6.281   6.443 -0.3730  0.2565  0.0425
  166SAPE   C2218679   3.543   6.460   6.538  0.1498 -0.7422 -0.5622
  166SAPE   H2R18680   3.599   6.550   6.569  0.7049 -0.2378 -2.8784
  166SAPE   H2S18681   3.463   6.502   6.473  2.2312  1.5276 -1.7829
  166SAPE    C318682   3.906   6.423   6.302 -0.2929 -0.4209  0.4690
  166SAPE    HX18683   3.969   6.398   6.214 -2.8932  0.7292 -1.8878
  166SAPE    HY18684   3.895   6.332   6.364 -0.7383 -1.0425 -0.5029
  166SAPE   O3118685   3.960   6.536   6.368 -0.3252 -0.2277  0.4981
  166SAPE   C3118686   4.087   6.520   6.416 -0.3132 -0.2547 -0.3747
  166SAPE   O3218687   4.154   6.418   6.402  0.1433  0.8811  0.1268
  166SAPE   C3218688   4.137   6.650   6.472  0.4240 -0.4344  0.5454
  166SAPE   H2X18689   4.080   6.731   6.422 -0.3158 -1.2511  0.0415
  166SAPE   H2Y18690   4.245   6.661   6.450 -0.1436  0.0809 -2.3629
  166SAPE   C2318691   3.489   6.372   6.653 -0.2206 -0.8848 -0.4133
  166SAPE   H3R18692   3.575   6.344   6.717  1.3812  1.4351 -1.3890
  166SAPE   H3S18693   3.440   6.285   6.604 -1.3194 -0.2176 -0.5407
  166SAPE   C2418694   3.392   6.449   6.738  0.1197  0.6636  0.4210
  166SAPE   H4R18695   3.327   6.382   6.799  0.0519  0.7375  0.4312
  166SAPE   H4S18696   3.316   6.516   6.691 -0.7241  0.7957  1.9086
  166SAPE   C2518697   3.461   6.548   6.824 -0.2466  0.6680  0.4839
  166SAPE   H5R18698   3.486   6.648   6.785  0.4220  0.7672  1.1326
  166SAPE   C2618699   3.490   6.530   6.954 -0.3865  0.0828  0.1244
  166SAPE   H6R18700   3.546   6.604   7.013 -1.4232  1.6042 -0.7128
  166SAPE   C2718701   3.465   6.412   7.044  0.4835 -0.5104  0.6128
  166SAPE   H7R18702   3.557   6.366   7.085 -0.6941 -2.8666  0.7395
  166SAPE   H7S18703   3.412   6.337   6.982 -0.6077  1.0790 -0.4717
  166SAPE   C2818704   3.378   6.444   7.159 -0.4357  0.8256 -0.3610
  166SAPE   H8R18705   3.271   6.435   7.136 -0.5956 -0.6813  0.7543
  166SAPE   C2918706   3.406   6.458   7.288 -0.0518  0.7374 -0.5204
  166SAPE   H9R18707   3.328   6.486   7.360  0.3446 -2.4756  1.3630
  166SAPE  C21018708   3.544   6.466   7.350 -0.0035 -0.2905 -0.5128
  166SAPE  H10R18709   3.612   6.510   7.273  2.7821 -0.7325  1.5211
  166SAPE  H10S18710   3.577   6.363   7.378  2.3083  0.5236  0.0286
  166SAPE  C21118711   3.558   6.545   7.477  0.1798 -0.1004  0.0206
  166SAPE  H11R18712   3.561   6.655   7.476 -3.3216  0.2018  2.7842
  166SAPE  C21218713   3.569   6.495   7.601 -0.2438 -0.1844  0.1708
  166SAPE  H12R18714   3.580   6.574   7.677  3.1964 -0.0033 -0.3807
  166SAPE  C21318715   3.562   6.356   7.661 -0.2953 -0.4750  0.0899
  166SAPE  H13R18716   3.640   6.332   7.736 -0.9060  0.1241  0.9402
  166SAPE  H13S18717   3.571   6.281   7.580  4.1861 -1.1165  0.9439
  166SAPE  C21418718   3.423   6.347   7.720 -0.4620 -0.1919 -0.0575
  166SAPE  H14R18719   3.344   6.380   7.652  0.6055  2.7293 -0.0340
  166SAPE  C21518720   3.383   6.303   7.838  0.1924 -0.8072  0.0463
  166SAPE  H15R18721   3.276   6.314   7.864  0.7228 -0.9308  2.5594
  166SAPE  C21618722   3.462   6.262   7.961 -0.3695  0.5469  0.2828
  166SAPE  H16R18723   3.569   6.241   7.939 -0.0966  1.0460  1.0984
  166SAPE  H16S18724   3.421   6.164   7.991  1.1005 -0.0386  0.4544
  166SAPE  C21718725   3.465   6.368   8.068  0.4049 -0.0946  0.5535
  166SAPE  H17R18726   3.532   6.343   8.153  2.6346 -1.5625 -1.5041
  166SAPE  H17S18727   3.359   6.370   8.102 -0.0522  0.2085 -0.8222
  166SAPE  C21818728   3.513   6.509   8.021 -1.0114  0.0139  0.1643
  166SAPE  H18R18729   3.496   6.571   8.111  0.9421 -0.2247  0.7286
  166SAPE  H18S18730   3.469   6.549   7.927  2.0938  1.5248 -0.7753
  166SAPE  C21918731   3.667   6.503   8.005 -0.6023  0.0964 -1.0467
  166SAPE  H19R18732   3.710   6.435   7.929 -0.0188  1.6996 -2.2073
  166SAPE  H19S18733   3.701   6.487   8.110  1.9742 -2.1206 -2.1059
  166SAPE  C22018734   3.726   6.640   7.968 -0.7260  0.1366 -0.2417
  166SAPE  H20R18735   3.694   6.682   7.870 -1.0104 -0.8257 -0.5718
  166SAPE  H20S18736   3.837   6.635   7.960 -0.7681  0.8433 -1.6978
  166SAPE  H20T18737   3.709   6.721   8.042 -0.2542 -0.4257  0.4980
  166SAPE   C3318738   4.107   6.655   6.620  0.6377 -0.4686 -1.3979
  166SAPE   H3X18739   4.155   6.582   6.689  0.6603 -0.0081 -0.9169
  166SAPE   H3Y18740   3.997   6.648   6.631  0.6417  2.4193  3.1787
  166SAPE   C3418741   4.143   6.787   6.684 -0.0206 -0.8430 -0.5351
  166SAPE   H4X18742   4.094   6.782   6.784  2.8074 -1.0798  0.9474
  166SAPE   H4Y18743   4.098   6.876   6.635  1.0509 -0.2200 -0.4235
  166SAPE   C3518744   4.289   6.814   6.703 -0.5445  0.0516  0.0816
  166SAPE   H5X18745   4.341   6.812   6.604  0.4002 -1.1273  0.5864
  166SAPE   H5Y18746   4.333   6.737   6.769 -0.3024 -0.7158 -0.9346
  166SAPE   C3618747   4.324   6.961   6.743  0.2163  0.0895  0.4712
  166SAPE   H6X18748   4.271   6.985   6.837 -2.9908 -0.6487 -1.0191
  166SAPE   H6Y18749   4.282   7.031   6.667  2.5623 -0.9116 -1.9333
  166SAPE   C3718750   4.474   7.000   6.741  0.4244  0.4172 -0.1121
  166SAPE   H7X18751   4.470   7.111   6.741 -0.4156  0.3960  0.4598
  166SAPE   H7Y18752   4.518   6.954   6.650  0.5998  0.0480  0.1593
  166SAPE   C3818753   4.552   6.958   6.871 -0.1076 -0.5416 -0.7985
  166SAPE   H8X18754   4.657   6.992   6.862  0.1812 -0.0971  2.8428
  166SAPE   H8Y18755   4.543   6.847   6.882  1.1591 -0.4684  1.4871
  166SAPE   C3918756   4.496   7.024   7.003 -0.9808 -0.7805  0.2088
  166SAPE   H9X18757   4.396   6.982   7.026 -0.7446 -0.6660  1.5051
  166SAPE   H9Y18758   4.469   7.126   6.969  0.6381 -0.2230  0.5429
  166SAPE  C31018759   4.600   7.026   7.117  0.6776 -0.1872 -0.5248
  166SAPE  H10X18760   4.685   7.067   7.058 -0.0343 -1.1586 -2.3121
  166SAPE  H10Y18761   4.620   6.920   7.140 -0.4211 -0.1288  0.7948
  166SAPE  C31118762   4.559   7.113   7.233 -0.7132  0.2128  0.0066
  166SAPE  H11X18763   4.449   7.123   7.225 -0.6839  0.3000 -0.2946
  166SAPE  H11Y18764   4.590   7.218   7.211  0.4092 -0.1939 -0.4473
  166SAPE  C31218765   4.619   7.057   7.369  0.4652 -0.4012  0.2561
  166SAPE  H12X18766   4.726   7.030   7.356  0.1071 -1.2435 -1.2014
  166SAPE  H12Y18767   4.563   6.962   7.382 -0.3698  0.2017  1.2218
  166SAPE  C31318768   4.582   7.133   7.495 -0.1263 -0.7718  0.1905
  166SAPE  H13X18769   4.474   7.144   7.514 -0.5701 -1.7411 -1.5029
  166SAPE  H13Y18770   4.625   7.233   7.473  0.7661 -0.9564  1.0401
  166SAPE  C31418771   4.654   7.079   7.619 -0.5393 -0.3721 -0.3408
  166SAPE  H14X18772   4.753   7.042   7.583 -1.3252 -2.7859 -0.1442
  166SAPE  H14Y18773   4.599   6.994   7.664 -0.8922  0.7120  1.3691
  166SAPE  C31518774   4.664   7.192   7.721 -0.3400  0.0181 -0.0655
  166SAPE  H15X18775   4.568   7.247   7.722  0.6856  1.9219  1.6770
  166SAPE  H15Y18776   4.739   7.268   7.690  0.7414 -0.7729  0.5151
  166SAPE  C31618777   4.700   7.151   7.866  0.0409  0.4803  0.0583
  166SAPE  H16X18778   4.634   7.067   7.898 -0.0961  0.4982 -0.1800
  166SAPE  H16Y18779   4.685   7.233   7.940 -0.5299  0.1881  0.2758
  166SAPE  C31718780   4.844   7.101   7.888  0.1092 -0.0098 -0.4356
  166SAPE  H17X18781   4.908   7.186   7.858 -0.9897 -0.1072 -3.3796
  166SAPE  H17Y18782   4.851   7.005   7.831 -0.8987 -0.8679  0.8374
  166SAPE  C31818783   4.864   7.067   8.037  0.0415 -0.0696  1.2015
  166SAPE  H18X18784   4.964   7.022   8.055  0.8148  1.2083  0.2853
  166SAPE  H18Y18785   4.800   6.983   8.071  0.6675 -0.6192  1.0250
  166SAPE  H18Z18786   4.861   7.163   8.094 -1.3874  0.7585 -0.1976
  167SAPE     N18787   6.487   4.791   6.270 -0.5954  0.5646  0.1506
  167SAPE   HN118788   6.534   4.773   6.362  0.7921 -2.0988 -0.9542
  167SAPE   HN218789   6.395   4.831   6.295  0.4432  2.2662  1.5466
  167SAPE   HN318790   6.476   4.699   6.223  0.0563 -0.3665  1.7448
  167SAPE   C1218791   6.564   4.890   6.186  0.1306 -0.0532 -0.0347
  167SAPE  H12A18792   6.508   4.901   6.091 -0.1491  1.3388  0.2807
  167SAPE  H12B18793   6.666   4.849   6.168  0.4384  0.3797  0.6872
  167SAPE   C1118794   6.559   5.029   6.250 -0.4220  0.0291 -0.6236
  167SAPE  H11A18795   6.628   5.106   6.209  0.9755  0.8062  2.8293
  167SAPE  H11B18796   6.605   4.996   6.346 -1.2964 -2.0583 -0.8834
  167SAPE     P18797   6.347   5.150   6.165  0.1219 -0.1604  0.1434
  167SAPE   O1318798   6.408   5.135   6.029 -0.1134  0.2767  0.2264
  167SAPE   O1418799   6.207   5.109   6.182 -0.0809 -0.0153 -0.6716
  167SAPE   O1218800   6.432   5.082   6.280  0.3066  0.0502  0.7354
  167SAPE   O1118801   6.357   5.297   6.217  0.5555 -0.0030  0.5392
  167SAPE    C118802   6.463   5.339   6.307  0.7237  0.0951  0.1409
  167SAPE    HA18803   6.556   5.278   6.302  0.9091  0.4304 -0.4991
  167SAPE    HB18804   6.491   5.440   6.272 -0.5063 -0.7100 -3.6814
  167SAPE    C218805   6.419   5.336   6.456  0.4437 -0.1172  0.5309
  167SAPE    HS18806   6.397   5.229   6.478 -0.6496 -0.0509 -0.1672
  167SAPE   O2118807   6.312   5.423   6.476  0.3523  0.0119  0.2021
  167SAPE   C2118808   6.207   5.378   6.544 -0.3958  0.9250 -0.0399
  167SAPE   O2218809   6.183   5.265   6.585  0.1044  0.0496 -0.7870
  167SAPE   C2218810   6.106   5.488   6.569 -0.6410  0.2432 -0.3209
  167SAPE   H2R18811   6.128   5.568   6.495 -0.8708 -0.1395 -0.8065
  167SAPE   H2S18812   6.006   5.445   6.550 -0.9193 -0.1114  1.6710
  167SAPE    C318813   6.527   5.371   6.554  0.0252 -0.2865  0.1787
  167SAPE    HX18814   6.578   5.469   6.546 -1.6118  0.7535  1.7558
  167SAPE    HY18815   6.611   5.299   6.541  0.1948 -0.7393  3.0976
  167SAPE   O3118816   6.477   5.363   6.695  0.0512  0.3044  0.3058
  167SAPE   C3118817   6.455   5.245   6.729  0.3616  0.1857 -0.3286
  167SAPE   O3218818   6.496   5.143   6.679 -0.1077 -0.0115  0.1689
  167SAPE   C3218819   6.389   5.235   6.873  0.2370  0.6180  0.3438
  167SAPE   H2X18820   6.281   5.258   6.866  0.4952  1.3643 -2.4572
  167SAPE   H2Y18821   6.442   5.315   6.930 -1.5641  3.4099 -1.6127
  167SAPE   C2318822   6.117   5.524   6.715 -0.6451 -0.5377  0.3424
  167SAPE   H3R18823   6.222   5.539   6.747 -0.4239 -1.6579  0.1896
  167SAPE   H3S18824   6.098   5.440   6.786  0.4974  0.1722  1.5115
  167SAPE   C2418825   6.012   5.631   6.755 -0.4084  0.4305  0.0744
  167SAPE   H4R18826   5.915   5.578   6.763  0.0338 -0.5556 -0.8648
  167SAPE   H4S18827   5.990   5.694   6.666  1.6168 -0.1681 -0.9005
  167SAPE   C2518828   6.047   5.726   6.864 -0.5891 -0.8508  0.0575
  167SAPE   H5R18829   6.095   5.812   6.815 -2.2402 -0.3887 -0.8375
  167SAPE   C2618830   6.017   5.725   6.993 -0.2267 -0.2167  0.0164
  167SAPE   H6R18831   6.046   5.806   7.062 -0.2153  0.9157 -1.2711
  167SAPE   C2718832   5.943   5.611   7.061 -0.0609  0.6035  0.8545
  167SAPE   H7R18833   5.870   5.564   6.991  2.1723 -1.3965 -0.2713
  167SAPE   H7S18834   5.884   5.654   7.145 -2.2352  1.2685 -0.9069
  167SAPE   C2818835   6.042   5.501   7.103  0.3502 -0.6988 -0.2024
  167SAPE   H8R18836   6.088   5.446   7.020 -0.4365 -0.0466 -1.0915
  167SAPE   C2918837   6.059   5.442   7.220 -0.4969  0.4239  0.4833
  167SAPE   H9R18838   6.126   5.355   7.225  2.9411  2.8284 -0.1466
  167SAPE  C21018839   5.991   5.491   7.346 -0.2458  1.0088  0.2128
  167SAPE  H10R18840   5.910   5.417   7.366  1.2244 -1.2404 -1.5754
  167SAPE  H10S18841   5.945   5.590   7.330 -3.0783 -0.1140  0.8730
  167SAPE  C21118842   6.093   5.486   7.460 -0.0966  0.4152 -0.1040
  167SAPE  H11R18843   6.164   5.569   7.456  2.0208 -1.2802  0.3886
  167SAPE  C21218844   6.108   5.391   7.555 -0.0788  0.1148 -0.3176
  167SAPE  H12R18845   6.187   5.413   7.627 -2.2313  0.6319  2.0176
  167SAPE  C21318846   6.024   5.272   7.592 -0.4860 -0.2281 -0.1690
  167SAPE  H13R18847   5.986   5.217   7.503  0.9696 -1.4849 -0.0659
  167SAPE  H13S18848   5.929   5.302   7.639  1.4814  1.0329  3.3952
  167SAPE  C21418849   6.092   5.161   7.671 -1.0551  0.1036  1.0087
  167SAPE  H14R18850   6.129   5.078   7.608  1.1183  2.7852 -1.5562
  167SAPE  C21518851   6.106   5.155   7.804 -0.0193  0.3317 -0.4546
  167SAPE  H15R18852   6.146   5.065   7.852  1.8796  0.9312 -0.8440
  167SAPE  C21618853   6.075   5.261   7.897 -0.2331 -0.2224 -0.4035
  167SAPE  H16R18854   6.031   5.349   7.846  1.2656 -0.4999 -2.2641
  167SAPE  H16S18855   6.170   5.298   7.941 -0.0746  0.3415 -1.1982
  167SAPE  C21718856   5.980   5.210   8.008 -0.4096  0.3484 -0.0781
  167SAPE  H17R18857   5.894   5.158   7.962 -0.6745 -0.6244  1.4399
  167SAPE  H17S18858   5.943   5.293   8.073 -0.6615 -0.1433  0.4188
  167SAPE  C21818859   6.053   5.115   8.115  0.3214 -0.3176  0.6155
  167SAPE  H18R18860   6.146   5.165   8.150  1.1485 -0.5656 -1.0983
  167SAPE  H18S18861   6.075   5.018   8.066 -1.4301  0.6616 -2.3930
  167SAPE  C21918862   5.962   5.096   8.237  0.1255 -0.0777 -0.0717
  167SAPE  H19R18863   5.866   5.044   8.214  0.3292  0.1139 -1.4911
  167SAPE  H19S18864   5.943   5.195   8.282 -1.3725 -0.1814 -0.4147
  167SAPE  C22018865   6.027   5.020   8.351  0.3142 -0.4376  0.2943
  167SAPE  H20R18866   5.962   4.994   8.437 -0.3994 -0.4208 -0.2345
  167SAPE  H20S18867   6.121   5.063   8.392  0.3616 -1.7908  1.7311
  167SAPE  H20T18868   6.054   4.922   8.307 -0.5801 -1.0103  0.9767
  167SAPE   C3318869   6.406   5.087   6.919 -0.6153 -0.0522  0.1254
  167SAPE   H3X18870   6.506   5.058   6.957 -1.3795 -2.7816  0.2775
  167SAPE   H3Y18871   6.385   5.017   6.835  0.5619  0.3699 -0.5437
  167SAPE   C3418872   6.306   5.058   7.042  0.2047 -0.3648  0.1645
  167SAPE   H4X18873   6.305   4.947   7.055 -0.3282 -0.4296 -0.3890
  167SAPE   H4Y18874   6.201   5.090   7.024  0.2150 -0.8323 -0.7724
  167SAPE   C3518875   6.365   5.106   7.175 -0.4634 -0.3412 -0.5512
  167SAPE   H5X18876   6.382   5.216   7.170  0.3932 -0.4864 -1.1511
  167SAPE   H5Y18877   6.467   5.062   7.187 -0.2948  0.0411 -0.5558
  167SAPE   C3618878   6.269   5.081   7.300 -0.0431  0.8712 -0.3775
  167SAPE   H6X18879   6.172   5.052   7.255 -0.3225  0.8589  0.2272
  167SAPE   H6Y18880   6.256   5.171   7.363  2.0206  0.1908  1.1459
  167SAPE   C3718881   6.326   4.985   7.408  0.5813  0.3840  0.5630
  167SAPE   H7X18882   6.377   4.904   7.352  0.4484 -1.5180  3.0651
  167SAPE   H7Y18883   6.242   4.943   7.467 -1.9593  3.9150 -0.1530
  167SAPE   C3818884   6.417   5.060   7.501 -0.1133 -0.3141 -0.3902
  167SAPE   H8X18885   6.346   5.132   7.547  3.4631  0.9431  3.8016
  167SAPE   H8Y18886   6.498   5.123   7.459  0.8234  0.6474  2.6048
  167SAPE   C3918887   6.473   4.974   7.615 -0.0113 -0.1035 -0.7010
  167SAPE   H9X18888   6.576   4.953   7.576  0.7636  0.2757  1.0582
  167SAPE   H9Y18889   6.418   4.879   7.631 -0.0990 -0.2842 -1.9736
  167SAPE  C31018890   6.498   5.034   7.756  0.5604 -0.9376 -0.3297
  167SAPE  H10X18891   6.405   5.054   7.813  0.3454  0.4750 -1.1389
  167SAPE  H10Y18892   6.540   5.137   7.759 -2.9463  0.6222  0.6468
  167SAPE  C31118893   6.581   4.942   7.847 -0.1449  0.1144 -0.6202
  167SAPE  H11X18894   6.683   4.928   7.805  0.6785  2.9383  0.1725
  167SAPE  H11Y18895   6.540   4.841   7.828 -1.9237  0.5697  0.5102
  167SAPE  C31218896   6.582   4.980   7.993  0.5145  0.4733 -0.5029
  167SAPE  H12X18897   6.591   5.090   8.003  1.8315  0.5257 -1.8819
  167SAPE  H12Y18898   6.666   4.923   8.037  0.7206  0.1065 -1.3430
  167SAPE  C31318899   6.443   4.943   8.047 -0.0715  0.1734  1.1063
  167SAPE  H13X18900   6.396   4.847   8.017 -1.9171  0.8827  1.6014
  167SAPE  H13Y18901   6.371   5.023   8.019 -0.3523 -0.0503  1.1790
  167SAPE  C31418902   6.433   4.960   8.200 -0.3842  0.3512  0.6108
  167SAPE  H14X18903   6.327   4.988   8.219 -0.8381 -0.4231 -0.6725
  167SAPE  H14Y18904   6.510   5.037   8.223  1.1394 -0.5564 -1.0977
  167SAPE  C31518905   6.461   4.837   8.285  0.7475  0.0682  0.5599
  167SAPE  H15X18906   6.568   4.811   8.276  1.2620  2.2238 -0.3443
  167SAPE  H15Y18907   6.406   4.745   8.255  0.5128  0.4823 -0.3323
  167SAPE  C31618908   6.431   4.864   8.431 -0.0043  0.2355  0.7000
  167SAPE  H16X18909   6.406   4.769   8.483  1.8530 -0.7309 -0.0974
  167SAPE  H16Y18910   6.334   4.918   8.437  0.2188  0.5613  1.6510
  167SAPE  C31718911   6.526   4.951   8.507  0.4030  0.5542 -0.4041
  167SAPE  H17X18912   6.546   5.039   8.442  1.3268  1.6943  1.3416
  167SAPE  H17Y18913   6.618   4.889   8.518 -0.0220 -0.4932 -2.3427
  167SAPE  C31818914   6.464   4.996   8.639  0.4748 -0.2462 -1.2917
  167SAPE  H18X18915   6.424   4.906   8.691  2.0770 -0.1818  0.1593
  167SAPE  H18Y18916   6.378   5.060   8.614  0.3558 -0.8313 -2.4440
  167SAPE  H18Z18917   6.541   5.039   8.707 -0.2962 -1.0919  0.1890
  168SAPE     N18918   0.312   0.738   6.396  0.0647 -0.8481 -0.1205
  168SAPE   HN118919   0.382   0.789   6.338 -0.1476  0.2284  0.5316
  168SAPE   HN218920   0.356   0.698   6.481 -0.4151  0.7373  0.9127
  168SAPE   HN318921   0.277   0.657   6.342  0.0219 -0.7644 -0.2197
  168SAPE   C1218922   0.208   0.838   6.441  0.3756 -0.0878 -0.8007
  168SAPE  H12A18923   0.263   0.920   6.491  2.1264 -1.0618 -1.0569
  168SAPE  H12B18924   0.144   0.785   6.515 -0.8092  3.2213  0.7402
  168SAPE   C1118925   0.120   0.883   6.325  0.1156 -0.4446  0.1401
  168SAPE  H11A18926   0.039   0.954   6.351  0.1527  0.0068 -0.9388
  168SAPE  H11B18927   0.052   0.801   6.292 -0.5158 -0.0727  0.4980
  168SAPE     P18928   0.269   1.079   6.232  0.0622 -0.1890  0.4151
  168SAPE   O1318929   0.417   1.074   6.225 -0.7424  0.2477  0.0040
  168SAPE   O1418930   0.217   1.167   6.130  0.0754 -0.1031 -0.1836
  168SAPE   O1218931   0.202   0.937   6.215  0.4314  0.4294  0.0536
  168SAPE   O1118932   0.231   1.107   6.380  0.2282  0.4050  0.7520
  168SAPE    C118933   0.256   1.240   6.427  0.3090  0.2102 -0.5905
  168SAPE    HA18934   0.359   1.269   6.398  0.3015 -1.2982 -2.3731
  168SAPE    HB18935   0.191   1.319   6.385  0.5745 -0.0874 -1.6035
  168SAPE    C218936   0.242   1.241   6.581 -0.9457 -0.8226  0.5823
  168SAPE    HS18937   0.238   1.350   6.601  2.6948 -0.6613  1.2577
  168SAPE   O2118938   0.363   1.190   6.645 -0.1359 -0.0316 -0.2645
  168SAPE   C2118939   0.467   1.269   6.642 -0.2058  0.0870  0.0770
  168SAPE   O2218940   0.463   1.381   6.595  0.9085  0.0487  0.8154
  168SAPE   C2218941   0.583   1.209   6.714 -0.8513 -1.4239 -0.4302
  168SAPE   H2R18942   0.580   1.098   6.714 -1.1253 -1.4403 -1.7883
  168SAPE   H2S18943   0.671   1.254   6.661 -2.6611  1.5649 -1.1839
  168SAPE    C318944   0.118   1.169   6.632 -0.1206  0.0375  0.1461
  168SAPE    HX18945   0.138   1.060   6.642  0.2092  0.2481  2.3228
  168SAPE    HY18946   0.033   1.184   6.562 -0.9483 -1.3706  0.7958
  168SAPE   O3118947   0.086   1.232   6.756  0.4361  0.4241  0.4264
  168SAPE   C3118948   0.153   1.189   6.870 -0.6069 -0.9142  0.1963
  168SAPE   O3218949   0.222   1.091   6.863 -0.1825  0.3222 -0.2153
  168SAPE   C3218950   0.124   1.265   6.996 -0.2802 -0.7740  0.2944
  168SAPE   H2X18951   0.033   1.329   6.988  0.9536  0.8249 -2.4671
  168SAPE   H2Y18952   0.212   1.333   7.001  0.3511 -1.7001  2.6662
  168SAPE   C2318953   0.590   1.285   6.852 -0.2553 -0.0195 -0.1042
  168SAPE   H3R18954   0.580   1.394   6.832 -2.4330  0.0620  1.0750
  168SAPE   H3S18955   0.694   1.283   6.889 -0.8910  0.7823  1.8434
  168SAPE   C2418956   0.497   1.235   6.964  0.2445  0.8899  0.0126
  168SAPE   H4R18957   0.394   1.261   6.931  0.2736 -0.6105 -1.3426
  168SAPE   H4S18958   0.526   1.300   7.050  0.7641 -0.9016  1.2552
  168SAPE   C2518959   0.504   1.091   7.017 -0.5865  0.3339  0.3532
  168SAPE   H5R18960   0.503   1.016   6.936 -0.4383  0.3792  0.3093
  168SAPE   C2618961   0.517   1.040   7.140  0.2020  0.0775 -0.0866
  168SAPE   H6R18962   0.531   0.933   7.163 -0.3539  0.6333  3.4916
  168SAPE   C2718963   0.518   1.122   7.265 -0.2063  0.8689 -0.3796
  168SAPE   H7R18964   0.500   1.064   7.358  0.8826  0.1316 -0.6126
  168SAPE   H7S18965   0.424   1.181   7.267  0.1726  1.4929 -0.6306
  168SAPE   C2818966   0.642   1.198   7.298 -0.1300  0.3186 -0.9674
  168SAPE   H8R18967   0.732   1.193   7.234  2.5334 -1.9914  2.5766
  168SAPE   C2918968   0.670   1.267   7.409 -0.6518  0.1578  0.0060
  168SAPE   H9R18969   0.769   1.313   7.423 -1.2487  1.1395  1.1270
  168SAPE  C21018970   0.567   1.273   7.523  0.5444  0.8012  0.3895
  168SAPE  H10R18971   0.574   1.182   7.586 -1.0200  0.3655 -0.0151
  168SAPE  H10S18972   0.461   1.277   7.488  0.0136  2.8331  1.9766
  168SAPE  C21118973   0.597   1.391   7.614  0.3288  0.4796 -0.0175
  168SAPE  H11R18974   0.618   1.482   7.555  1.4894 -0.3288 -0.9047
  168SAPE  C21218975   0.615   1.382   7.747 -0.7318  0.5461 -0.4514
  168SAPE  H12R18976   0.644   1.474   7.800 -0.0710 -0.2234  0.5462
  168SAPE  C21318977   0.596   1.261   7.841  0.8668 -0.0919  0.3005
  168SAPE  H13R18978   0.517   1.204   7.789  0.1427  1.3616 -0.2534
  168SAPE  H13S18979   0.541   1.299   7.929  2.3221  1.0629  0.7653
  168SAPE  C21418980   0.724   1.192   7.870  0.2498  0.6414  0.3936
  168SAPE  H14R18981   0.765   1.141   7.781 -0.9587  0.4462 -0.0707
  168SAPE  C21518982   0.784   1.170   7.983  0.2100  0.3642 -0.9947
  168SAPE  H15R18983   0.873   1.106   7.987 -0.2631 -0.2422  0.1094
  168SAPE  C21618984   0.742   1.226   8.119 -0.1486  0.1692  0.5956
  168SAPE  H16R18985   0.683   1.320   8.115 -0.7797 -0.1975  1.1357
  168SAPE  H16S18986   0.839   1.247   8.170  1.7218 -1.6393 -1.9908
  168SAPE  C21718987   0.654   1.122   8.201 -0.2533 -0.0945  0.0693
  168SAPE  H17R18988   0.671   1.144   8.309 -1.8980 -1.3548  0.6368
  168SAPE  H17S18989   0.696   1.020   8.192  0.6845  0.2982 -0.0541
  168SAPE  C21818990   0.510   1.136   8.186 -0.6700  0.7504 -0.0087
  168SAPE  H18R18991   0.478   1.096   8.088 -0.9282  0.4053  0.2136
  168SAPE  H18S18992   0.477   1.242   8.185 -0.2174  0.8972 -1.5450
  168SAPE  C21918993   0.431   1.050   8.290 -0.3801  0.1865  0.6534
  168SAPE  H19R18994   0.475   1.051   8.392 -2.7512 -0.3128  1.7608
  168SAPE  H19S18995   0.439   0.944   8.255 -0.7850  0.2105  0.4836
  168SAPE  C22018996   0.282   1.094   8.295  0.6472  0.4019  0.5839
  168SAPE  H20R18997   0.276   1.201   8.324  0.8834 -0.2355  3.2991
  168SAPE  H20S18998   0.230   1.054   8.385 -2.1704  3.1538  0.3721
  168SAPE  H20T18999   0.227   1.066   8.203 -1.0504 -0.2282  1.7385
  168SAPE   C3319000   0.111   1.169   7.113  0.6641  0.2314 -0.0347
  168SAPE   H3X19001   0.209   1.124   7.140  0.3998 -0.8782 -0.8730
  168SAPE   H3Y19002   0.054   1.083   7.073 -0.3537  1.9190 -2.3999
  168SAPE   C3419003   0.036   1.223   7.234 -0.2040 -0.2269  0.0064
  168SAPE   H4X19004  -0.022   1.137   7.274  1.4770 -0.8494  1.2475
  168SAPE   H4Y19005  -0.032   1.305   7.203  2.8704  2.0970 -1.1272
  168SAPE   C3519006   0.132   1.283   7.338  0.8882  0.7736 -0.5027
  168SAPE   H5X19007   0.191   1.373   7.312  0.7186  0.5556 -1.7155
  168SAPE   H5Y19008   0.205   1.200   7.355 -1.2056 -1.0367  0.1414
  168SAPE   C3619009   0.065   1.302   7.481  0.1737  0.1105 -0.8757
  168SAPE   H6X19010   0.002   1.211   7.490 -0.3634  0.4892 -0.7467
  168SAPE   H6Y19011   0.001   1.393   7.479  0.0534  0.0243 -3.1389
  168SAPE   C3719012   0.167   1.325   7.604 -0.2707  0.1412  0.0749
  168SAPE   H7X19013   0.231   1.411   7.573  0.3489 -0.7838 -1.3521
  168SAPE   H7Y19014   0.245   1.246   7.611  0.0927  0.3198 -1.5660
  168SAPE   C3819015   0.100   1.339   7.738 -0.5435 -0.1723  0.0426
  168SAPE   H8X19016   0.019   1.264   7.752 -0.1282 -0.4203  1.2812
  168SAPE   H8Y19017   0.062   1.442   7.753  3.1922  1.7317 -2.2076
  168SAPE   C3919018   0.202   1.326   7.854 -0.1404 -0.1388  0.1365
  168SAPE   H9X19019   0.304   1.361   7.828 -0.4785 -1.2019 -3.1357
  168SAPE   H9Y19020   0.229   1.218   7.865 -0.5726 -0.4239 -1.3081
  168SAPE  C31019021   0.141   1.391   7.986 -0.7960  0.1981 -0.5573
  168SAPE  H10X19022   0.106   1.494   7.964  0.0920  0.5353 -0.4235
  168SAPE  H10Y19023   0.225   1.379   8.058 -0.2603  0.9456 -1.0512
  168SAPE  C31119024   0.024   1.295   8.043 -1.0940 -0.2963 -0.3398
  168SAPE  H11X19025   0.061   1.190   8.050  1.5109  0.5025 -1.0567
  168SAPE  H11Y19026  -0.049   1.307   7.960  1.3325  0.2844 -2.5416
  168SAPE  C31219027  -0.039   1.320   8.179  0.4555  0.3703 -0.4397
  168SAPE  H12X19028   0.028   1.285   8.260 -0.2464 -0.1581 -0.0829
  168SAPE  H12Y19029  -0.131   1.260   8.192  0.3301  0.8996  1.4303
  168SAPE  C31319030  -0.066   1.466   8.200 -0.7446 -0.1611 -0.1880
  168SAPE  H13X19031  -0.131   1.514   8.123 -2.4254  1.1572  1.9311
  168SAPE  H13Y19032   0.023   1.530   8.185 -1.7107  1.4943  0.7877
  168SAPE  C31419033  -0.142   1.483   8.332 -0.3470 -0.2563  0.0743
  168SAPE  H14X19034  -0.073   1.456   8.415 -1.1390  0.6290  1.0500
  168SAPE  H14Y19035  -0.217   1.402   8.318 -1.9174  1.0720  0.5137
  168SAPE  C31519036  -0.196   1.620   8.352 -0.5345 -0.2996 -0.4465
  168SAPE  H15X19037  -0.295   1.626   8.301 -0.7733 -1.9589 -0.2299
  168SAPE  H15Y19038  -0.128   1.696   8.308  0.6866 -0.9319  0.3155
  168SAPE  C31619039  -0.198   1.658   8.505 -0.2798 -1.0061  0.0816
  168SAPE  H16X19040  -0.263   1.584   8.556 -0.0870 -1.6279 -0.5530
  168SAPE  H16Y19041  -0.227   1.763   8.524  1.7344 -0.6783  1.5376
  168SAPE  C31719042  -0.058   1.671   8.562 -0.3671  0.5957  0.5826
  168SAPE  H17X19043  -0.019   1.568   8.570 -1.4288  0.2288  1.2814
  168SAPE  H17Y19044  -0.060   1.700   8.670 -2.8360 -0.0604  0.7749
  168SAPE  C31819045   0.036   1.760   8.482  0.1932  0.3769 -0.0264
  168SAPE  H18X19046   0.003   1.864   8.501  3.0671  1.1524  1.3212
  168SAPE  H18Y19047   0.043   1.736   8.374  1.2344  0.4884  0.0067
  168SAPE  H18Z19048   0.138   1.747   8.523 -0.1228 -1.6986  0.1835
  169SAPE     N19049   0.660   2.932   6.420  0.0028  0.2889  0.2729
  169SAPE   HN119050   0.571   2.880   6.436  1.0668 -1.7435 -0.1376
  169SAPE   HN219051   0.730   2.875   6.472 -0.1877 -0.2726 -0.0748
  169SAPE   HN319052   0.663   3.025   6.466  0.1527  0.1702  0.5026
  169SAPE   C1219053   0.687   2.945   6.268 -0.5592  0.5257 -0.3668
  169SAPE  H12A19054   0.795   2.967   6.260 -0.0859 -1.8062 -1.0150
  169SAPE  H12B19055   0.612   3.013   6.221 -1.4206 -0.2370 -0.1381
  169SAPE   C1119056   0.661   2.815   6.190 -0.5317  0.3146  0.9588
  169SAPE  H11A19057   0.718   2.810   6.095 -2.4474 -0.6714 -0.2024
  169SAPE  H11B19058   0.553   2.808   6.164 -0.8898  0.9771  2.2224
  169SAPE     P19059   0.634   2.553   6.244 -0.1330 -0.0517  0.1431
  169SAPE   O1319060   0.522   2.569   6.154 -0.4624  0.1425  0.2543
  169SAPE   O1419061   0.743   2.468   6.196 -0.2649  0.9675  0.2934
  169SAPE   O1219062   0.687   2.698   6.260  0.2342 -0.4806 -0.6882
  169SAPE   O1119063   0.578   2.501   6.389  0.1712 -0.4577 -0.0897
  169SAPE    C119064   0.471   2.562   6.456 -0.2115 -0.8342 -0.1876
  169SAPE    HA19065   0.437   2.654   6.404  0.3522 -0.8870 -0.6526
  169SAPE    HB19066   0.382   2.495   6.461  0.6775 -2.0892 -0.7948
  169SAPE    C219067   0.498   2.614   6.602 -0.6638 -0.2246 -0.1975
  169SAPE    HS19068   0.509   2.722   6.582 -3.1831 -0.2561 -2.3360
  169SAPE   O2119069   0.615   2.542   6.664  0.0940 -0.1551  0.5253
  169SAPE   C2119070   0.690   2.608   6.747  0.7226  0.0550  0.1650
  169SAPE   O2219071   0.707   2.732   6.760 -0.1053  0.2270 -0.4323
  169SAPE   C2219072   0.774   2.500   6.825  0.7803  0.2410  0.6753
  169SAPE   H2R19073   0.874   2.500   6.775  0.2132 -1.3265 -0.5403
  169SAPE   H2S19074   0.788   2.536   6.929  0.6007 -1.4112  1.2945
  169SAPE    C319075   0.373   2.602   6.700 -0.0747  0.1487 -0.9988
  169SAPE    HX19076   0.365   2.491   6.699  0.8036  0.0803 -1.2414
  169SAPE    HY19077   0.287   2.654   6.653  0.2249  0.6227 -1.0327
  169SAPE   O3119078   0.394   2.646   6.839  0.2562  0.7460  0.4083
  169SAPE   C3119079   0.296   2.609   6.913 -0.1928 -1.3280 -0.5749
  169SAPE   O3219080   0.202   2.543   6.876 -0.2672 -0.0620 -0.1910
  169SAPE   C3219081   0.299   2.673   7.047 -0.6288  0.3326 -0.3762
  169SAPE   H2X19082   0.198   2.671   7.094 -0.2021 -1.4463  0.5593
  169SAPE   H2Y19083   0.330   2.780   7.045  0.4203  0.0189 -2.0972
  169SAPE   C2319084   0.707   2.358   6.809 -0.1744 -0.1986 -0.2807
  169SAPE   H3R19085   0.745   2.313   6.715 -1.8907 -3.7417  0.5622
  169SAPE   H3S19086   0.598   2.376   6.815  0.2793  2.8250  0.8793
  169SAPE   C2419087   0.735   2.248   6.908 -0.1980  0.4405 -1.0160
  169SAPE   H4R19088   0.845   2.233   6.909 -0.3348 -0.7896 -1.6136
  169SAPE   H4S19089   0.691   2.149   6.881 -1.2605 -1.2337  5.1450
  169SAPE   C2519090   0.685   2.284   7.050  0.1659 -0.8110 -0.4780
  169SAPE   H5R19091   0.577   2.281   7.070  0.2197  0.5434  0.1256
  169SAPE   C2619092   0.762   2.321   7.153 -0.1013 -0.5241 -0.3316
  169SAPE   H6R19093   0.714   2.352   7.247 -0.2297  1.8800 -1.1097
  169SAPE   C2719094   0.913   2.343   7.156  0.5839 -0.2812  0.2256
  169SAPE   H7R19095   0.930   2.445   7.196  1.5848 -0.2777 -0.1818
  169SAPE   H7S19096   0.954   2.346   7.052 -2.8655 -1.7897 -1.3490
  169SAPE   C2819097   0.977   2.243   7.245  0.3359 -0.1572 -0.1790
  169SAPE   H8R19098   1.015   2.147   7.208  2.5941  0.5925  0.0720
  169SAPE   C2919099   1.002   2.265   7.374  0.1840  0.4344 -0.1183
  169SAPE   H9R19100   1.058   2.191   7.433 -1.0765 -1.0015 -0.6652
  169SAPE  C21019101   0.961   2.388   7.454 -0.2427  0.5722 -0.7090
  169SAPE  H10R19102   0.939   2.476   7.390 -0.4852 -0.1967 -1.7069
  169SAPE  H10S19103   1.044   2.433   7.513  0.9007  0.6601 -2.3124
  169SAPE  C21119104   0.837   2.350   7.536 -0.4411 -0.6218 -1.0022
  169SAPE  H11R19105   0.737   2.380   7.502 -1.7829 -2.9306  0.6249
  169SAPE  C21219106   0.838   2.300   7.663  0.1634 -0.0291 -0.0966
  169SAPE  H12R19107   0.745   2.290   7.721  0.6372  2.2697  1.1967
  169SAPE  C21319108   0.959   2.264   7.753 -0.4820  0.3304 -0.9005
  169SAPE  H13R19109   1.055   2.256   7.698 -0.6667  0.1622 -1.2012
  169SAPE  H13S19110   0.946   2.165   7.803 -1.0659  0.3668 -0.9761
  169SAPE  C21419111   0.968   2.365   7.862  0.5433  0.2173 -0.0915
  169SAPE  H14R19112   0.967   2.468   7.824  0.5274  0.7352  1.2728
  169SAPE  C21519113   0.971   2.350   7.997 -0.4796 -0.6088 -0.1034
  169SAPE  H15R19114   0.991   2.445   8.050 -2.1365 -0.7509  0.8271
  169SAPE  C21619115   0.958   2.229   8.080  0.5566 -0.0234 -0.0985
  169SAPE  H16R19116   1.015   2.251   8.173 -1.8530  0.7303  1.3068
  169SAPE  H16S19117   1.015   2.144   8.039 -0.5481 -1.2272  0.7908
  169SAPE  C21719118   0.810   2.197   8.121 -0.1054  0.4221  0.3848
  169SAPE  H17R19119   0.761   2.160   8.028  0.0690  1.0659  0.0269
  169SAPE  H17S19120   0.763   2.294   8.149  1.8506  1.8838 -1.0444
  169SAPE  C21819121   0.799   2.079   8.211  0.8440  0.9392  0.0243
  169SAPE  H18R19122   0.878   2.087   8.289  0.9270  1.2435 -0.0938
  169SAPE  H18S19123   0.830   1.986   8.157  0.0604 -0.0896  1.2887
  169SAPE  C21919124   0.666   2.066   8.283 -0.0832 -0.4676 -0.1037
  169SAPE  H19R19125   0.586   2.040   8.211 -2.0304  1.2512  1.3349
  169SAPE  H19S19126   0.647   2.163   8.334  0.8557 -0.9392  1.2175
  169SAPE  C22019127   0.657   1.953   8.384  0.5131  0.0336 -0.0226
  169SAPE  H20R19128   0.562   1.966   8.439  1.6962 -0.7825  2.3548
  169SAPE  H20S19129   0.738   1.946   8.460  0.8462  2.0953 -0.1291
  169SAPE  H20T19130   0.649   1.861   8.323 -2.2291  0.6986 -0.7866
  169SAPE   C3319131   0.394   2.619   7.148 -0.4518  0.2277 -0.4145
  169SAPE   H3X19132   0.499   2.626   7.112  0.7467 -0.0867  2.6864
  169SAPE   H3Y19133   0.378   2.510   7.150 -1.7590  0.4121  0.2036
  169SAPE   C3419134   0.394   2.673   7.294  0.5308  0.0863  0.5019
  169SAPE   H4X19135   0.288   2.698   7.320 -0.4739  0.5971 -3.4491
  169SAPE   H4Y19136   0.441   2.774   7.293 -2.2213  1.4845  0.4636
  169SAPE   C3519137   0.462   2.586   7.403 -0.4781  0.2180 -0.1324
  169SAPE   H5X19138   0.548   2.544   7.346 -1.7131 -3.6238  0.5147
  169SAPE   H5Y19139   0.388   2.504   7.414  0.4463 -0.6241 -0.0861
  169SAPE   C3619140   0.488   2.667   7.534 -0.1066  0.5633  0.4087
  169SAPE   H6X19141   0.391   2.712   7.563 -2.4629 -2.2751 -2.2245
  169SAPE   H6Y19142   0.548   2.756   7.507  2.6553 -0.4450  2.7491
  169SAPE   C3719143   0.562   2.579   7.633  0.0404 -0.0177  0.1549
  169SAPE   H7X19144   0.668   2.608   7.623 -0.1353  1.3012  1.7890
  169SAPE   H7Y19145   0.553   2.472   7.606  0.1524  0.5612 -2.4810
  169SAPE   C3819146   0.517   2.592   7.772  0.2044  1.0284 -0.6966
  169SAPE   H8X19147   0.423   2.534   7.780  0.5298  0.4384 -1.0772
  169SAPE   H8Y19148   0.479   2.694   7.794  1.7768  1.5240 -0.1663
  169SAPE   C3919149   0.610   2.548   7.885 -0.4428 -0.6557 -0.0054
  169SAPE   H9X19150   0.709   2.592   7.862 -0.7493 -0.2599 -0.5826
  169SAPE   H9Y19151   0.611   2.438   7.901 -2.3085 -0.5189  1.5246
  169SAPE  C31019152   0.565   2.616   8.018  0.0373 -0.5530  0.1818
  169SAPE  H10X19153   0.457   2.594   8.029  0.2121 -0.9263  1.2511
  169SAPE  H10Y19154   0.583   2.725   8.030  0.5576 -0.4816 -1.0813
  169SAPE  C31119155   0.637   2.552   8.136 -0.3304  1.1347  0.1045
  169SAPE  H11X19156   0.744   2.567   8.110 -0.5620  0.2517 -1.5492
  169SAPE  H11Y19157   0.612   2.444   8.125 -2.7289  1.7207 -0.7933
  169SAPE  C31219158   0.615   2.615   8.269  0.5059 -0.1605  0.3074
  169SAPE  H12X19159   0.507   2.597   8.292 -0.4249  0.4414 -3.0053
  169SAPE  H12Y19160   0.639   2.723   8.281  0.3491  0.0244 -0.9450
  169SAPE  C31319161   0.697   2.531   8.372 -0.3080 -0.0064  0.7227
  169SAPE  H13X19162   0.678   2.423   8.353 -0.1386  0.0976 -0.0681
  169SAPE  H13Y19163   0.665   2.552   8.476 -0.1856 -0.1492  0.7904
  169SAPE  C31419164   0.843   2.547   8.360 -0.4427 -0.1159 -0.3570
  169SAPE  H14X19165   0.884   2.533   8.258 -0.1861 -2.1270 -0.0145
  169SAPE  H14Y19166   0.888   2.469   8.426  0.1807  0.0589 -0.5776
  169SAPE  C31519167   0.881   2.686   8.428 -0.1041  0.4686  0.3870
  169SAPE  H15X19168   0.831   2.765   8.368 -0.4118 -0.5979 -0.8169
  169SAPE  H15Y19169   0.991   2.699   8.418 -0.5471  2.7358 -3.0037
  169SAPE  C31619170   0.825   2.701   8.572 -0.6495 -0.3524  0.3942
  169SAPE  H16X19171   0.834   2.604   8.627 -1.9063  0.4015  2.0102
  169SAPE  H16Y19172   0.718   2.728   8.577 -0.2328  1.3866  0.5347
  169SAPE  C31719173   0.897   2.803   8.655  0.0739  0.2150 -0.1914
  169SAPE  H17X19174   0.999   2.764   8.673 -1.0136 -2.1543  1.5292
  169SAPE  H17Y19175   0.860   2.797   8.760 -1.8738 -0.0418 -0.8428
  169SAPE  C31819176   0.888   2.942   8.601  0.0302 -0.0301  0.1362
  169SAPE  H18X19177   0.922   2.940   8.495  1.1195  1.4684  0.4328
  169SAPE  H18Y19178   0.961   3.009   8.652  1.3209 -2.6611  1.9808
  169SAPE  H18Z19179   0.785   2.982   8.609  0.3253  0.8893 -0.4474
  170SAPE     N19180   5.848   0.069   6.027  0.6167  0.3231 -0.3656
  170SAPE   HN119181   5.760   0.018   6.004  1.0172  0.6988 -3.0107
  170SAPE   HN219182   5.868   0.140   5.954  1.5634  0.5485  0.1045
  170SAPE   HN319183   5.920  -0.005   6.021 -1.1575 -1.6463  1.1233
  170SAPE   C1219184   5.834   0.149   6.158  0.0459 -0.0098 -0.1683
  170SAPE  H12A19185   5.792   0.079   6.233 -1.2741 -0.3653 -1.2027
  170SAPE  H12B19186   5.781   0.243   6.131 -1.6004 -0.7753  0.3231
  170SAPE   C1119187   5.976   0.198   6.207 -0.0061 -0.1141  0.5214
  170SAPE  H11A19188   6.039   0.108   6.219  0.5545  0.1829 -0.1209
  170SAPE  H11B19189   5.967   0.249   6.305 -2.8227 -2.3963  1.5722
  170SAPE     P19190   6.126   0.399   6.104  0.6575 -0.6251 -0.0556
  170SAPE   O1319191   6.257   0.369   6.034  0.5127 -0.2413  0.1028
  170SAPE   O1419192   6.053   0.522   6.061  0.2078  0.4101  0.0534
  170SAPE   O1219193   6.027   0.278   6.096 -0.1261 -0.0435 -0.4340
  170SAPE   O1119194   6.150   0.404   6.262  0.1582  0.1290 -0.3802
  170SAPE    C119195   6.244   0.503   6.313 -0.3085 -0.5455 -1.0092
  170SAPE    HA19196   6.332   0.530   6.252  0.4181 -0.5477  0.0172
  170SAPE    HB19197   6.194   0.602   6.327  2.2598  0.7867 -0.7309
  170SAPE    C219198   6.304   0.472   6.457  0.8234  0.2586  0.1318
  170SAPE    HS19199   6.360   0.377   6.447 -1.1623 -0.9122 -0.3853
  170SAPE   O2119200   6.203   0.469   6.557  0.1506  0.3977 -0.5052
  170SAPE   C2119201   6.145   0.347   6.563 -0.5285 -0.2569 -0.2011
  170SAPE   O2219202   6.180   0.248   6.495 -0.5810  0.3327 -0.4384
  170SAPE   C2219203   6.025   0.346   6.663 -0.6795  0.1208  0.1500
  170SAPE   H2R19204   6.021   0.439   6.722  2.7954  0.7939 -0.4544
  170SAPE   H2S19205   5.939   0.337   6.593  0.2915  0.0038 -1.0572
  170SAPE    C319206   6.420   0.573   6.499  0.1396  0.4640 -0.0208
  170SAPE    HX19207   6.390   0.678   6.481  3.9154  1.4468 -1.4551
  170SAPE    HY19208   6.503   0.561   6.425 -1.9201  3.5012 -3.1323
  170SAPE   O3119209   6.472   0.549   6.632 -0.0640  0.1971 -0.4615
  170SAPE   C3119210   6.448   0.640   6.728  0.5510 -0.3181  0.5772
  170SAPE   O3219211   6.408   0.753   6.714 -0.2055 -0.0829  0.2253
  170SAPE   C3219212   6.493   0.583   6.869  0.3407 -0.7142  0.7174
  170SAPE   H2X19213   6.527   0.675   6.921 -0.6830 -1.7432  3.3671
  170SAPE   H2Y19214   6.567   0.503   6.851  0.7673  0.3393 -3.2011
  170SAPE   C2319215   6.026   0.215   6.744 -0.1433 -0.1060  0.2425
  170SAPE   H3R19216   6.102   0.220   6.825 -0.5745  2.0281  0.5633
  170SAPE   H3S19217   6.047   0.128   6.677 -2.3271  0.0001 -0.6580
  170SAPE   C2419218   5.885   0.191   6.794 -0.1288  0.6073  0.1601
  170SAPE   H4R19219   5.884   0.095   6.849 -0.9724 -0.7312 -2.0948
  170SAPE   H4S19220   5.821   0.179   6.704 -1.2002  1.2337  0.8214
  170SAPE   C2519221   5.822   0.300   6.882  0.1882 -0.7998 -0.3618
  170SAPE   H5R19222   5.787   0.391   6.831  1.8967  1.4145  2.1660
  170SAPE   C2619223   5.841   0.316   7.011  0.7172  0.3070  0.7015
  170SAPE   H6R19224   5.788   0.393   7.069  0.2101  1.1837 -0.8787
  170SAPE   C2719225   5.916   0.223   7.099  0.3029 -0.9440 -0.2489
  170SAPE   H7R19226   5.959   0.142   7.038 -0.1042 -1.1806 -0.2257
  170SAPE   H7S19227   5.847   0.174   7.171 -0.7407 -0.2433 -0.7391
  170SAPE   C2819228   6.030   0.299   7.169  0.3894 -0.3978  0.5392
  170SAPE   H8R19229   6.101   0.354   7.105  0.4840 -1.0695  0.0564
  170SAPE   C2919230   6.050   0.301   7.304  0.3342 -1.0849  0.1900
  170SAPE   H9R19231   6.133   0.365   7.338 -1.1859  0.0327  1.9728
  170SAPE  C21019232   5.974   0.234   7.415  0.4427  0.1887 -0.1956
  170SAPE  H10R19233   6.033   0.146   7.447 -0.3141 -0.5756 -0.8594
  170SAPE  H10S19234   5.875   0.192   7.386  0.7991 -0.8850  0.0872
  170SAPE  C21119235   5.952   0.337   7.525 -0.2486  0.2789 -0.6863
  170SAPE  H11R19236   5.869   0.402   7.495 -0.2372  0.2946 -0.6834
  170SAPE  C21219237   6.015   0.353   7.646 -0.0910 -0.9769  0.3673
  170SAPE  H12R19238   5.977   0.434   7.709  2.9977  0.9144  0.0149
  170SAPE  C21319239   6.122   0.275   7.699  0.6484  1.1659  0.3204
  170SAPE  H13R19240   6.161   0.202   7.626 -2.7072  2.0059 -2.5595
  170SAPE  H13S19241   6.079   0.207   7.776 -2.7182  2.5571 -0.1261
  170SAPE  C21419242   6.233   0.355   7.759 -0.6311 -0.5655  0.1806
  170SAPE  H14R19243   6.319   0.360   7.692 -0.0681  1.0986  0.9671
  170SAPE  C21519244   6.239   0.424   7.875 -0.0180  0.1754  0.4925
  170SAPE  H15R19245   6.329   0.486   7.878  0.3700 -0.2244 -1.7951
  170SAPE  C21619246   6.128   0.432   7.976  0.2927 -1.1844  0.0326
  170SAPE  H16R19247   6.044   0.365   7.946 -0.9512  0.3136  0.0567
  170SAPE  H16S19248   6.095   0.537   7.989  1.6942 -0.7209  0.0522
  170SAPE  C21719249   6.156   0.381   8.119  0.3110  0.1320 -0.0556
  170SAPE  H17R19250   6.160   0.271   8.124  1.0006  0.1621  0.2114
  170SAPE  H17S19251   6.078   0.414   8.190 -1.7064 -2.8574 -0.7171
  170SAPE  C21819252   6.280   0.438   8.193 -0.0035 -0.5103 -0.7725
  170SAPE  H18R19253   6.275   0.549   8.189  1.7372 -0.4373 -1.7715
  170SAPE  H18S19254   6.371   0.402   8.141  2.2041  0.0901  2.4264
  170SAPE  C21919255   6.296   0.385   8.336  0.9514  0.0519 -0.2056
  170SAPE  H19R19256   6.351   0.293   8.310 -1.6871 -1.3953 -1.0493
  170SAPE  H19S19257   6.198   0.347   8.373  0.5410 -1.3855 -2.5676
  170SAPE  C22019258   6.374   0.470   8.434  0.1971  0.2731  0.5719
  170SAPE  H20R19259   6.479   0.480   8.400  0.4533 -1.6561  0.7015
  170SAPE  H20S19260   6.381   0.412   8.528 -0.7632 -0.7460  0.0388
  170SAPE  H20T19261   6.328   0.571   8.442  3.7866  2.3706 -1.9986
  170SAPE   C3319262   6.371   0.519   6.936  0.1078 -0.7670 -0.3829
  170SAPE   H3X19263   6.333   0.434   6.876  0.1189 -0.2457 -1.1577
  170SAPE   H3Y19264   6.293   0.597   6.950 -0.4283 -1.3985  0.1868
  170SAPE   C3419265   6.415   0.463   7.080  0.0781  0.4758 -0.3792
  170SAPE   H4X19266   6.497   0.389   7.080  1.6571  2.1679 -0.1872
  170SAPE   H4Y19267   6.323   0.410   7.114  0.4548 -0.8110 -1.3024
  170SAPE   C3519268   6.451   0.572   7.185  0.2732 -0.4331 -0.6852
  170SAPE   H5X19269   6.389   0.663   7.176  2.2524  1.0757  0.1074
  170SAPE   H5Y19270   6.554   0.610   7.164  0.0134  0.9495  0.3796
  170SAPE   C3619271   6.456   0.502   7.318 -0.5088 -0.3999 -0.4200
  170SAPE   H6X19272   6.509   0.404   7.307 -1.9028 -1.2739  0.3983
  170SAPE   H6Y19273   6.352   0.476   7.344 -0.5481 -0.9949 -1.1064
  170SAPE   C3719274   6.517   0.586   7.430 -0.1808  0.1887 -0.3454
  170SAPE   H7X19275   6.447   0.662   7.471 -0.8055 -1.6505  2.1940
  170SAPE   H7Y19276   6.603   0.649   7.397  0.5777  0.3444  1.7235
  170SAPE   C3819277   6.565   0.507   7.557  0.9505 -0.0047  0.0848
  170SAPE   H8X19278   6.623   0.417   7.528  0.5553 -0.9087  1.9323
  170SAPE   H8Y19279   6.477   0.469   7.613  0.2716 -1.3650 -1.8134
  170SAPE   C3919280   6.660   0.593   7.650  0.1055  0.1626  0.5790
  170SAPE   H9X19281   6.745   0.647   7.603  0.5080  2.1076  3.2801
  170SAPE   H9Y19282   6.717   0.522   7.714  0.0486 -0.3598  0.0551
  170SAPE  C31019283   6.582   0.680   7.754  0.4029 -0.0892 -0.2999
  170SAPE  H10X19284   6.490   0.624   7.782  0.8915 -0.5643  0.3906
  170SAPE  H10Y19285   6.542   0.767   7.698  2.7920  0.6611 -0.9703
  170SAPE  C31119286   6.678   0.728   7.867  0.6994  0.5194 -0.4895
  170SAPE  H11X19287   6.764   0.785   7.825  2.5017 -0.7482  1.3314
  170SAPE  H11Y19288   6.720   0.641   7.922  2.9300  1.7543 -0.1279
  170SAPE  C31219289   6.601   0.818   7.964 -0.5781  0.4326 -0.2294
  170SAPE  H12X19290   6.497   0.791   7.994 -0.0699  0.9943  2.2590
  170SAPE  H12Y19291   6.594   0.918   7.918  2.5193 -0.1116 -2.1381
  170SAPE  C31319292   6.682   0.843   8.093  0.2166 -0.0490  0.0763
  170SAPE  H13X19293   6.792   0.850   8.079  0.2487 -1.7086 -0.6841
  170SAPE  H13Y19294   6.653   0.750   8.147  1.4365 -1.7438 -2.0396
  170SAPE  C31419295   6.630   0.966   8.167 -0.3624 -0.2345 -0.6818
  170SAPE  H14X19296   6.654   1.059   8.110 -1.7976  0.5390 -0.0865
  170SAPE  H14Y19297   6.687   0.968   8.263  0.0485 -0.4915 -0.9194
  170SAPE  C31519298   6.481   0.985   8.187  0.3399  0.4293  0.0744
  170SAPE  H15X19299   6.421   0.892   8.202 -1.1283  1.1372 -1.1916
  170SAPE  H15Y19300   6.446   1.028   8.091  0.1841  2.2522  0.9144
  170SAPE  C31619301   6.444   1.079   8.303 -0.1129  0.3748 -0.1669
  170SAPE  H16X19302   6.523   1.157   8.312 -1.4368  1.7304  0.2670
  170SAPE  H16Y19303   6.451   1.024   8.399  0.3165  0.6880 -0.0121
  170SAPE  C31719304   6.308   1.148   8.307 -0.4986 -0.2075  0.4901
  170SAPE  H17X19305   6.241   1.064   8.338  1.9428 -2.2158  0.6307
  170SAPE  H17Y19306   6.287   1.180   8.203  0.9939 -1.0369 -0.1006
  170SAPE  C31819307   6.299   1.264   8.412 -0.0429 -0.0924  0.0914
  170SAPE  H18X19308   6.319   1.232   8.517 -1.8963 -2.1021 -0.0993
  170SAPE  H18Y19309   6.198   1.310   8.409  0.1037  0.4059  1.6690
  170SAPE  H18Z19310   6.366   1.346   8.379  1.7624 -1.1095  1.0735
  171SAPE     N19311   2.230   0.999   6.055 -0.2276  0.1595  0.0762
  171SAPE   HN119312   2.162   1.022   6.130 -1.0959  0.1063 -0.6835
  171SAPE   HN219313   2.274   0.908   6.082  0.4894  1.4063  3.5768
  171SAPE   HN319314   2.306   1.069   6.048 -2.1707  2.2210 -2.6517
  171SAPE   C1219315   2.150   0.978   5.922  0.0978 -0.4125 -0.5950
  171SAPE  H12A19316   2.226   0.931   5.855  2.0356  1.4305  0.2250
  171SAPE  H12B19317   2.114   1.078   5.891  0.1343 -0.2055  0.0341
  171SAPE   C1119318   2.018   0.887   5.947 -0.1072 -0.8683 -0.1706
  171SAPE  H11A19319   2.056   0.800   6.004  2.1501  0.5503  0.6550
  171SAPE  H11B19320   1.975   0.865   5.847 -1.6913 -0.5717  0.4119
  171SAPE     P19321   1.891   0.959   6.170  0.1291  0.8433  0.0007
  171SAPE   O1319322   1.807   1.073   6.207 -0.3423  0.3315  0.5767
  171SAPE   O1419323   1.835   0.827   6.197 -0.0702  0.3058 -0.3716
  171SAPE   O1219324   1.924   0.968   6.015 -0.3041  0.2432 -0.6878
  171SAPE   O1119325   2.040   0.958   6.221  0.0034 -0.3709 -0.6679
  171SAPE    C119326   2.055   0.981   6.363  0.4307  0.2269  0.1153
  171SAPE    HA19327   2.164   0.994   6.383  0.4103  0.8392 -0.1365
  171SAPE    HB19328   2.004   1.074   6.396  0.7271  0.5844 -0.4080
  171SAPE    C219329   2.007   0.854   6.452 -0.3953 -0.1766 -0.0354
  171SAPE    HS19330   1.899   0.835   6.438 -0.4327  0.4016 -0.5738
  171SAPE   O2119331   2.038   0.894   6.585  0.4531 -0.2733 -0.4800
  171SAPE   C2119332   1.949   0.977   6.640  0.0347 -0.1190 -0.3241
  171SAPE   O2219333   1.855   1.025   6.584 -0.6386 -0.2070 -0.1514
  171SAPE   C2219334   1.989   1.004   6.788  0.7902  0.2249  0.3946
  171SAPE   H2R19335   1.977   0.914   6.851  0.7790  1.5461  2.3634
  171SAPE   H2S19336   2.096   1.031   6.774  0.7113 -0.7579 -3.1369
  171SAPE    C319337   2.080   0.722   6.406  0.1152 -0.4569  0.2454
  171SAPE    HX19338   2.188   0.748   6.407 -0.4467  2.3560 -0.4871
  171SAPE    HY19339   2.040   0.706   6.304 -1.7824  0.5878  0.7654
  171SAPE   O3119340   2.060   0.616   6.505  0.1654  0.1586 -0.0725
  171SAPE   C3119341   1.955   0.543   6.492  0.7664 -0.7567  0.7564
  171SAPE   O3219342   1.875   0.533   6.397  0.6626  0.2647 -0.1853
  171SAPE   C3219343   1.938   0.449   6.615  0.0287  0.5304  0.1065
  171SAPE   H2X19344   2.035   0.438   6.668 -0.9236  1.6948  2.1959
  171SAPE   H2Y19345   1.908   0.349   6.576 -2.7814  1.5331 -0.5073
  171SAPE   C2319346   1.919   1.123   6.845 -0.0032 -0.3138 -0.4568
  171SAPE   H3R19347   1.812   1.103   6.868  0.1339  0.8189  1.3527
  171SAPE   H3S19348   1.936   1.212   6.780 -1.1122 -0.3267 -0.7957
  171SAPE   C2419349   1.984   1.177   6.970 -0.0652  0.2186 -0.8682
  171SAPE   H4R19350   1.930   1.269   7.000 -1.1680 -0.6688 -0.0265
  171SAPE   H4S19351   2.086   1.212   6.943  0.2432 -1.7597 -2.5679
  171SAPE   C2519352   1.976   1.066   7.077  0.0614  0.4863  0.0485
  171SAPE   H5R19353   2.049   0.986   7.054  0.2247  1.1023 -1.7051
  171SAPE   C2619354   1.890   1.047   7.179 -0.2770 -0.1940  0.2098
  171SAPE   H6R19355   1.901   0.965   7.252  1.9233 -0.5091 -0.4178
  171SAPE   C2719356   1.771   1.136   7.211  0.4173 -0.0675 -0.3763
  171SAPE   H7R19357   1.695   1.072   7.261  0.5487  0.2241  0.2054
  171SAPE   H7S19358   1.725   1.167   7.115  0.8315 -0.0827 -0.5838
  171SAPE   C2819359   1.809   1.260   7.294 -0.0945 -0.2063 -0.1727
  171SAPE   H8R19360   1.811   1.351   7.232  0.8410 -1.2179 -1.6924
  171SAPE   C2919361   1.828   1.269   7.425  0.0095  0.5235 -0.1004
  171SAPE   H9R19362   1.851   1.371   7.457 -1.9590  1.1132 -0.4158
  171SAPE  C21019363   1.833   1.163   7.534  0.2382 -0.0406 -0.0762
  171SAPE  H10R19364   1.817   1.062   7.490 -0.2933 -0.3243  0.7570
  171SAPE  H10S19365   1.747   1.178   7.602  0.6185 -1.1097  0.6732
  171SAPE  C21119366   1.962   1.160   7.609  0.4635  0.1168  0.3415
  171SAPE  H11R19367   2.042   1.113   7.549  0.4969  0.4507  0.1241
  171SAPE  C21219368   1.983   1.197   7.730 -0.0167  0.3433 -0.5589
  171SAPE  H12R19369   2.089   1.189   7.761  0.0960 -1.9317 -1.3688
  171SAPE  C21319370   1.895   1.272   7.821  0.1397 -0.2942 -0.2377
  171SAPE  H13R19371   1.805   1.211   7.844 -0.1816  0.1516 -0.2920
  171SAPE  H13S19372   1.858   1.356   7.757 -1.5052 -0.5710  0.3023
  171SAPE  C21419373   1.956   1.331   7.946  0.0566  0.2821 -0.5404
  171SAPE  H14R19374   2.053   1.383   7.933  0.1646  0.0805 -0.5448
  171SAPE  C21519375   1.901   1.334   8.070 -0.1065 -0.1379 -0.1398
  171SAPE  H15R19376   1.946   1.397   8.148 -1.7540  3.1034 -1.6337
  171SAPE  C21619377   1.765   1.291   8.107  0.1806  0.3794  0.0266
  171SAPE  H16R19378   1.760   1.242   8.206  0.3972 -1.7128 -0.9464
  171SAPE  H16S19379   1.716   1.223   8.034  0.6758 -0.6530  0.6410
  171SAPE  C21719380   1.674   1.414   8.106 -0.6462 -0.3928 -0.1523
  171SAPE  H17R19381   1.574   1.372   8.129 -1.3076  2.2637  2.3443
  171SAPE  H17S19382   1.676   1.470   8.010 -1.5325  1.4318  0.8515
  171SAPE  C21819383   1.691   1.508   8.225  0.1327 -0.1733  0.3955
  171SAPE  H18R19384   1.792   1.550   8.238 -0.1310  1.0717 -1.2538
  171SAPE  H18S19385   1.663   1.447   8.313  1.8188 -4.3257 -1.6613
  171SAPE  C21919386   1.590   1.627   8.216 -0.3465  0.0288 -0.2298
  171SAPE  H19R19387   1.611   1.691   8.303  2.3419  1.3866 -1.7596
  171SAPE  H19S19388   1.485   1.590   8.219 -0.9610  1.5072 -1.7723
  171SAPE  C22019389   1.620   1.704   8.091 -0.0648  0.2565 -0.0990
  171SAPE  H20R19390   1.558   1.795   8.079 -0.4966 -0.0414 -0.1498
  171SAPE  H20S19391   1.605   1.654   7.993 -1.1793 -0.0526  0.2140
  171SAPE  H20T19392   1.726   1.733   8.110 -0.3231  0.9814  0.2778
  171SAPE   C3319393   1.839   0.508   6.713 -0.3001 -0.0531 -0.2889
  171SAPE   H3X19394   1.760   0.554   6.650  1.1832  0.3319 -1.9666
  171SAPE   H3Y19395   1.892   0.590   6.766 -0.8609  0.3335 -0.3158
  171SAPE   C3419396   1.772   0.405   6.797  0.2264 -0.1853 -0.0610
  171SAPE   H4X19397   1.853   0.348   6.846  1.2167  1.0937 -0.1558
  171SAPE   H4Y19398   1.710   0.336   6.735 -0.3732 -1.8393  2.2320
  171SAPE   C3519399   1.676   0.465   6.906 -0.0686  0.0095 -0.3729
  171SAPE   H5X19400   1.620   0.382   6.953  1.0154  0.6691  2.2689
  171SAPE   H5Y19401   1.596   0.526   6.858  0.1817 -0.2225 -1.0896
  171SAPE   C3619402   1.751   0.542   7.019  0.4666  0.2575  0.6846
  171SAPE   H6X19403   1.793   0.628   6.962  0.8615 -1.2088 -1.3533
  171SAPE   H6Y19404   1.832   0.476   7.059 -0.6988 -0.9796  1.0999
  171SAPE   C3719405   1.653   0.588   7.134  0.5173  0.9304  0.4132
  171SAPE   H7X19406   1.619   0.497   7.187  2.1136  0.8037  1.2725
  171SAPE   H7Y19407   1.571   0.643   7.084 -0.3127 -0.8513 -0.2803
  171SAPE   C3819408   1.723   0.677   7.239  0.0131 -0.5933 -0.0108
  171SAPE   H8X19409   1.769   0.763   7.186  0.6255 -0.0247  1.3935
  171SAPE   H8Y19410   1.805   0.615   7.280  0.7872  1.0579  1.0399
  171SAPE   C3919411   1.625   0.715   7.344 -0.6734  0.0517  0.1884
  171SAPE   H9X19412   1.597   0.626   7.404  0.7691  1.0115  2.4156
  171SAPE   H9Y19413   1.530   0.762   7.309  0.3525  1.7851 -0.4091
  171SAPE  C31019414   1.687   0.810   7.445 -0.0066 -0.5914  0.3840
  171SAPE  H10X19415   1.612   0.889   7.469  1.1246  0.9133 -0.8156
  171SAPE  H10Y19416   1.769   0.866   7.397  0.0973  0.0614  1.2873
  171SAPE  C31119417   1.735   0.731   7.569  0.0641 -0.6249  0.2711
  171SAPE  H11X19418   1.805   0.651   7.537 -0.7713 -0.5491 -1.9889
  171SAPE  H11Y19419   1.657   0.682   7.631 -1.0577  0.0323 -0.5771
  171SAPE  C31219420   1.813   0.829   7.659 -0.1470 -1.2307 -0.2661
  171SAPE  H12X19421   1.741   0.909   7.688  1.2402 -0.4011  1.0487
  171SAPE  H12Y19422   1.886   0.874   7.588  0.8115 -1.4583  0.5561
  171SAPE  C31319423   1.901   0.781   7.779 -0.0247 -0.3439 -0.2357
  171SAPE  H13X19424   2.002   0.774   7.732  0.5718  1.0100  0.7534
  171SAPE  H13Y19425   1.873   0.679   7.813  0.1412  0.2090  1.6870
  171SAPE  C31419426   1.914   0.891   7.893  0.0493  0.7485  0.6177
  171SAPE  H14X19427   1.807   0.902   7.923 -0.0000  0.2386  0.6367
  171SAPE  H14Y19428   1.958   0.980   7.843  0.9347 -0.5963 -1.1192
  171SAPE  C31519429   1.988   0.856   8.028 -0.6800  0.2106 -0.7199
  171SAPE  H15X19430   2.093   0.877   7.997 -0.9638 -0.8743 -2.6197
  171SAPE  H15Y19431   1.976   0.747   8.049 -0.4921  0.2054 -0.6385
  171SAPE  C31619432   1.950   0.931   8.158  0.2963 -0.4240 -0.3821
  171SAPE  H16X19433   1.852   0.880   8.170  1.0358 -1.6734  0.6204
  171SAPE  H16Y19434   1.935   1.037   8.128 -1.8536 -1.1681 -2.2552
  171SAPE  C31719435   2.024   0.905   8.285 -0.6593  0.1184 -0.1874
  171SAPE  H17X19436   2.125   0.952   8.286 -1.4125  1.8235  0.4525
  171SAPE  H17Y19437   2.037   0.796   8.297  0.9573  0.5740  3.5394
  171SAPE  C31819438   1.947   0.972   8.398 -0.3069  0.3568 -1.0931
  171SAPE  H18X19439   1.851   0.919   8.415 -0.6995  1.1788 -0.6836
  171SAPE  H18Y19440   1.912   1.073   8.370 -2.1118 -0.4098 -1.7837
  171SAPE  H18Z19441   2.006   0.967   8.493 -1.8613 -0.7398 -0.1297
  172SAPE     N19442   1.436   0.195   6.009 -0.0374  0.4951 -0.3771
  172SAPE   HN119443   1.406   0.292   6.027 -0.8002  0.1066  0.5210
  172SAPE   HN219444   1.528   0.200   5.962 -0.9839 -0.5378 -2.5446
  172SAPE   HN319445   1.381   0.157   5.928  1.3099 -1.7514 -0.3371
  172SAPE   C1219446   1.454   0.098   6.127  1.3889  1.5400 -0.1468
  172SAPE  H12A19447   1.543   0.123   6.188  1.1432 -0.2925  1.0220
  172SAPE  H12B19448   1.456  -0.001   6.077 -2.1776  1.2484  0.0462
  172SAPE   C1119449   1.335   0.104   6.227  0.2354 -0.4184 -0.0848
  172SAPE  H11A19450   1.340   0.206   6.272 -1.6703 -0.1913 -0.3099
  172SAPE  H11B19451   1.361   0.024   6.299  0.7681 -0.3535 -0.1970
  172SAPE     P19452   1.083  -0.011   6.194  0.0574  0.2830 -0.1561
  172SAPE   O1319453   0.955   0.060   6.189 -0.5033 -0.3983 -1.0916
  172SAPE   O1419454   1.092  -0.133   6.110 -0.2440  0.1863 -0.1558
  172SAPE   O1219455   1.204   0.088   6.165 -0.0601 -0.3291 -0.3984
  172SAPE   O1119456   1.102  -0.050   6.348  0.2485  0.4507 -0.1570
  172SAPE    C119457   1.110   0.042   6.456  0.3458 -0.0210 -0.4776
  172SAPE    HA19458   1.190   0.003   6.523 -0.4046  0.1333  0.5154
  172SAPE    HB19459   1.145   0.145   6.433  0.2314  0.6653  2.1298
  172SAPE    C219460   0.979   0.066   6.535 -0.3798  0.2104  0.1730
  172SAPE    HS19461   0.904   0.138   6.495 -2.2017  0.0371  3.0166
  172SAPE   O2119462   1.017   0.102   6.665  0.1342 -0.1273 -0.9247
  172SAPE   C2119463   0.934   0.166   6.745 -0.2805 -0.0610  1.0476
  172SAPE   O2219464   0.830   0.212   6.709  0.6667 -0.1630  0.4743
  172SAPE   C2219465   0.979   0.166   6.889  0.8668 -0.3008  0.0349
  172SAPE   H2R19466   1.087   0.192   6.893  1.1875 -1.0352 -2.3663
  172SAPE   H2S19467   0.924   0.245   6.945  0.7066  0.2167 -0.8381
  172SAPE    C319468   0.909  -0.069   6.543  0.6591  0.5573 -0.4232
  172SAPE    HX19469   0.965  -0.144   6.603  0.2843  0.1862 -0.5338
  172SAPE    HY19470   0.913  -0.114   6.442  1.0607 -1.5001  0.4537
  172SAPE   O3119471   0.767  -0.057   6.584 -0.3578  0.7621  0.0738
  172SAPE   C3119472   0.714  -0.177   6.620  0.0000  0.0244 -0.4314
  172SAPE   O3219473   0.763  -0.285   6.607  0.0831 -0.5759  0.1513
  172SAPE   C3219474   0.575  -0.155   6.675 -0.7648 -0.6731  0.0601
  172SAPE   H2X19475   0.517  -0.248   6.687 -1.0981 -0.3369  1.1828
  172SAPE   H2Y19476   0.519  -0.086   6.608  1.5488 -0.0164 -1.3163
  172SAPE   C2319477   0.954   0.028   6.959  0.0220  0.0659 -0.2283
  172SAPE   H3R19478   1.013  -0.058   6.921  1.3111  0.2499  1.2585
  172SAPE   H3S19479   0.845   0.011   6.951  0.0792  0.2114 -1.4501
  172SAPE   C2419480   0.992   0.040   7.111 -1.2528  0.5636  0.5896
  172SAPE   H4R19481   0.913  -0.020   7.162 -2.5879  0.8483 -1.0591
  172SAPE   H4S19482   0.964   0.144   7.139  0.1365  0.7984  1.1553
  172SAPE   C2519483   1.138   0.035   7.146 -0.2837 -0.5634  0.0331
  172SAPE   H5R19484   1.213   0.077   7.077 -0.9573  0.5200 -0.0616
  172SAPE   C2619485   1.191  -0.004   7.266 -0.6241 -0.1006  0.3067
  172SAPE   H6R19486   1.300   0.009   7.270 -0.8163  1.9798 -0.1671
  172SAPE   C2719487   1.120  -0.049   7.398  0.3563 -0.3577  0.1989
  172SAPE   H7R19488   1.188  -0.115   7.455 -0.1912 -0.8162  0.3250
  172SAPE   H7S19489   1.025  -0.095   7.362  0.1428 -0.8845  1.4179
  172SAPE   C2819490   1.083   0.064   7.486  0.8335  0.0075 -0.6020
  172SAPE   H8R19491   1.036   0.144   7.427 -1.8551 -1.0502 -0.0416
  172SAPE   C2919492   1.090   0.068   7.615 -0.0124  0.0615 -0.5182
  172SAPE   H9R19493   1.078   0.165   7.666 -0.7717 -0.2728 -0.0432
  172SAPE  C21019494   1.132  -0.043   7.708 -0.2586  0.0436  0.2274
  172SAPE  H10R19495   1.139  -0.139   7.652 -0.6039 -0.6917  1.4320
  172SAPE  H10S19496   1.052  -0.049   7.784 -0.2570 -0.5388  0.1874
  172SAPE  C21119497   1.263  -0.001   7.771  0.6485  0.2553  0.8317
  172SAPE  H11R19498   1.344   0.021   7.701 -0.0597  0.4284  0.0608
  172SAPE  C21219499   1.294   0.021   7.903 -0.5638  0.1431  0.1511
  172SAPE  H12R19500   1.400   0.045   7.920  0.0958 -2.1923 -0.3083
  172SAPE  C21319501   1.212   0.005   8.029  0.2651 -0.6996  0.0577
  172SAPE  H13R19502   1.224  -0.102   8.058 -0.0631 -1.0024 -0.8975
  172SAPE  H13S19503   1.103   0.017   8.010  0.3105  1.0205  0.6971
  172SAPE  C21419504   1.250   0.090   8.146  0.0693  0.6544  0.4708
  172SAPE  H14R19505   1.218   0.194   8.135 -0.0865  0.5598 -0.0074
  172SAPE  C21519506   1.305   0.060   8.266  0.0620 -0.2063  0.4103
  172SAPE  H15R19507   1.326   0.144   8.335 -0.8073 -0.9803  1.6705
  172SAPE  C21619508   1.355  -0.071   8.324  0.9496  0.5211  0.0231
  172SAPE  H16R19509   1.458  -0.075   8.364  1.0305 -0.3589 -0.2670
  172SAPE  H16S19510   1.384  -0.132   8.236  1.6158 -0.2839  0.7900
  172SAPE  C21719511   1.242  -0.145   8.401  0.7145  0.3368  0.1974
  172SAPE  H17R19512   1.238  -0.111   8.506  0.1810 -1.4552  0.8032
  172SAPE  H17S19513   1.262  -0.254   8.414  0.1486  0.4383  2.2447
  172SAPE  C21819514   1.098  -0.137   8.337 -0.2763 -0.0555  0.1407
  172SAPE  H18R19515   1.104  -0.149   8.227  0.7350 -0.4784  0.2331
  172SAPE  H18S19516   1.049  -0.038   8.350  1.2000  0.6476  0.5074
  172SAPE  C21919517   1.022  -0.257   8.376 -0.1343  0.3077  0.4267
  172SAPE  H19R19518   1.072  -0.342   8.326  0.1742  0.2950  0.7524
  172SAPE  H19S19519   0.920  -0.231   8.340  0.2957  0.3850 -0.7782
  172SAPE  C22019520   1.014  -0.302   8.526  0.1221 -0.2291  0.4660
  172SAPE  H20R19521   0.967  -0.226   8.592 -0.2388 -0.0674  0.0302
  172SAPE  H20S19522   1.117  -0.332   8.555  0.0389 -0.0145  0.9969
  172SAPE  H20T19523   0.960  -0.399   8.534  0.4725 -0.5204 -0.6173
  172SAPE   C3319524   0.578  -0.078   6.806  0.2504  0.0717 -0.0950
  172SAPE   H3X19525   0.485  -0.018   6.805 -0.1999 -0.6165 -1.2513
  172SAPE   H3Y19526   0.663  -0.008   6.791  0.7256 -0.9794 -2.8699
  172SAPE   C3419527   0.576  -0.172   6.932 -0.1841 -0.7736  0.6317
  172SAPE   H4X19528   0.668  -0.233   6.935 -0.5846 -1.4361 -0.1497
  172SAPE   H4Y19529   0.483  -0.233   6.928  0.0889 -1.2633  1.6633
  172SAPE   C3519530   0.583  -0.099   7.060 -0.6207  0.3576 -0.1891
  172SAPE   H5X19531   0.492  -0.038   7.072 -1.1478 -0.0757 -1.8292
  172SAPE   H5Y19532   0.667  -0.027   7.067 -0.9774  0.7683 -0.0827
  172SAPE   C3619533   0.582  -0.189   7.180  0.2190  0.7527 -0.5436
  172SAPE   H6X19534   0.637  -0.284   7.165 -0.0447  0.5819 -0.4324
  172SAPE   H6Y19535   0.475  -0.217   7.193  0.7294 -0.7753  0.7066
  172SAPE   C3719536   0.614  -0.119   7.319 -0.0860 -0.1910 -0.0359
  172SAPE   H7X19537   0.549  -0.029   7.326  1.4057  1.1389 -2.3042
  172SAPE   H7Y19538   0.720  -0.087   7.310 -0.4594  1.4822  0.9782
  172SAPE   C3819539   0.580  -0.209   7.443  0.7465  0.1771  0.2800
  172SAPE   H8X19540   0.542  -0.307   7.406  1.4489  0.6518 -1.7939
  172SAPE   H8Y19541   0.501  -0.149   7.494  0.1409 -0.4510  0.1011
  172SAPE   C3919542   0.695  -0.206   7.532 -0.9611  0.0831 -0.0583
  172SAPE   H9X19543   0.734  -0.105   7.553  0.7053 -0.9406  2.0632
  172SAPE   H9Y19544   0.782  -0.265   7.496 -1.5434 -0.9060  0.0999
  172SAPE  C31019545   0.659  -0.256   7.677 -0.1684 -0.0915  0.4283
  172SAPE  H10X19546   0.603  -0.353   7.676  1.1881 -0.8981 -0.6127
  172SAPE  H10Y19547   0.596  -0.185   7.735  0.8478  2.6235 -1.5966
  172SAPE  C31119548   0.789  -0.280   7.750 -0.1565  0.5608 -0.0940
  172SAPE  H11X19549   0.841  -0.184   7.769  2.5130 -0.9584  0.8056
  172SAPE  H11Y19550   0.861  -0.337   7.688  0.3368 -1.7280  2.3905
  172SAPE  C31219551   0.787  -0.363   7.884  0.9914 -0.7511 -0.6837
  172SAPE  H12X19552   0.723  -0.325   7.967  2.5375 -3.0063  1.6942
  172SAPE  H12Y19553   0.890  -0.344   7.919  1.5021 -0.9830 -2.0039
  172SAPE  C31319554   0.763  -0.514   7.861  0.0466  0.1693 -0.3770
  172SAPE  H13X19555   0.817  -0.538   7.767 -0.8126  0.1960 -0.8962
  172SAPE  H13Y19556   0.656  -0.529   7.836  0.3440  0.0602 -1.6452
  172SAPE  C31419557   0.816  -0.604   7.970  0.5079  0.1288  0.1372
  172SAPE  H14X19558   0.922  -0.571   7.980  0.6008 -0.1809  0.2174
  172SAPE  H14Y19559   0.818  -0.706   7.926  2.4677 -0.0960  0.6481
  172SAPE  C31519560   0.751  -0.606   8.111 -0.5467  0.1613  0.3783
  172SAPE  H15X19561   0.643  -0.629   8.099 -0.8770  2.2275 -1.0901
  172SAPE  H15Y19562   0.736  -0.503   8.150 -0.7901  0.6374 -0.9235
  172SAPE  C31619563   0.817  -0.692   8.210 -0.1240 -0.1036 -0.0596
  172SAPE  H16X19564   0.873  -0.778   8.168 -0.1256  0.0612 -0.4038
  172SAPE  H16Y19565   0.733  -0.747   8.258 -0.8345  1.0350  0.0362
  172SAPE  C31719566   0.893  -0.622   8.327  0.0350  0.6372 -0.0951
  172SAPE  H17X19567   0.869  -0.667   8.426  0.0623  1.4508  0.2868
  172SAPE  H17Y19568   0.859  -0.517   8.336 -1.8852  0.0580 -0.1434
  172SAPE  C31819569   1.043  -0.607   8.285 -0.1769 -0.6223  0.1093
  172SAPE  H18X19570   1.045  -0.543   8.194  0.1193 -0.4320  0.2524
  172SAPE  H18Y19571   1.087  -0.706   8.260  0.7568 -0.2720  0.3333
  172SAPE  H18Z19572   1.102  -0.554   8.362 -0.6909  1.0913 -0.6152
  173SOPE     N19573   1.826   5.373  11.032  0.3687  0.3302 -0.9367
  173SOPE   HN119574   1.885   5.455  11.055  1.7543 -0.3682 -1.8449
  173SOPE   HN219575   1.891   5.292  11.033  0.5748  0.5038  0.0790
  173SOPE   HN319576   1.800   5.373  10.931  0.5571 -0.8091 -1.0045
  173SOPE   C1219577   1.723   5.349  11.139 -0.3472  0.6767 -0.4403
  173SOPE  H12A19578   1.672   5.447  11.148 -1.3073  0.1943 -0.5294
  173SOPE  H12B19579   1.777   5.348  11.237 -1.6838 -1.4600  0.3292
  173SOPE   C1119580   1.631   5.225  11.128 -0.0985  0.1747 -0.5792
  173SOPE  H11A19581   1.574   5.228  11.032  0.2329 -0.5609 -0.8033
  173SOPE  H11B19582   1.545   5.221  11.199 -0.1424 -0.5104 -0.6696
  173SOPE     P19583   1.717   5.000  11.035 -0.2637 -0.5277 -0.0650
  173SOPE   O1319584   1.584   4.949  11.027  0.0173 -0.2168 -0.2940
  173SOPE   O1419585   1.829   4.916  11.067 -0.3376  0.1019 -0.2040
  173SOPE   O1219586   1.713   5.110  11.149  0.7163 -0.2931 -0.3506
  173SOPE   O1119587   1.756   5.077  10.909 -0.2881  0.2045  0.0338
  173SOPE    C119588   1.663   5.091  10.798 -0.1270  0.3133  0.7166
  173SOPE    HA19589   1.679   5.183  10.737 -1.3161  0.1665  0.1578
  173SOPE    HB19590   1.556   5.098  10.828 -0.1521 -2.6753  1.6590
  173SOPE    C219591   1.679   4.978  10.692 -0.3186  0.0969  0.1046
  173SOPE    HS19592   1.677   4.885  10.752  2.7292  0.9951  1.8080
  173SOPE   O2119593   1.808   4.997  10.629  0.7695  0.4709 -0.0446
  173SOPE   C2119594   1.861   4.889  10.583  0.2577  0.2483 -0.3194
  173SOPE   O2219595   1.820   4.776  10.592  0.2332 -0.1772  0.2790
  173SOPE   C2219596   1.989   4.919  10.505  0.2441 -0.0772 -0.0654
  173SOPE   H2R19597   1.997   5.030  10.502  0.1745 -0.0961 -1.5557
  173SOPE   H2S19598   1.960   4.888  10.403  0.4979 -2.3250  0.4808
  173SOPE    C319599   1.563   4.963  10.584 -0.0497  0.4813  0.1679
  173SOPE    HX19600   1.470   4.924  10.631  0.1666 -1.3882 -0.8865
  173SOPE    HY19601   1.587   4.894  10.501  0.5587  1.4732 -0.4974
  173SOPE   O3119602   1.523   5.089  10.532  0.7057  0.1707  0.2389
  173SOPE   C3119603   1.583   5.129  10.419  0.5683  0.7321 -0.5162
  173SOPE   O3219604   1.676   5.070  10.366  0.3823 -0.5898  0.2180
  173SOPE   C3219605   1.504   5.247  10.362 -0.0556 -0.1116 -0.2590
  173SOPE   H2X19606   1.519   5.330  10.434  0.1333  0.6624 -1.1745
  173SOPE   H2Y19607   1.398   5.217  10.368 -0.7226  1.1562 -3.5225
  173SOPE   C2319608   2.119   4.865  10.564 -0.6851  0.3157 -0.3996
  173SOPE   H3R19609   2.110   4.852  10.674 -0.0116 -3.1678 -0.6514
  173SOPE   H3S19610   2.198   4.940  10.543  0.1716 -0.6016 -0.4972
  173SOPE   C2419611   2.148   4.728  10.500  0.0375 -0.8540 -0.5298
  173SOPE   H4R19612   2.241   4.694  10.551 -0.8581 -1.3214  0.8410
  173SOPE   H4S19613   2.065   4.667  10.542 -1.1426  0.0717 -1.4547
  173SOPE   C2519614   2.160   4.721  10.347 -0.1628  0.2078 -0.0999
  173SOPE   H5R19615   2.069   4.684  10.295  0.5281  0.4327 -1.5268
  173SOPE   H5S19616   2.194   4.821  10.310 -0.2109  0.6966  1.1216
  173SOPE   C2619617   2.269   4.625  10.304  0.2553  0.5151 -0.4750
  173SOPE   H6R19618   2.367   4.676  10.318  0.5451  0.1645 -1.1512
  173SOPE   H6S19619   2.266   4.526  10.354 -1.9190  0.6754 -0.1905
  173SOPE   C2719620   2.239   4.603  10.154 -0.1330  0.1823 -0.5809
  173SOPE   H7R19621   2.142   4.549  10.151  0.2148 -0.4653 -0.3424
  173SOPE   H7S19622   2.221   4.702  10.106 -3.4777  1.3943  2.7404
  173SOPE   C2819623   2.346   4.521  10.084 -0.5172 -0.3931  0.5922
  173SOPE   H8R19624   2.390   4.439  10.145  2.6250  0.3582 -0.4519
  173SOPE   H8S19625   2.303   4.463   9.999  3.4085 -1.6542 -0.7579
  173SOPE   C2919626   2.447   4.623  10.040  0.3534  0.8453  0.1751
  173SOPE   H9119627   2.501   4.665  10.127  0.2602 -2.4828  2.0307
  173SOPE  C21019628   2.477   4.650   9.913  0.4255 -0.2806  0.1704
  173SOPE  H10119629   2.571   4.706   9.902  1.0051 -1.5875 -2.1728
  173SOPE  C21119630   2.424   4.586   9.791  0.6941  0.1054  1.0917
  173SOPE  H11R19631   2.439   4.651   9.701 -1.3461  0.5504  1.0170
  173SOPE  H11S19632   2.314   4.568   9.795  0.6406  0.1446  0.1240
  173SOPE  C21219633   2.475   4.448   9.773  0.1086  0.3499  0.5451
  173SOPE  H12R19634   2.439   4.381   9.854  1.7191  1.4827  2.2956
  173SOPE  H12S19635   2.585   4.436   9.785  0.2930  0.4338 -0.8828
  173SOPE  C21319636   2.433   4.389   9.632 -0.0141  0.1178 -0.2588
  173SOPE  H13R19637   2.329   4.420   9.607  0.0609  0.0841 -0.6069
  173SOPE  H13S19638   2.436   4.278   9.623  1.1882 -0.0298  1.5789
  173SOPE  C21419639   2.520   4.448   9.525 -0.2047 -0.1513  0.3798
  173SOPE  H14R19640   2.614   4.388   9.524 -0.2676 -0.2927  1.6480
  173SOPE  H14S19641   2.545   4.555   9.539 -0.1428 -0.3388  1.8921
  173SOPE  C21519642   2.465   4.434   9.388  0.0347 -0.2163  0.5896
  173SOPE  H15R19643   2.441   4.329   9.361 -1.1273  0.4052 -0.9776
  173SOPE  H15S19644   2.537   4.464   9.309  0.7474 -1.7529  0.6255
  173SOPE  C21619645   2.343   4.526   9.362 -0.4319  0.3033 -0.0325
  173SOPE  H16R19646   2.370   4.626   9.402  1.2639  0.8124 -2.2106
  173SOPE  H16S19647   2.263   4.483   9.425  1.2514 -1.7552  0.8070
  173SOPE  C21719648   2.285   4.521   9.221 -0.3102  0.1661  0.8097
  173SOPE  H17R19649   2.354   4.584   9.161 -0.3026  0.3898  1.0489
  173SOPE  H17S19650   2.180   4.558   9.227 -0.0534  0.6684  3.0575
  173SOPE  C21819651   2.271   4.371   9.175 -0.2782 -0.1845  0.2339
  173SOPE  H18R19652   2.227   4.316   9.261 -1.3388 -1.9828 -1.3795
  173SOPE  H18S19653   2.366   4.327   9.138  0.6664  2.7372 -1.1174
  173SOPE  H18T19654   2.197   4.363   9.093 -1.2311  0.6465  0.9836
  173SOPE   C3319655   1.543   5.280  10.215 -1.0247  0.0401 -0.1193
  173SOPE   H3X19656   1.650   5.251  10.204 -1.8252 -2.2444 -3.1580
  173SOPE   H3Y19657   1.526   5.388  10.194 -0.6611 -0.0261 -0.7775
  173SOPE   C3419658   1.452   5.198  10.120  0.1046 -0.4598  0.2170
  173SOPE   H4X19659   1.351   5.242  10.109 -0.0491 -0.1486  2.5485
  173SOPE   H4Y19660   1.458   5.090  10.146  0.0370 -0.6380 -0.4811
  173SOPE   C3519661   1.505   5.213   9.975 -0.5209 -0.3203 -0.1107
  173SOPE   H5X19662   1.605   5.166   9.971 -0.5105 -0.3493  0.4658
  173SOPE   H5Y19663   1.516   5.322   9.955 -1.6693 -0.2956 -0.7364
  173SOPE   C3619664   1.421   5.155   9.867 -0.1949  0.0003 -0.7643
  173SOPE   H6X19665   1.315   5.183   9.881 -0.3121 -1.4360  1.8009
  173SOPE   H6Y19666   1.433   5.045   9.877  0.6027  0.3078  2.9067
  173SOPE   C3719667   1.463   5.197   9.730 -0.3789 -0.2496 -0.0927
  173SOPE   H7X19668   1.559   5.144   9.711 -0.2978 -0.0696 -0.1850
  173SOPE   H7Y19669   1.481   5.305   9.713  0.0499  0.0612  2.0640
  173SOPE   C3819670   1.372   5.142   9.618  0.6522  0.1104 -0.2468
  173SOPE   H8X19671   1.275   5.196   9.622 -0.4605 -1.8558  2.5412
  173SOPE   H8Y19672   1.352   5.034   9.635 -1.4689 -0.0986 -3.3054
  173SOPE   C3919673   1.437   5.159   9.477  0.9016  0.1456  0.2446
  173SOPE   H9X19674   1.511   5.077   9.468 -0.1937 -1.1592  2.3288
  173SOPE   H9Y19675   1.496   5.252   9.467  2.6421 -0.9383  0.1252
  173SOPE  C31019676   1.332   5.136   9.364 -0.1619  0.2233 -0.1919
  173SOPE  H10X19677   1.241   5.195   9.387  0.9924  1.6254  1.0179
  173SOPE  H10Y19678   1.312   5.027   9.363 -1.1678  0.3677  1.4161
  173SOPE  C31119679   1.382   5.192   9.229 -0.4826 -0.7028 -0.4179
  173SOPE  H11X19680   1.384   5.302   9.245  0.7871 -0.7851  0.1102
  173SOPE  H11Y19681   1.306   5.166   9.152 -4.0186  2.5937  1.6209
  173SOPE  C31219682   1.522   5.143   9.197  0.2548  0.4041  0.0995
  173SOPE  H12X19683   1.536   5.049   9.254  0.5343 -0.5729 -1.5076
  173SOPE  H12Y19684   1.606   5.213   9.217 -1.0230  1.6151  1.4440
  173SOPE  C31319685   1.541   5.101   9.051 -0.1207 -0.2199 -0.0576
  173SOPE  H13X19686   1.551   5.198   8.998 -2.3152  1.2571  2.0217
  173SOPE  H13Y19687   1.444   5.059   9.016  0.4780 -0.1549 -1.9370
  173SOPE  C31419688   1.661   5.009   9.022  0.4261  0.2469 -0.3628
  173SOPE  H14X19689   1.628   4.913   9.068  0.5125 -0.3927 -1.5884
  173SOPE  H14Y19690   1.758   5.043   9.064 -0.4605  1.0947  1.0938
  173SOPE  C31519691   1.668   4.977   8.867  0.2494  0.3367 -0.1824
  173SOPE  H15X19692   1.749   4.901   8.859 -0.8378 -0.7359 -1.3722
  173SOPE  H15Y19693   1.691   5.070   8.811 -0.1509 -0.3740 -1.5704
  173SOPE  C31619694   1.540   4.918   8.815  0.0030 -0.6059  0.5474
  173SOPE  H16X19695   1.463   4.995   8.791  1.5185  0.3393 -1.5751
  173SOPE  H16Y19696   1.502   4.847   8.891  1.1738 -0.8094  0.9628
  173SOPE  C31719697   1.564   4.847   8.678  0.0919 -0.4026 -0.1899
  173SOPE  H17X19698   1.465   4.815   8.639  1.1185 -1.5566 -1.9835
  173SOPE  H17Y19699   1.631   4.759   8.685  1.3774  0.6536  3.2004
  173SOPE  C31819700   1.624   4.937   8.571 -0.4120 -0.0413 -0.0772
  173SOPE  H18X19701   1.576   5.038   8.568  0.2638  0.2642 -1.3330
  173SOPE  H18Y19702   1.621   4.898   8.467  2.0550  0.8476 -0.5517
  173SOPE  H18Z19703   1.729   4.965   8.592 -0.2025  1.4617 -2.6625
  174SOPE     N19704   0.426   5.408  10.911  0.1269  0.1935 -0.6538
  174SOPE   HN119705   0.503   5.438  10.974  1.0238 -2.3028 -0.4411
  174SOPE   HN219706   0.343   5.457  10.949  1.2236  0.1359  2.0687
  174SOPE   HN319707   0.408   5.305  10.918 -0.8121  0.3947  0.0130
  174SOPE   C1219708   0.464   5.452  10.771 -0.2277  0.1246 -0.4614
  174SOPE  H12A19709   0.523   5.546  10.776 -1.4348  0.9104 -0.6201
  174SOPE  H12B19710   0.368   5.471  10.719 -1.0598 -1.2621  0.5110
  174SOPE   C1119711   0.551   5.348  10.699  0.0079 -0.4065  0.5864
  174SOPE  H11A19712   0.579   5.402  10.606 -0.5212  1.3429  1.4168
  174SOPE  H11B19713   0.478   5.266  10.682 -1.9581  1.0116  1.8224
  174SOPE     P19714   0.802   5.314  10.752  0.0357  0.0741  0.0432
  174SOPE   O1319715   0.869   5.198  10.819 -0.1668  0.6341 -0.2809
  174SOPE   O1419716   0.838   5.449  10.797 -0.2864 -0.3650 -0.6037
  174SOPE   O1219717   0.656   5.301  10.784 -0.3770  0.5057  0.5099
  174SOPE   O1119718   0.827   5.314  10.595  0.5522  0.5100 -0.6691
  174SOPE    C119719   0.770   5.206  10.513 -0.1604  0.0680 -0.0845
  174SOPE    HA19720   0.803   5.225  10.409  1.1498 -1.1434  0.0694
  174SOPE    HB19721   0.660   5.217  10.510 -0.0859  0.6189 -2.5305
  174SOPE    C219722   0.821   5.059  10.543  0.4381  0.1866  0.1784
  174SOPE    HS19723   0.808   5.048  10.653 -2.2112 -0.5065 -0.1364
  174SOPE   O2119724   0.960   5.049  10.509 -0.1375  0.2009 -0.0235
  174SOPE   C2119725   1.033   4.956  10.570 -0.5048  0.0310  0.0027
  174SOPE   O2219726   0.992   4.875  10.649 -0.0080  0.1477  0.3611
  174SOPE   C2219727   1.188   4.975  10.520 -0.0780 -0.2215  0.0418
  174SOPE   H2R19728   1.245   4.917  10.596  0.1018  0.0406  0.1092
  174SOPE   H2S19729   1.221   5.081  10.515  0.8882 -0.5493 -0.6481
  174SOPE    C319730   0.725   4.960  10.472 -0.5720 -0.2019 -0.6361
  174SOPE    HX19731   0.708   4.996  10.368 -0.0350  0.0736 -0.6322
  174SOPE    HY19732   0.628   4.959  10.525  0.4815  1.4438  1.4397
  174SOPE   O3119733   0.781   4.830  10.452 -0.0154  0.0918  0.6927
  174SOPE   C3119734   0.750   4.746  10.547 -0.0923  0.9120 -0.3484
  174SOPE   O3219735   0.695   4.772  10.649  0.4354 -0.2784  0.4593
  174SOPE   C3219736   0.811   4.606  10.518  0.4766  0.0036 -0.1086
  174SOPE   H2X19737   0.725   4.554  10.471 -1.3882  2.2217  0.6483
  174SOPE   H2Y19738   0.835   4.548  10.610 -0.5791  0.6559  0.6045
  174SOPE   C2319739   1.213   4.899  10.394  0.2688 -1.0004  0.6306
  174SOPE   H3R19740   1.183   4.792  10.399  0.9833 -1.1694  1.4224
  174SOPE   H3S19741   1.324   4.898  10.393  0.2956 -0.2417  1.5805
  174SOPE   C2419742   1.141   4.961  10.276  0.0291  0.2133 -0.2197
  174SOPE   H4R19743   1.035   4.941  10.301 -0.1251 -2.6852 -2.6211
  174SOPE   H4S19744   1.150   5.072  10.280 -1.3044  0.3236  0.3765
  174SOPE   C2519745   1.180   4.882  10.153  0.0524  0.4414 -0.3321
  174SOPE   H5R19746   1.278   4.926  10.125  0.1642  0.1000 -0.4857
  174SOPE   H5S19747   1.192   4.777  10.185  1.2328  0.8357  0.5764
  174SOPE   C2619748   1.086   4.899  10.031 -0.4099  0.1848 -0.2439
  174SOPE   H6R19749   1.091   4.998   9.980 -0.3227 -1.4815 -3.7888
  174SOPE   H6S19750   1.126   4.835   9.950  0.1657 -0.0068  0.1864
  174SOPE   C2719751   0.937   4.868  10.060  0.3935  0.0729  0.0335
  174SOPE   H7R19752   0.908   4.768  10.100 -1.7202  0.4554 -0.4304
  174SOPE   H7S19753   0.916   4.935  10.146  2.0372  0.8907 -0.1588
  174SOPE   C2819754   0.843   4.900   9.939  0.4811 -0.2069 -0.5081
  174SOPE   H8R19755   0.739   4.895   9.977  0.8512 -4.1209  0.4077
  174SOPE   H8S19756   0.854   5.008   9.917 -0.6814  0.4251  1.7598
  174SOPE   C2919757   0.867   4.810   9.816  0.8840  0.4930 -0.6632
  174SOPE   H9119758   0.816   4.712   9.816  1.3488  0.2329  0.4014
  174SOPE  C21019759   0.939   4.828   9.706  0.8792  0.8017 -0.9422
  174SOPE  H10119760   0.937   4.745   9.634  0.6188 -0.0353  0.0211
  174SOPE  C21119761   1.029   4.934   9.661 -0.0064 -0.5232  0.1109
  174SOPE  H11R19762   1.116   4.881   9.617 -1.9606 -5.9061  1.8509
  174SOPE  H11S19763   1.050   4.992   9.753  2.1569 -0.8433 -0.1405
  174SOPE  C21219764   0.977   5.029   9.555  0.6430 -0.5192  0.6690
  174SOPE  H12R19765   1.058   5.097   9.523  2.1439 -3.1196 -1.4924
  174SOPE  H12S19766   0.890   5.088   9.591  0.4010 -0.6681  0.3475
  174SOPE  C21319767   0.935   4.962   9.422  0.5874 -0.3872  0.0193
  174SOPE  H13R19768   0.837   4.908   9.424  0.2816  0.1812  1.2226
  174SOPE  H13S19769   1.016   4.887   9.407  0.3256 -1.1881  2.1871
  174SOPE  C21419770   0.911   5.061   9.306 -0.7751  0.2234 -1.2711
  174SOPE  H14R19771   1.009   5.107   9.282  0.0921 -0.0557  1.4556
  174SOPE  H14S19772   0.849   5.140   9.352 -0.5519 -1.5030  2.2874
  174SOPE  C21519773   0.849   4.993   9.185  0.0547 -0.1562 -0.0524
  174SOPE  H15R19774   0.752   4.957   9.225  0.6910  0.1280  1.8585
  174SOPE  H15S19775   0.909   4.903   9.159 -0.0455 -0.7382  1.5903
  174SOPE  C21619776   0.836   5.097   9.079 -0.3338 -0.0780 -0.4116
  174SOPE  H16R19777   0.933   5.139   9.045 -0.4171 -0.0865 -0.6640
  174SOPE  H16S19778   0.775   5.185   9.107  0.9479  1.2394 -1.6108
  174SOPE  C21719779   0.770   5.041   8.945  0.0423 -0.0131  0.5365
  174SOPE  H17R19780   0.672   4.995   8.971 -0.6557  1.6117  0.9288
  174SOPE  H17S19781   0.844   4.967   8.909  0.1495  0.3894 -0.0919
  174SOPE  C21819782   0.753   5.149   8.839  0.1583 -0.0364  0.0626
  174SOPE  H18R19783   0.853   5.191   8.815 -0.5358  1.4458 -0.3690
  174SOPE  H18S19784   0.690   5.239   8.854 -0.4424 -0.5487  0.6335
  174SOPE  H18T19785   0.722   5.090   8.750 -1.1634 -1.1035  1.1923
  174SOPE   C3319786   0.918   4.603  10.407 -0.1293  0.3957 -0.2714
  174SOPE   H3X19787   1.006   4.658  10.448  0.6177 -0.4236 -0.7244
  174SOPE   H3Y19788   0.877   4.653  10.317 -0.2953 -1.4116 -1.2480
  174SOPE   C3419789   0.969   4.462  10.369  0.0711  0.6082 -0.0574
  174SOPE   H4X19790   0.888   4.411  10.313 -1.1128 -0.4718  2.4888
  174SOPE   H4Y19791   0.992   4.413  10.466 -1.0273  0.3985  0.1091
  174SOPE   C3519792   1.082   4.456  10.273 -0.5751  0.1936 -0.0808
  174SOPE   H5X19793   1.106   4.349  10.255 -0.7619  0.3108 -1.1208
  174SOPE   H5Y19794   1.180   4.494  10.307  0.9669 -3.0733 -0.4668
  174SOPE   C3619795   1.052   4.513  10.128  0.2315  0.2865 -0.7198
  174SOPE   H6X19796   1.048   4.624  10.124 -2.3035  0.2285 -0.9562
  174SOPE   H6Y19797   0.959   4.468  10.087 -0.6972 -0.7202  2.2503
  174SOPE   C3719798   1.169   4.466  10.036 -0.3383 -0.0777  0.1856
  174SOPE   H7X19799   1.147   4.367   9.992 -0.9541  0.3283 -0.4329
  174SOPE   H7Y19800   1.261   4.459  10.098 -1.7757  0.0040  2.4388
  174SOPE   C3819801   1.189   4.557   9.917 -0.0437  0.3024 -0.7933
  174SOPE   H8X19802   1.197   4.662   9.951 -0.6401  0.1524 -0.1727
  174SOPE   H8Y19803   1.108   4.549   9.841 -0.7245  1.2581 -0.1866
  174SOPE   C3919804   1.317   4.533   9.830  0.0528  0.1537  0.3430
  174SOPE   H9X19805   1.324   4.431   9.786 -1.0533  0.0207  0.4604
  174SOPE   H9Y19806   1.407   4.533   9.895 -1.2571  0.2029  2.2169
  174SOPE  C31019807   1.334   4.643   9.723  0.1869  0.3672  0.5678
  174SOPE  H10X19808   1.437   4.683   9.722  0.0764  0.6809 -1.2924
  174SOPE  H10Y19809   1.264   4.722   9.757 -0.8083  0.7099 -2.0424
  174SOPE  C31119810   1.317   4.589   9.574  0.1760  0.3167 -0.1825
  174SOPE  H11X19811   1.215   4.546   9.571 -0.8761  2.4188  2.1714
  174SOPE  H11Y19812   1.393   4.511   9.551  0.9861  0.4344  1.8421
  174SOPE  C31219813   1.321   4.698   9.465 -0.2283  0.1671 -0.2112
  174SOPE  H12X19814   1.420   4.748   9.474  0.0564  0.0806 -2.3121
  174SOPE  H12Y19815   1.238   4.769   9.485  1.4643  2.4986 -0.9506
  174SOPE  C31319816   1.313   4.649   9.319  0.5912  0.3114 -0.4373
  174SOPE  H13X19817   1.232   4.575   9.306  1.5716 -0.5286 -1.9645
  174SOPE  H13Y19818   1.410   4.596   9.315 -0.2358 -1.2436 -0.4814
  174SOPE  C31419819   1.273   4.751   9.217 -0.2257 -0.3638 -0.2134
  174SOPE  H14X19820   1.338   4.841   9.220 -0.8567  0.0725  0.9941
  174SOPE  H14Y19821   1.169   4.783   9.240 -0.5687 -0.8621 -1.0218
  174SOPE  C31519822   1.276   4.685   9.079  0.6664  0.2291 -1.3411
  174SOPE  H15X19823   1.218   4.592   9.099 -2.0324  2.2973  1.4475
  174SOPE  H15Y19824   1.383   4.672   9.055  1.1343 -1.2633  1.2156
  174SOPE  C31619825   1.208   4.764   8.977 -0.2735 -0.1141  0.3411
  174SOPE  H16X19826   1.265   4.856   8.953 -0.8445  0.3970  0.9050
  174SOPE  H16Y19827   1.106   4.789   9.013  0.4914  0.5700  2.1684
  174SOPE  C31719828   1.196   4.683   8.849 -0.7580  0.1960 -0.1449
  174SOPE  H17X19829   1.160   4.581   8.875  2.3073 -1.4108 -1.6275
  174SOPE  H17Y19830   1.296   4.666   8.802 -0.9006 -3.3785  0.5248
  174SOPE  C31819831   1.109   4.747   8.738  0.0612 -0.4102  0.0241
  174SOPE  H18X19832   1.138   4.853   8.721  1.7985 -0.4328  2.3754
  174SOPE  H18Y19833   1.000   4.746   8.760  0.0701 -0.8104  0.0641
  174SOPE  H18Z19834   1.135   4.694   8.644  1.9642 -0.8452  0.7516
  175SOPE     N19835   3.664   4.691  10.778 -0.0742 -0.0123  0.6212
  175SOPE   HN119836   3.601   4.708  10.698  2.7906  0.3017 -1.7169
  175SOPE   HN219837   3.716   4.603  10.756  0.6353  0.3592  0.7735
  175SOPE   HN319838   3.602   4.671  10.859 -2.1321 -0.3758 -0.9733
  175SOPE   C1219839   3.771   4.791  10.804 -0.4711  0.3219 -0.1740
  175SOPE  H12A19840   3.837   4.765  10.890  0.9506  0.9958 -1.0260
  175SOPE  H12B19841   3.726   4.892  10.801 -0.6545  0.2669  0.6117
  175SOPE   C1119842   3.871   4.792  10.681 -0.5212 -0.3567 -0.9421
  175SOPE  H11A19843   3.834   4.809  10.578  2.7737  1.6378 -1.9397
  175SOPE  H11B19844   3.907   4.688  10.661 -1.1930 -1.2176  1.9273
  175SOPE     P19845   3.985   5.035  10.677 -0.0522 -0.3084 -0.5589
  175SOPE   O1319846   4.123   5.086  10.700  0.8789  0.4442 -0.5069
  175SOPE   O1419847   3.883   5.103  10.759  0.6117 -0.9254  0.0250
  175SOPE   O1219848   3.982   4.879  10.708 -0.4100 -0.1752  0.2839
  175SOPE   O1119849   3.961   5.053  10.524 -0.2147 -0.0561  0.2462
  175SOPE    C119850   4.061   5.005  10.433  0.7094 -0.2379  0.5980
  175SOPE    HA19851   4.067   4.894  10.425 -2.7638 -0.7595  2.7941
  175SOPE    HB19852   4.157   5.051  10.464  0.5279 -1.0792  2.6072
  175SOPE    C219853   4.037   5.058  10.295 -0.1847 -0.0297 -0.1937
  175SOPE    HS19854   4.042   5.169  10.296  1.7691 -0.0808  0.5314
  175SOPE   O2119855   3.921   5.004  10.232 -0.1012 -0.1577  0.5120
  175SOPE   C2119856   3.842   5.089  10.163  0.6537  0.0351 -0.1801
  175SOPE   O2219857   3.858   5.213  10.152  0.4188 -0.2548  0.1061
  175SOPE   C2219858   3.732   5.004  10.095 -0.0646  0.2644  0.7909
  175SOPE   H2R19859   3.653   4.991  10.172 -1.1577  1.3434 -0.1074
  175SOPE   H2S19860   3.775   4.905  10.066 -2.6304 -1.1108  1.3299
  175SOPE    C319861   4.156   5.027  10.199 -0.1329  0.0269  0.0795
  175SOPE    HX19862   4.168   4.917  10.202 -1.7759 -0.3845 -3.3147
  175SOPE    HY19863   4.255   5.063  10.234 -1.3555  3.6464  0.2669
  175SOPE   O3119864   4.131   5.065  10.061 -0.1177 -0.5064 -0.0822
  175SOPE   C3119865   4.160   5.188  10.033  0.4062 -0.3042  0.7231
  175SOPE   O3219866   4.195   5.276  10.117  0.0712  0.3789 -0.4658
  175SOPE   C3219867   4.149   5.203   9.881 -0.0566  0.1634 -0.1505
  175SOPE   H2X19868   4.093   5.111   9.854 -0.1494  0.9465 -2.8856
  175SOPE   H2Y19869   4.252   5.196   9.839  0.0230 -2.2870  0.2785
  175SOPE   C2319870   3.666   5.065   9.970  0.3210  0.1741  0.6028
  175SOPE   H3R19871   3.662   5.174   9.993  0.7967  0.4498 -0.5549
  175SOPE   H3S19872   3.563   5.025   9.962  0.8021 -0.8569 -1.0624
  175SOPE   C2419873   3.747   5.021   9.847 -0.7271 -0.0257  0.1264
  175SOPE   H4R19874   3.853   5.055   9.851 -1.2869  1.7518  0.9738
  175SOPE   H4S19875   3.729   4.912   9.837 -1.8234 -0.0233  1.7972
  175SOPE   C2519876   3.701   5.091   9.722 -0.2736 -0.4764  0.0553
  175SOPE   H5R19877   3.590   5.082   9.721 -0.3042 -0.3044  1.0098
  175SOPE   H5S19878   3.706   5.201   9.733 -1.3061 -0.3323 -0.7192
  175SOPE   C2619879   3.758   5.033   9.597 -0.4813  0.6479 -0.3603
  175SOPE   H6R19880   3.868   5.050   9.598 -0.1797 -0.8838 -2.2440
  175SOPE   H6S19881   3.756   4.922   9.593 -0.1581  0.5870  0.6885
  175SOPE   C2719882   3.708   5.080   9.453 -0.0573 -0.1681  0.3968
  175SOPE   H7R19883   3.598   5.069   9.444  0.1230 -0.5559 -1.7813
  175SOPE   H7S19884   3.719   5.190   9.438 -2.6933 -0.0949 -1.7816
  175SOPE   C2819885   3.793   5.019   9.341  0.0787 -0.0025  1.2464
  175SOPE   H8R19886   3.768   5.085   9.256  0.0780  0.0381  1.2777
  175SOPE   H8S19887   3.903   5.031   9.352  0.2107  0.2798 -0.1467
  175SOPE   C2919888   3.769   4.871   9.311 -0.8526 -0.5172  0.1880
  175SOPE   H9119889   3.712   4.829   9.396 -3.8004  1.9405 -0.3978
  175SOPE  C21019890   3.775   4.804   9.196 -0.0741 -0.6791 -0.3431
  175SOPE  H10119891   3.742   4.699   9.200 -1.1926 -0.3628 -0.9620
  175SOPE  C21119892   3.834   4.851   9.063  0.5564  0.0891 -0.5870
  175SOPE  H11R19893   3.934   4.892   9.087 -0.0750  0.7763  1.0417
  175SOPE  H11S19894   3.772   4.928   9.013  0.7482 -0.4330 -1.6484
  175SOPE  C21219895   3.854   4.751   8.950  0.0233  0.3245 -0.2439
  175SOPE  H12R19896   3.928   4.677   8.989 -0.6939 -0.4031 -0.2311
  175SOPE  H12S19897   3.902   4.802   8.864  0.7943  1.0463  0.5979
  175SOPE  C21319898   3.724   4.684   8.887 -0.1696  0.1383 -0.7967
  175SOPE  H13R19899   3.652   4.765   8.862 -1.5316 -0.9333 -0.4926
  175SOPE  H13S19900   3.676   4.623   8.966 -2.8141  0.9991 -1.6448
  175SOPE  C21419901   3.754   4.595   8.761 -0.6390  0.0942  0.2997
  175SOPE  H14R19902   3.832   4.529   8.805 -0.5385  0.1372  0.1859
  175SOPE  H14S19903   3.804   4.658   8.684 -1.1689  2.8294  2.0505
  175SOPE  C21519904   3.632   4.513   8.726 -0.1270 -0.5271  0.2230
  175SOPE  H15R19905   3.546   4.582   8.713  1.1302  1.0012 -0.4011
  175SOPE  H15S19906   3.606   4.449   8.813 -0.4529 -1.5059 -0.5803
  175SOPE  C21619907   3.632   4.431   8.593  0.2162  0.1347  0.4350
  175SOPE  H16R19908   3.525   4.410   8.571 -0.3170  3.1442 -0.2497
  175SOPE  H16S19909   3.691   4.338   8.611  2.0721  0.7745 -1.7892
  175SOPE  C21719910   3.689   4.509   8.474 -0.5777 -0.2356  0.0015
  175SOPE  H17R19911   3.793   4.475   8.455 -0.8459 -0.1824 -1.7044
  175SOPE  H17S19912   3.690   4.618   8.496 -1.0818  0.3437 -2.5430
  175SOPE  C21819913   3.607   4.486   8.343 -0.7930  0.4161 -0.6963
  175SOPE  H18R19914   3.598   4.378   8.320 -2.6328  0.1547  0.9630
  175SOPE  H18S19915   3.656   4.540   8.259 -0.7352  1.8140  0.2016
  175SOPE  H18T19916   3.508   4.531   8.365 -0.7354  0.1566  0.1388
  175SOPE   C3319917   4.084   5.337   9.848  0.3395  0.5195  1.0971
  175SOPE   H3X19918   4.146   5.420   9.887  0.8320  0.4583  0.4727
  175SOPE   H3Y19919   3.982   5.325   9.889 -0.2670 -3.1258 -0.9978
  175SOPE   C3419920   4.074   5.348   9.690  0.0401  0.4500  0.1912
  175SOPE   H4X19921   4.019   5.260   9.648 -1.5754  1.6558 -0.3078
  175SOPE   H4Y19922   4.175   5.350   9.645 -0.5054 -2.7990 -1.5222
  175SOPE   C3519923   4.006   5.479   9.660  0.3660  0.2546 -0.0999
  175SOPE   H5X19924   4.071   5.555   9.708  0.3760 -0.0269  0.3348
  175SOPE   H5Y19925   3.902   5.485   9.698 -0.5424 -0.8725 -2.2162
  175SOPE   C3619926   3.994   5.508   9.512 -0.9919  0.1927  0.4452
  175SOPE   H6X19927   3.917   5.445   9.462  0.0792  0.0438 -1.0893
  175SOPE   H6Y19928   4.088   5.475   9.462 -1.4970 -1.6674  0.6434
  175SOPE   C3719929   3.990   5.653   9.473  0.6835  0.8459 -0.0080
  175SOPE   H7X19930   4.081   5.700   9.515 -0.7741  2.0469  1.9405
  175SOPE   H7Y19931   3.902   5.698   9.523 -0.6133 -0.8892 -0.6330
  175SOPE   C3819932   3.971   5.690   9.327  0.4232 -0.3730  0.2430
  175SOPE   H8X19933   3.977   5.799   9.309 -1.0034 -0.4155 -0.6434
  175SOPE   H8Y19934   3.865   5.664   9.308  0.3047  0.5418 -0.3784
  175SOPE   C3919935   4.062   5.622   9.227  0.0766  0.3062 -0.1174
  175SOPE   H9X19936   4.043   5.512   9.231  2.3995 -0.2203 -1.6747
  175SOPE   H9Y19937   4.167   5.644   9.254 -0.6886  4.0023  0.2738
  175SOPE  C31019938   4.044   5.669   9.080 -0.3648 -0.6972 -0.1209
  175SOPE  H10X19939   4.068   5.777   9.070 -1.0464 -0.4361  0.8795
  175SOPE  H10Y19940   3.936   5.660   9.054 -0.7144  1.7671  0.3080
  175SOPE  C31119941   4.135   5.606   8.986 -0.3069  0.9347  0.2534
  175SOPE  H11X19942   4.164   5.500   9.003 -1.1143  0.3236 -1.8558
  175SOPE  H11Y19943   4.230   5.661   8.999 -0.6172  1.1567  1.7349
  175SOPE  C31219944   4.102   5.607   8.841  0.4377 -0.4244 -0.0222
  175SOPE  H12X19945   4.190   5.568   8.785  0.2224 -2.2492  0.8175
  175SOPE  H12Y19946   4.092   5.716   8.822 -0.0775 -0.4752 -0.0605
  175SOPE  C31319947   3.977   5.527   8.806 -0.8373 -0.2641  0.3306
  175SOPE  H13X19948   3.893   5.583   8.852 -0.5620 -2.2109  3.4734
  175SOPE  H13Y19949   3.960   5.423   8.841 -1.6848 -1.2516 -2.6811
  175SOPE  C31419950   3.964   5.529   8.654 -0.0334 -1.0213  0.2616
  175SOPE  H14X19951   4.039   5.466   8.601  0.4214 -0.5656  0.3592
  175SOPE  H14Y19952   3.979   5.636   8.628 -1.5831 -0.4728  1.4751
  175SOPE  C31519953   3.816   5.507   8.610 -0.3451  0.5317  0.5280
  175SOPE  H15X19954   3.763   5.602   8.633 -0.2484  0.4902  0.9378
  175SOPE  H15Y19955   3.780   5.418   8.667 -2.5927  2.3105  2.0885
  175SOPE  C31619956   3.804   5.491   8.460  0.1220  0.3976 -0.2484
  175SOPE  H16X19957   3.874   5.416   8.417  0.9775  1.3902 -0.6407
  175SOPE  H16Y19958   3.832   5.590   8.417 -2.2121  1.1616 -0.1619
  175SOPE  C31719959   3.669   5.461   8.406  0.0186 -0.3856 -0.2999
  175SOPE  H17X19960   3.631   5.374   8.464 -2.8246 -0.6412 -2.3216
  175SOPE  H17Y19961   3.679   5.431   8.300  2.4099  1.0224 -0.5472
  175SOPE  C31819962   3.564   5.573   8.421  0.2572 -0.7589  0.2694
  175SOPE  H18X19963   3.462   5.540   8.390  0.4865 -0.9578 -0.2884
  175SOPE  H18Y19964   3.601   5.651   8.351 -1.7703 -0.9391 -1.0989
  175SOPE  H18Z19965   3.546   5.616   8.521 -3.6390  2.4729 -1.5213
  176SOPE     N19966   3.677   5.288  10.699 -0.3340 -0.6702 -0.5605
  176SOPE   HN119967   3.744   5.211  10.722 -0.1315 -0.6481 -1.0663
  176SOPE   HN219968   3.675   5.295  10.595 -1.1604 -0.9036 -0.5630
  176SOPE   HN319969   3.699   5.380  10.742 -0.4311 -0.9297  0.0525
  176SOPE   C1219970   3.547   5.245  10.752 -0.1378  0.7383 -0.0773
  176SOPE  H12A19971   3.480   5.334  10.743 -1.1668 -0.0674 -0.6147
  176SOPE  H12B19972   3.557   5.214  10.858 -2.8126 -1.7572 -0.4101
  176SOPE   C1119973   3.499   5.119  10.669  0.0314  0.0380 -1.1623
  176SOPE  H11A19974   3.591   5.067  10.634  0.7407  0.2974  0.2355
  176SOPE  H11B19975   3.444   5.155  10.579  0.3355 -0.0747 -1.3957
  176SOPE     P19976   3.368   4.895  10.701  0.2111  0.7188  0.2355
  176SOPE   O1319977   3.303   4.820  10.814  0.5397  0.8047 -0.8796
  176SOPE   O1419978   3.479   4.820  10.642  0.0776  0.1890  0.7120
  176SOPE   O1219979   3.419   5.041  10.749 -0.4434  0.1900 -0.3020
  176SOPE   O1119980   3.252   4.924  10.596  0.2649  0.2427  0.0102
  176SOPE    C119981   3.158   5.032  10.595  0.3454 -0.0382  0.4601
  176SOPE    HA19982   3.196   5.121  10.649  0.9148  0.6004 -0.9459
  176SOPE    HB19983   3.067   4.992  10.646 -0.3677 -2.9501 -2.7371
  176SOPE    C219984   3.114   5.068  10.450  0.2369  0.4704 -0.1854
  176SOPE    HS19985   3.082   4.970  10.408  1.6020  0.1968 -0.6479
  176SOPE   O2119986   3.229   5.114  10.384 -0.3504 -0.0790 -0.2749
  176SOPE   C2119987   3.234   5.104  10.252  0.0037  0.3523 -0.2898
  176SOPE   O2219988   3.145   5.060  10.179  0.2882 -0.0229  0.0961
  176SOPE   C2219989   3.366   5.160  10.210  0.5260  0.1189  0.4150
  176SOPE   H2R19990   3.435   5.074  10.211 -0.2363 -0.5127 -0.1210
  176SOPE   H2S19991   3.399   5.242  10.278  0.1579  0.3076  0.3711
  176SOPE    C319992   3.006   5.184  10.447 -0.7834  0.7255 -0.1340
  176SOPE    HX19993   3.055   5.276  10.485  0.2713 -0.5215  1.6949
  176SOPE    HY19994   2.932   5.162  10.527  1.6018 -0.2464  1.9420
  176SOPE   O3119995   2.947   5.195  10.318 -0.2357 -0.3630 -0.1965
  176SOPE   C3119996   2.861   5.113  10.268  0.0136  0.0932 -0.5703
  176SOPE   O3219997   2.818   5.011  10.315 -0.5538 -0.4037 -0.0020
  176SOPE   C3219998   2.811   5.186  10.139  0.0796  1.0737 -0.0889
  176SOPE   H2X19999   2.906   5.229  10.101  1.0947  0.2471  1.4222
  176SOPE   H2Y20000   2.737   5.263  10.169 -1.7974 -1.5592  2.5290
  176SOPE   C2320001   3.353   5.215  10.069  0.8885 -0.2004  0.6593
  176SOPE   H3R20002   3.303   5.140  10.004 -0.6901  0.6861  0.7874
  176SOPE   H3S20003   3.455   5.236  10.032 -0.3229  2.9265 -1.2965
  176SOPE   C2420004   3.268   5.342  10.063  0.2771 -0.5391  0.2260
  176SOPE   H4R20005   3.172   5.334  10.117 -0.9594  0.9790 -1.6054
  176SOPE   H4S20006   3.335   5.424  10.098 -0.8455  0.5266 -0.0606
  176SOPE   C2520007   3.232   5.382   9.919  0.0510  0.4649  0.3895
  176SOPE   H5R20008   3.213   5.287   9.863  1.8758  1.2119 -1.6665
  176SOPE   H5S20009   3.151   5.457   9.919  1.0807  1.8377 -3.6391
  176SOPE   C2620010   3.343   5.454   9.852 -0.3678 -0.2133 -0.3192
  176SOPE   H6R20011   3.360   5.549   9.907 -1.9497  0.7811 -1.4480
  176SOPE   H6S20012   3.440   5.400   9.849  0.8800  1.8015  1.4451
  176SOPE   C2720013   3.304   5.491   9.709  0.4806 -0.1516  0.0542
  176SOPE   H7R20014   3.285   5.398   9.651  1.2886 -0.2862 -0.0126
  176SOPE   H7S20015   3.203   5.536   9.702  0.0345 -1.1886 -0.5752
  176SOPE   C2820016   3.395   5.574   9.622  0.2981 -0.4906  0.2560
  176SOPE   H8R20017   3.339   5.592   9.527 -1.3393 -1.1190  1.0566
  176SOPE   H8S20018   3.413   5.668   9.678 -0.1809 -0.4864  0.4036
  176SOPE   C2920019   3.523   5.509   9.605  0.0008  0.3831  0.1556
  176SOPE   H9120020   3.605   5.533   9.674  0.5683 -1.2634  0.0855
  176SOPE  C21020021   3.582   5.446   9.498  0.3279  0.8874 -0.8078
  176SOPE  H10120022   3.680   5.399   9.518 -1.5393 -2.9468  0.4314
  176SOPE  C21120023   3.524   5.402   9.372  0.3141 -1.1433  0.6996
  176SOPE  H11R20024   3.419   5.437   9.361  0.3142 -1.1057  0.8156
  176SOPE  H11S20025   3.514   5.292   9.379  2.9743 -1.6940 -2.0972
  176SOPE  C21220026   3.612   5.425   9.238  0.2168  0.0680 -0.2551
  176SOPE  H12R20027   3.712   5.383   9.262  0.4080  0.7550  0.1863
  176SOPE  H12S20028   3.616   5.530   9.202 -1.1869  0.1812 -0.1445
  176SOPE  C21320029   3.552   5.351   9.119 -0.1552  0.0140  0.4066
  176SOPE  H13R20030   3.460   5.403   9.086 -1.1375 -2.5451 -1.1737
  176SOPE  H13S20031   3.541   5.249   9.163  1.7404 -0.5106 -0.2513
  176SOPE  C21420032   3.656   5.332   9.009  0.6121  0.0239 -0.2528
  176SOPE  H14R20033   3.750   5.292   9.053  0.0270 -1.0635  0.0502
  176SOPE  H14S20034   3.678   5.430   8.962  1.0234 -0.1403 -0.4076
  176SOPE  C21520035   3.609   5.234   8.909  0.5484  0.0856  0.8076
  176SOPE  H15R20036   3.597   5.133   8.954  2.1447 -0.5511 -0.1204
  176SOPE  H15S20037   3.694   5.222   8.838  0.6218  0.6110  0.8045
  176SOPE  C21620038   3.476   5.273   8.839  0.1368 -0.3830 -0.6848
  176SOPE  H16R20039   3.384   5.261   8.901  0.5888 -0.8985 -0.0944
  176SOPE  H16S20040   3.464   5.201   8.756  1.7674  0.0694 -1.3611
  176SOPE  C21720041   3.478   5.411   8.767 -0.3794  0.3306 -0.0528
  176SOPE  H17R20042   3.579   5.432   8.725 -0.4812 -1.0132 -1.0026
  176SOPE  H17S20043   3.464   5.483   8.851  0.7265 -0.4539  0.8333
  176SOPE  C21820044   3.374   5.437   8.664  0.8593 -0.3049  0.4569
  176SOPE  H18R20045   3.391   5.539   8.624  1.3274  0.2252  1.9422
  176SOPE  H18S20046   3.273   5.445   8.709 -0.2159  0.1080 -1.8845
  176SOPE  H18T20047   3.388   5.362   8.583 -0.4315  1.7261 -1.7932
  176SOPE   C3320048   2.745   5.104  10.023 -0.2488 -0.5712 -0.1781
  176SOPE   H3X20049   2.725   5.186   9.952  1.0504  0.3594  0.4799
  176SOPE   H3Y20050   2.650   5.070  10.068 -1.1115  0.6825 -0.9857
  176SOPE   C3420051   2.831   4.996   9.956  0.5158 -0.4986  0.1115
  176SOPE   H4X20052   2.855   4.922  10.035  0.4170 -0.1311  0.4865
  176SOPE   H4Y20053   2.932   5.031   9.926  1.1962 -2.2993  0.1697
  176SOPE   C3520054   2.753   4.937   9.841 -0.3726 -0.3835  0.6374
  176SOPE   H5X20055   2.716   5.024   9.782  1.8943 -1.2353 -2.3150
  176SOPE   H5Y20056   2.668   4.882   9.886  1.2337 -2.5093  1.2128
  176SOPE   C3620057   2.849   4.847   9.757 -0.2432 -0.6066  0.3041
  176SOPE   H6X20058   2.886   4.773   9.832  2.0244  0.3925  0.2626
  176SOPE   H6Y20059   2.931   4.917   9.731  0.1924 -1.6624 -1.3324
  176SOPE   C3720060   2.797   4.786   9.630 -0.1086 -0.0801  0.2086
  176SOPE   H7X20061   2.724   4.707   9.657  1.8149 -1.5666  1.2917
  176SOPE   H7Y20062   2.884   4.734   9.584 -0.0805 -1.2946  1.5770
  176SOPE   C3820063   2.745   4.890   9.532 -0.6245 -0.0140  0.1291
  176SOPE   H8X20064   2.831   4.951   9.498 -0.9621  0.9099  0.9117
  176SOPE   H8Y20065   2.667   4.949   9.584 -1.5159  0.5369 -1.7621
  176SOPE   C3920066   2.665   4.826   9.425 -0.2081  1.1619  0.2366
  176SOPE   H9X20067   2.577   4.780   9.474  0.2170  0.3669  0.2631
  176SOPE   H9Y20068   2.717   4.748   9.366 -1.8462 -0.1029  0.3996
  176SOPE  C31020069   2.625   4.921   9.302 -0.1919 -0.1871  0.1675
  176SOPE  H10X20070   2.581   5.018   9.331  0.1947  0.1376 -0.3105
  176SOPE  H10Y20071   2.554   4.856   9.246 -1.7253  1.8017 -0.2933
  176SOPE  C31120072   2.745   4.948   9.217 -0.4869  0.5600  0.0841
  176SOPE  H11X20073   2.810   4.858   9.227 -1.1072  0.2782  1.7948
  176SOPE  H11Y20074   2.805   5.023   9.272  0.1257  0.5784 -0.5989
  176SOPE  C31220075   2.725   4.981   9.065  0.6080 -0.0312 -0.5676
  176SOPE  H12X20076   2.672   4.897   9.016  2.5851 -1.2283 -0.7500
  176SOPE  H12Y20077   2.820   4.992   9.010  0.2850  1.6954 -0.8315
  176SOPE  C31320078   2.643   5.107   9.055  0.0576 -0.6002  0.1082
  176SOPE  H13X20079   2.684   5.183   9.125 -2.1508  2.0103 -1.2814
  176SOPE  H13Y20080   2.542   5.097   9.100 -0.5015 -0.2681 -1.0550
  176SOPE  C31420081   2.628   5.163   8.918  0.1227 -0.1307  0.4505
  176SOPE  H14X20082   2.564   5.104   8.849  0.6815 -0.5733  0.3115
  176SOPE  H14Y20083   2.730   5.167   8.876 -0.2783 -0.2110 -0.5591
  176SOPE  C31520084   2.584   5.315   8.922  0.1310  0.3447 -0.7942
  176SOPE  H15X20085   2.671   5.370   8.963  1.4284 -1.4746 -0.9852
  176SOPE  H15Y20086   2.496   5.330   8.988  0.4917 -0.8195 -0.0089
  176SOPE  C31620087   2.550   5.368   8.781  0.1360 -0.1397 -0.1317
  176SOPE  H16X20088   2.646   5.365   8.726  0.4466  1.3397  0.2728
  176SOPE  H16Y20089   2.528   5.475   8.801  0.0839  0.1168 -1.4604
  176SOPE  C31720090   2.436   5.303   8.714 -0.3928 -0.0066  0.0949
  176SOPE  H17X20091   2.346   5.351   8.758  1.0014  2.0902  0.8034
  176SOPE  H17Y20092   2.432   5.193   8.729 -3.1792  0.0196  0.1996
  176SOPE  C31820093   2.438   5.333   8.567  0.4001  0.1398 -0.5146
  176SOPE  H18X20094   2.525   5.276   8.527 -2.0524 -3.1697 -1.5498
  176SOPE  H18Y20095   2.455   5.442   8.554  0.9650  0.4077  1.8385
  176SOPE  H18Z20096   2.349   5.292   8.516 -0.6450 -0.4826  1.6531
  177SOPE     N20097   2.999   3.113  11.002  0.1674 -0.6645 -0.0259
  177SOPE   HN120098   3.026   3.113  11.102 -0.4189  0.7295  0.1525
  177SOPE   HN220099   3.052   3.049  10.940 -1.0647 -0.0426 -1.8033
  177SOPE   HN320100   3.012   3.213  10.977 -1.7793  0.4719  2.9388
  177SOPE   C1220101   2.850   3.087  10.994  0.4860 -0.0491  0.1123
  177SOPE  H12A20102   2.826   3.000  11.059 -0.5288  1.0425  1.2486
  177SOPE  H12B20103   2.818   3.073  10.888 -0.1341  2.1470 -0.0332
  177SOPE   C1120104   2.769   3.211  11.042 -0.0646  0.0675 -0.0050
  177SOPE  H11A20105   2.778   3.290  10.964  0.9227  1.4959  1.5062
  177SOPE  H11B20106   2.819   3.252  11.132 -0.5893 -1.3146  0.9324
  177SOPE     P20107   2.513   3.270  11.037  0.6228  0.0992 -0.2335
  177SOPE   O1320108   2.539   3.402  11.092 -0.2872 -0.3306  0.8269
  177SOPE   O1420109   2.384   3.219  11.083  0.1920 -0.1366 -0.2547
  177SOPE   O1220110   2.630   3.170  11.068  0.0676 -0.5115 -0.3698
  177SOPE   O1120111   2.509   3.279  10.882 -0.3232 -0.7367  0.1141
  177SOPE    C120112   2.449   3.190  10.793  0.0962  0.5854  0.4537
  177SOPE    HA20113   2.340   3.180  10.811  0.1398 -1.1320 -0.0870
  177SOPE    HB20114   2.493   3.088  10.802 -0.3845  0.3226 -0.1415
  177SOPE    C220115   2.462   3.257  10.646 -0.6489  0.5499 -0.7465
  177SOPE    HS20116   2.418   3.186  10.573  1.8146 -0.8110 -1.0300
  177SOPE   O2120117   2.603   3.284  10.618  0.5434  0.0229  0.3791
  177SOPE   C2120118   2.665   3.209  10.533 -0.8293  0.4655  0.3412
  177SOPE   O2220119   2.626   3.135  10.449  0.2524 -0.4219  0.4081
  177SOPE   C2220120   2.815   3.219  10.550 -0.6209 -0.2872 -0.3458
  177SOPE   H2R20121   2.877   3.149  10.488  0.3627 -1.1913  1.5608
  177SOPE   H2S20122   2.832   3.188  10.655  2.0756  3.1435  0.4061
  177SOPE    C320123   2.374   3.388  10.641 -0.8631  0.1050 -0.6313
  177SOPE    HX20124   2.419   3.463  10.710  2.3851 -1.0868 -1.2913
  177SOPE    HY20125   2.280   3.368  10.696 -0.3163  1.0355  0.7007
  177SOPE   O3120126   2.350   3.429  10.505 -0.1664 -0.2975  0.0080
  177SOPE   C3120127   2.436   3.521  10.466 -0.4092 -0.4631  0.0773
  177SOPE   O3220128   2.528   3.567  10.524 -1.3412 -0.1776  0.2273
  177SOPE   C3220129   2.413   3.544  10.318 -0.8634  0.2823 -0.1792
  177SOPE   H2X20130   2.304   3.538  10.297 -0.6014 -0.7661 -1.3268
  177SOPE   H2Y20131   2.474   3.466  10.268  1.3599  1.8406 -0.0459
  177SOPE   C2320132   2.878   3.360  10.537  0.4796 -0.7298  0.1461
  177SOPE   H3R20133   2.987   3.349  10.555  0.9666 -1.1712 -2.5956
  177SOPE   H3S20134   2.846   3.423  10.623  0.5463  0.6666 -0.8248
  177SOPE   C2420135   2.836   3.440  10.411 -0.1173 -0.6790 -0.4007
  177SOPE   H4R20136   2.726   3.433  10.400 -0.5295 -0.6579  2.7539
  177SOPE   H4S20137   2.863   3.548  10.418 -1.2820 -0.4649  1.9067
  177SOPE   C2520138   2.897   3.386  10.277 -0.0009 -0.3890  0.1594
  177SOPE   H5R20139   3.000   3.425  10.262 -0.2369 -0.0390 -0.6465
  177SOPE   H5S20140   2.895   3.275  10.283 -0.9653 -0.4231 -0.5839
  177SOPE   C2620141   2.812   3.418  10.156 -0.1611  0.2413  0.2789
  177SOPE   H6R20142   2.831   3.336  10.084  0.2001  0.9906 -0.4893
  177SOPE   H6S20143   2.703   3.412  10.178 -0.3499 -0.5790 -0.8351
  177SOPE   C2720144   2.843   3.551  10.083  0.0025 -0.1088 -0.3975
  177SOPE   H7R20145   2.806   3.641  10.136  1.0018 -0.3812  0.8089
  177SOPE   H7S20146   2.953   3.553  10.069 -0.0558 -0.4149 -0.9289
  177SOPE   C2820147   2.775   3.549   9.944  0.4792 -0.7765 -0.0170
  177SOPE   H8R20148   2.809   3.462   9.885  0.1674 -0.9848  0.1075
  177SOPE   H8S20149   2.667   3.527   9.957  0.8439 -3.8640 -1.4180
  177SOPE   C2920150   2.782   3.674   9.853 -0.0460 -0.1626  0.7576
  177SOPE   H9120151   2.814   3.771   9.893  1.0341 -0.4352  0.5828
  177SOPE  C21020152   2.780   3.672   9.718  0.5321 -0.2552  0.5907
  177SOPE  H10120153   2.778   3.765   9.661  0.9584 -1.2764 -1.1623
  177SOPE  C21120154   2.782   3.548   9.625  0.5438 -0.2546 -0.3136
  177SOPE  H11R20155   2.683   3.507   9.597 -0.5086  0.4565  2.0829
  177SOPE  H11S20156   2.839   3.468   9.677  1.2248  0.3254 -0.1416
  177SOPE  C21220157   2.867   3.585   9.502  0.2678  0.2798  0.6596
  177SOPE  H12R20158   2.883   3.499   9.433  0.3685  1.7165 -1.1857
  177SOPE  H12S20159   2.961   3.624   9.547  0.0723 -0.1612  1.4745
  177SOPE  C21320160   2.800   3.701   9.415  0.5367  0.4505 -0.1361
  177SOPE  H13R20161   2.840   3.798   9.450  1.0400 -0.6825  2.7443
  177SOPE  H13S20162   2.692   3.694   9.441  0.6985 -0.9782  0.2621
  177SOPE  C21420163   2.820   3.675   9.273 -0.0742  0.6199  0.0796
  177SOPE  H14R20164   2.751   3.747   9.222  1.4081  1.8163 -0.3072
  177SOPE  H14S20165   2.781   3.574   9.250 -0.3092  0.4265  1.2292
  177SOPE  C21520166   2.962   3.702   9.226 -0.0634 -0.6535 -0.5969
  177SOPE  H15R20167   3.039   3.653   9.290 -2.6842 -1.0972  2.4494
  177SOPE  H15S20168   2.974   3.811   9.241  1.1440 -0.8189 -0.2190
  177SOPE  C21620169   2.994   3.677   9.078 -0.1715  0.3299 -0.2081
  177SOPE  H16R20170   2.968   3.572   9.052  3.6753 -1.3345  1.7850
  177SOPE  H16S20171   3.102   3.696   9.065 -0.6679  1.5076 -3.3213
  177SOPE  C21720172   2.924   3.770   8.976 -0.1758  0.0251  0.3167
  177SOPE  H17R20173   2.954   3.872   9.008 -0.5530 -0.3701  1.9874
  177SOPE  H17S20174   2.816   3.765   8.999  0.3040  0.7693  3.1444
  177SOPE  C21820175   2.948   3.755   8.825 -0.8198  0.2171 -0.2211
  177SOPE  H18R20176   2.882   3.827   8.771 -0.7774  0.7580  0.4407
  177SOPE  H18S20177   2.918   3.655   8.786 -3.0160  0.8078 -0.1881
  177SOPE  H18T20178   3.055   3.775   8.805 -0.0474 -2.3152  0.9813
  177SOPE   C3320179   2.466   3.678  10.264  0.2254 -0.7761 -0.8694
  177SOPE   H3X20180   2.574   3.694  10.286 -0.2508 -2.6703  4.1845
  177SOPE   H3Y20181   2.416   3.763  10.315  1.8349 -0.7197  0.7349
  177SOPE   C3420182   2.436   3.681  10.109 -0.2679 -0.0511  0.1636
  177SOPE   H4X20183   2.480   3.602  10.044  2.7861  0.3852  1.5035
  177SOPE   H4Y20184   2.480   3.773  10.064 -1.1105 -0.3784 -1.3668
  177SOPE   C3520185   2.289   3.686  10.085 -0.0478  0.6281  0.2445
  177SOPE   H5X20186   2.242   3.762  10.151 -1.8340 -1.6801  1.8119
  177SOPE   H5Y20187   2.239   3.588  10.103 -0.5435  0.6274 -1.0025
  177SOPE   C3620188   2.265   3.737   9.938  0.4420  0.1617 -0.4797
  177SOPE   H6X20189   2.310   3.838   9.925  0.8549  0.1931  1.0355
  177SOPE   H6Y20190   2.155   3.754   9.926  0.2468 -0.1805  0.7153
  177SOPE   C3720191   2.329   3.655   9.826 -0.7525  0.0796 -0.1951
  177SOPE   H7X20192   2.290   3.552   9.830 -0.1271 -0.1206  1.4241
  177SOPE   H7Y20193   2.437   3.634   9.843 -0.7229  0.1566 -0.2812
  177SOPE   C3820194   2.304   3.710   9.682  0.1975  0.7633  0.1502
  177SOPE   H8X20195   2.359   3.805   9.665  2.7860 -0.7556 -0.4920
  177SOPE   H8Y20196   2.195   3.720   9.663  0.0011  1.8624  1.6856
  177SOPE   C3920197   2.363   3.619   9.571  0.2868  0.8615 -1.0871
  177SOPE   H9X20198   2.309   3.524   9.549  0.9256  0.2782 -0.2219
  177SOPE   H9Y20199   2.457   3.571   9.607 -0.1851 -0.5780 -1.6779
  177SOPE  C31020200   2.394   3.695   9.439  0.1940 -0.2871 -1.1761
  177SOPE  H10X20201   2.439   3.617   9.374 -1.6479 -1.1949 -1.4198
  177SOPE  H10Y20202   2.464   3.781   9.447  1.9543 -1.5542 -2.1987
  177SOPE  C31120203   2.262   3.742   9.374 -1.1191  0.1456  0.5417
  177SOPE  H11X20204   2.214   3.808   9.449  1.8236  0.9964  1.8200
  177SOPE  H11Y20205   2.191   3.660   9.349  1.4301 -1.6118 -1.5150
  177SOPE  C31220206   2.287   3.822   9.244 -0.4484 -0.4115 -0.0787
  177SOPE  H12X20207   2.352   3.909   9.270 -1.9938  0.5625  0.6404
  177SOPE  H12Y20208   2.197   3.863   9.193  0.0537  0.3779 -0.3522
  177SOPE  C31320209   2.372   3.733   9.151 -0.0440  0.1451  0.0228
  177SOPE  H13X20210   2.319   3.635   9.143 -0.5950  0.4110  0.3851
  177SOPE  H13Y20211   2.478   3.724   9.182 -0.2514 -1.5260  0.3785
  177SOPE  C31420212   2.382   3.813   9.021  0.1332  0.4568 -0.4239
  177SOPE  H14X20213   2.425   3.913   9.043  0.7317  0.3386 -1.0143
  177SOPE  H14Y20214   2.281   3.831   8.978  0.4271 -0.4414 -1.5420
  177SOPE  C31520215   2.470   3.748   8.907  0.3925 -0.5254  0.1654
  177SOPE  H15X20216   2.568   3.714   8.947 -0.1221 -2.6031 -0.2411
  177SOPE  H15Y20217   2.480   3.826   8.829  1.8740  0.3312  1.1575
  177SOPE  C31620218   2.403   3.616   8.851 -0.0336 -0.2088  0.1094
  177SOPE  H16X20219   2.304   3.641   8.807 -0.9556 -0.2732  2.0508
  177SOPE  H16Y20220   2.371   3.545   8.930  1.1343 -2.3400 -1.2299
  177SOPE  C31720221   2.476   3.549   8.735 -0.0480 -1.3661  0.3138
  177SOPE  H17X20222   2.576   3.506   8.757 -0.3776 -2.4776 -0.2957
  177SOPE  H17Y20223   2.501   3.632   8.665 -1.6852  0.3496  1.6600
  177SOPE  C31820224   2.392   3.443   8.660 -0.3047 -0.2690  0.0492
  177SOPE  H18X20225   2.369   3.357   8.726 -0.2685 -0.2604  0.0737
  177SOPE  H18Y20226   2.440   3.394   8.573 -1.8143  1.0148 -1.5803
  177SOPE  H18Z20227   2.307   3.495   8.610  0.2378  0.1489 -0.4443
  178SOPE     N20228   5.516   1.043  10.777 -0.8740 -0.4270  0.2820
  178SOPE   HN120229   5.545   1.028  10.876  2.3974  0.0842 -0.4855
  178SOPE   HN220230   5.422   1.088  10.776 -0.0076  1.5028 -0.9295
  178SOPE   HN320231   5.512   0.949  10.735 -0.8904 -0.1974 -0.2362
  178SOPE   C1220232   5.620   1.115  10.709  0.4780  0.0783  0.5066
  178SOPE  H12A20233   5.704   1.149  10.774 -0.6912 -0.0973  2.1561
  178SOPE  H12B20234   5.579   1.214  10.679  1.0020  0.5478  1.2850
  178SOPE   C1120235   5.660   1.044  10.580  1.4696  0.4833  0.2235
  178SOPE  H11A20236   5.751   1.089  10.536  2.4222 -0.4167  1.2248
  178SOPE  H11B20237   5.576   1.066  10.511 -0.8424 -2.0076  2.0357
  178SOPE     P20238   5.811   0.837  10.609 -0.0011 -0.1398  0.3769
  178SOPE   O1320239   5.817   0.691  10.577  0.0946 -0.6998  0.2287
  178SOPE   O1420240   5.848   0.870  10.746 -0.4250 -0.7255 -1.1934
  178SOPE   O1220241   5.671   0.900  10.591  0.6214 -0.2000 -0.0294
  178SOPE   O1120242   5.898   0.915  10.503 -0.5667  0.0033 -0.2617
  178SOPE    C120243   5.907   0.871  10.369  0.5872  0.2805 -0.1314
  178SOPE    HA20244   5.894   0.761  10.361 -3.0177  0.3712  2.1776
  178SOPE    HB20245   6.013   0.888  10.338  0.0423  0.3842 -2.0557
  178SOPE    C220246   5.822   0.952  10.270  0.3899  0.1078 -1.0474
  178SOPE    HS20247   5.717   0.951  10.306  0.5275  0.9620 -0.6116
  178SOPE   O2120248   5.829   0.902  10.139  0.0009  0.2621  0.1946
  178SOPE   C2120249   5.781   0.780  10.108  0.5209  0.2037  0.1386
  178SOPE   O2220250   5.720   0.705  10.182  0.3411  0.1408 -0.1267
  178SOPE   C2220251   5.824   0.736   9.963  0.8536  0.3241 -0.6680
  178SOPE   H2R20252   5.893   0.649   9.972  0.4453  0.0921  0.4176
  178SOPE   H2S20253   5.871   0.828   9.922  1.4463  0.6143  0.5872
  178SOPE    C320254   5.867   1.102  10.260 -0.3293  0.3994  0.0278
  178SOPE    HX20255   5.977   1.097  10.249 -0.4189  0.1741 -0.8677
  178SOPE    HY20256   5.856   1.140  10.364 -2.5657 -3.5529  1.4679
  178SOPE   O3120257   5.811   1.185  10.157  0.4767 -0.1237  0.0879
  178SOPE   C3120258   5.682   1.220  10.180 -0.4656 -1.0519 -0.1576
  178SOPE   O3220259   5.619   1.209  10.283  0.1850  0.4228 -0.0538
  178SOPE   C3220260   5.640   1.313  10.071 -0.0221  0.2491  0.5164
  178SOPE   H2X20261   5.722   1.378  10.032  1.7390 -0.9245  2.0840
  178SOPE   H2Y20262   5.554   1.381  10.088  1.4383  1.9151  1.8110
  178SOPE   C2320263   5.705   0.698   9.866  0.6757 -0.3784 -0.1570
  178SOPE   H3R20264   5.660   0.613   9.921  3.3840 -1.5012  0.5155
  178SOPE   H3S20265   5.744   0.663   9.768 -1.4993  1.3182 -1.7260
  178SOPE   C2420266   5.614   0.819   9.838 -0.3282  0.4648 -0.0697
  178SOPE   H4R20267   5.582   0.871   9.930 -0.7610  0.8104 -0.4133
  178SOPE   H4S20268   5.673   0.891   9.777  0.0906 -0.4267 -0.7427
  178SOPE   C2520269   5.485   0.799   9.765  0.7702 -0.0389  0.0185
  178SOPE   H5R20270   5.408   0.727   9.801 -1.4610  0.9130 -2.4898
  178SOPE   H5S20271   5.424   0.892   9.765 -2.6571 -2.0826 -0.9458
  178SOPE   C2620272   5.508   0.763   9.620 -0.3577  0.4304 -0.3236
  178SOPE   H6R20273   5.561   0.849   9.576  1.4084 -1.0226 -1.1829
  178SOPE   H6S20274   5.582   0.681   9.607  0.2864  1.1193 -1.1512
  178SOPE   C2720275   5.377   0.725   9.536 -0.3288 -0.3661  0.3766
  178SOPE   H7R20276   5.317   0.654   9.596  0.9148 -1.5647  0.2651
  178SOPE   H7S20277   5.318   0.816   9.512  1.5029  0.9773  0.7462
  178SOPE   C2820278   5.430   0.644   9.408 -0.2604 -0.1958 -0.1976
  178SOPE   H8R20279   5.501   0.565   9.441 -0.0868  0.3303  0.7211
  178SOPE   H8S20280   5.344   0.593   9.360 -1.6540  1.6036  0.2903
  178SOPE   C2920281   5.502   0.729   9.305 -0.3175  0.0984 -0.2808
  178SOPE   H9120282   5.579   0.798   9.342 -1.4984  1.5659 -0.4945
  178SOPE  C21020283   5.468   0.736   9.177  0.4607 -0.3183  0.0956
  178SOPE  H10120284   5.529   0.797   9.109  1.4234 -0.8905  0.4306
  178SOPE  C21120285   5.356   0.662   9.118 -0.2245  0.4304 -0.5973
  178SOPE  H11R20286   5.257   0.711   9.135 -0.7521 -1.1404  1.2107
  178SOPE  H11S20287   5.343   0.559   9.157  1.0772  0.4024 -0.2036
  178SOPE  C21220288   5.387   0.633   8.973 -0.1522  0.4229  0.1563
  178SOPE  H12R20289   5.486   0.585   8.967 -0.6716 -1.0053  1.9858
  178SOPE  H12S20290   5.385   0.736   8.930 -0.9928  0.8393  1.1237
  178SOPE  C21320291   5.281   0.543   8.897 -0.6563  1.0021 -0.2424
  178SOPE  H13R20292   5.180   0.539   8.943 -0.5934  0.7156 -0.1301
  178SOPE  H13S20293   5.322   0.440   8.909 -1.8548  0.6257  0.8901
  178SOPE  C21420294   5.272   0.575   8.748 -0.0031 -0.2976  0.7538
  178SOPE  H14R20295   5.215   0.669   8.737  2.3069  1.1006  0.0379
  178SOPE  H14S20296   5.208   0.493   8.708  0.2108 -0.0725 -0.0796
  178SOPE  C21520297   5.404   0.584   8.668 -0.1422 -0.1497 -0.2272
  178SOPE  H15R20298   5.485   0.627   8.731  0.1058 -1.3940  0.3280
  178SOPE  H15S20299   5.379   0.640   8.575 -2.7105 -2.1986 -0.8963
  178SOPE  C21620300   5.447   0.446   8.629 -0.8317 -0.2926  0.3317
  178SOPE  H16R20301   5.366   0.397   8.572 -1.6093  0.6444  0.6019
  178SOPE  H16S20302   5.471   0.385   8.719  0.9193  2.4431  1.8620
  178SOPE  C21720303   5.575   0.441   8.539  0.2272  0.5200 -0.4900
  178SOPE  H17R20304   5.581   0.336   8.502 -0.0675  1.1518 -2.4613
  178SOPE  H17S20305   5.655   0.478   8.608  1.2145 -1.2039 -0.6435
  178SOPE  C21820306   5.565   0.517   8.407 -0.5020  0.0746 -0.0503
  178SOPE  H18R20307   5.658   0.501   8.349 -0.1679  0.0106  0.5018
  178SOPE  H18S20308   5.560   0.627   8.417 -3.7793  0.0615 -0.3713
  178SOPE  H18T20309   5.472   0.495   8.350 -2.0785  0.7843  2.0830
  178SOPE   C3320310   5.611   1.223   9.946 -0.0566  0.2065 -0.4466
  178SOPE   H3X20311   5.521   1.160   9.962 -1.5994  2.3647 -0.1797
  178SOPE   H3Y20312   5.699   1.158   9.928 -0.8229 -0.5553 -1.6531
  178SOPE   C3420313   5.586   1.299   9.815 -0.1860  0.5859 -0.4575
  178SOPE   H4X20314   5.668   1.370   9.793  1.1927 -0.7931  0.0034
  178SOPE   H4Y20315   5.484   1.342   9.819 -1.0986 -1.4994  0.3554
  178SOPE   C3520316   5.586   1.202   9.698  0.1208 -0.1518 -0.0429
  178SOPE   H5X20317   5.515   1.118   9.719 -0.8054  1.0817  2.0964
  178SOPE   H5Y20318   5.693   1.174   9.692  0.4512  0.4567  2.1627
  178SOPE   C3620319   5.549   1.263   9.566  0.1694 -0.5306  0.6454
  178SOPE   H6X20320   5.609   1.353   9.541 -1.7179  0.0632 -2.1672
  178SOPE   H6Y20321   5.445   1.301   9.575 -0.1668 -1.3290  0.2360
  178SOPE   C3720322   5.547   1.165   9.448 -0.3322  0.1098 -0.5291
  178SOPE   H7X20323   5.451   1.111   9.463  0.1895 -0.4089  1.1686
  178SOPE   H7Y20324   5.631   1.092   9.454 -1.9982 -1.8201  0.3893
  178SOPE   C3820325   5.548   1.224   9.304  0.1172  0.0619 -0.2963
  178SOPE   H8X20326   5.645   1.276   9.295  0.1506  0.4631  1.8135
  178SOPE   H8Y20327   5.466   1.298   9.293  0.6172  0.7266  0.4001
  178SOPE   C3920328   5.524   1.110   9.210  0.3890  0.1052 -0.2838
  178SOPE   H9X20329   5.432   1.052   9.234 -0.2603  0.9179 -0.7560
  178SOPE   H9Y20330   5.605   1.035   9.217  0.7463  0.5171  0.0691
  178SOPE  C31020331   5.502   1.150   9.061  0.0297  0.3702  0.3613
  178SOPE  H10X20332   5.574   1.232   9.037 -0.5708  0.3994 -1.4873
  178SOPE  H10Y20333   5.401   1.196   9.055  0.0373  0.3669  0.2131
  178SOPE  C31120334   5.521   1.047   8.958  0.0994  0.0175  0.2776
  178SOPE  H11X20335   5.447   0.963   8.961  0.2042 -0.0543  0.9131
  178SOPE  H11Y20336   5.617   0.995   8.978 -0.3761 -0.5569  1.1535
  178SOPE  C31220337   5.510   1.098   8.813  0.5724 -0.9176 -0.1977
  178SOPE  H12X20338   5.597   1.156   8.774  1.3508 -1.9874 -0.1066
  178SOPE  H12Y20339   5.430   1.175   8.812  1.1446 -0.3195 -0.6289
  178SOPE  C31320340   5.479   0.986   8.711 -0.1412 -0.2691 -0.0236
  178SOPE  H13X20341   5.445   1.038   8.619 -0.9271  1.5456  1.2226
  178SOPE  H13Y20342   5.391   0.931   8.749 -1.4824  0.5874 -1.7493
  178SOPE  C31420343   5.588   0.886   8.681  0.4278  0.1049  0.2410
  178SOPE  H14X20344   5.542   0.808   8.617 -1.0733 -0.3703  1.8107
  178SOPE  H14Y20345   5.613   0.839   8.778 -0.2825  2.8670  1.8860
  178SOPE  C31520346   5.712   0.940   8.607  0.2019 -0.4698 -0.9233
  178SOPE  H15X20347   5.768   1.007   8.675 -1.5445 -0.6995  0.7995
  178SOPE  H15Y20348   5.676   0.991   8.515  0.1397  0.0900 -0.5889
  178SOPE  C31620349   5.805   0.827   8.566  0.3599 -0.0320 -0.0593
  178SOPE  H16X20350   5.765   0.758   8.488  1.5952  0.2006 -0.9313
  178SOPE  H16Y20351   5.816   0.765   8.657 -0.2422 -0.8514 -0.5270
  178SOPE  C31720352   5.940   0.874   8.525 -0.6412 -0.5469 -0.1071
  178SOPE  H17X20353   5.982   0.943   8.601 -0.9796 -2.6922  2.1275
  178SOPE  H17Y20354   5.934   0.936   8.432  3.0077 -2.0995 -1.5934
  178SOPE  C31820355   6.039   0.760   8.490 -0.1078  0.4949  0.0901
  178SOPE  H18X20356   6.074   0.708   8.582  0.9155  2.0286  0.6111
  178SOPE  H18Y20357   6.129   0.805   8.442  1.3439 -0.3692  1.8644
  178SOPE  H18Z20358   5.989   0.691   8.419 -0.6428 -1.5718  2.3288
  179SOPE     N20359   5.696   1.940   6.425 -0.8187  0.5813 -0.5027
  179SOPE   HN120360   5.621   1.981   6.485 -0.3003  0.9237 -0.0786
  179SOPE   HN220361   5.653   1.937   6.330 -3.8890  2.3398  0.6821
  179SOPE   HN320362   5.697   1.842   6.460 -2.3091  1.5321  2.5236
  179SOPE   C1220363   5.821   2.013   6.441 -0.0137  0.0470 -0.2328
  179SOPE  H12A20364   5.890   1.967   6.367  1.5055  0.1057  1.0739
  179SOPE  H12B20365   5.868   2.004   6.541 -0.5799 -0.9132 -0.0410
  179SOPE   C1120366   5.799   2.165   6.398  0.6392  0.0012 -0.2580
  179SOPE  H11A20367   5.741   2.178   6.304  0.4412  0.1735 -0.1146
  179SOPE  H11B20368   5.897   2.207   6.367  0.9477 -1.5094 -1.4668
  179SOPE     P20369   5.595   2.263   6.542  0.0046 -0.5563 -0.3685
  179SOPE   O1320370   5.523   2.143   6.497  0.1266 -0.0740 -0.2354
  179SOPE   O1420371   5.557   2.399   6.494 -0.1847  0.4478  0.3829
  179SOPE   O1220372   5.747   2.236   6.512  0.8388  0.0592  0.0068
  179SOPE   O1120373   5.587   2.268   6.705 -0.5132  0.0474 -0.0825
  179SOPE    C120374   5.688   2.338   6.774  0.2175  0.4904  0.4070
  179SOPE    HA20375   5.787   2.345   6.725  0.6885 -0.1143  1.2378
  179SOPE    HB20376   5.706   2.288   6.872  0.6180  1.3505  0.7795
  179SOPE    C220377   5.638   2.484   6.814 -0.8111  0.7529  0.8360
  179SOPE    HS20378   5.639   2.537   6.716  0.7628 -1.1167 -0.2595
  179SOPE   O2120379   5.734   2.543   6.908  0.2800  0.3902  0.3222
  179SOPE   C2120380   5.734   2.675   6.911 -0.3625  1.0552 -0.3286
  179SOPE   O2220381   5.678   2.751   6.839 -0.1487  0.3355 -0.5072
  179SOPE   C2220382   5.840   2.714   7.012  0.1563 -0.0598 -0.1717
  179SOPE   H2R20383   5.791   2.749   7.106 -0.4885  0.2786 -0.6280
  179SOPE   H2S20384   5.890   2.801   6.965 -2.1044  0.3026 -2.1011
  179SOPE    C320385   5.493   2.472   6.866  0.5404 -0.1140  0.1212
  179SOPE    HX20386   5.506   2.405   6.954  3.3607  0.8494  0.5442
  179SOPE    HY20387   5.430   2.426   6.787 -0.7851  1.1957  0.3797
  179SOPE   O3120388   5.447   2.592   6.934  0.2312 -0.0286 -0.3395
  179SOPE   C3120389   5.369   2.675   6.868 -0.1252  0.3303 -0.1332
  179SOPE   O3220390   5.313   2.646   6.762  0.4737 -0.4812 -0.4364
  179SOPE   C3220391   5.377   2.806   6.953  0.0940  0.2005 -0.6718
  179SOPE   H2X20392   5.444   2.872   6.894  0.8819 -0.1750 -0.1971
  179SOPE   H2Y20393   5.423   2.785   7.051 -1.1823  3.2525  0.7056
  179SOPE   C2320394   5.951   2.607   7.054 -0.1559 -0.0570 -0.3842
  179SOPE   H3R20395   6.015   2.585   6.967  1.0936  1.1384  0.2002
  179SOPE   H3S20396   5.900   2.513   7.087  0.2859 -0.2177 -0.1486
  179SOPE   C2420397   6.050   2.655   7.164 -0.3050 -0.2012  0.3300
  179SOPE   H4R20398   5.999   2.696   7.254 -1.0495  2.6842 -1.2890
  179SOPE   H4S20399   6.104   2.566   7.203 -2.1016 -1.3404  0.3779
  179SOPE   C2520400   6.149   2.754   7.107 -0.7909 -0.3664 -0.2819
  179SOPE   H5R20401   6.198   2.732   7.009  1.5906  0.7093  0.5880
  179SOPE   H5S20402   6.094   2.851   7.098  0.6781  0.4889 -0.3541
  179SOPE   C2620403   6.277   2.775   7.200 -0.3243 -0.5880  0.2742
  179SOPE   H6R20404   6.315   2.673   7.219  1.0643 -0.4202 -1.3929
  179SOPE   H6S20405   6.352   2.829   7.138 -1.4101 -0.1333 -0.6819
  179SOPE   C2720406   6.245   2.871   7.319 -0.5309 -0.0319 -0.0026
  179SOPE   H7R20407   6.210   2.965   7.272  0.3257  0.3315  0.0707
  179SOPE   H7S20408   6.171   2.814   7.379  0.1082 -1.2983 -0.3824
  179SOPE   C2820409   6.377   2.901   7.395 -0.4847  0.1838  0.9327
  179SOPE   H8R20410   6.427   2.804   7.415  0.0313 -0.4600 -2.6835
  179SOPE   H8S20411   6.443   2.953   7.323 -0.3901  1.3223  1.8235
  179SOPE   C2920412   6.366   2.987   7.514 -0.1170  0.6607  0.0686
  179SOPE   H9120413   6.371   3.092   7.481  0.5208  0.3796 -0.7656
  179SOPE  C21020414   6.359   2.948   7.641  0.4120  0.3219  0.2778
  179SOPE  H10120415   6.365   3.024   7.720  0.0699  0.2362  0.3876
  179SOPE  C21120416   6.345   2.811   7.695 -0.1046 -0.3004 -0.0626
  179SOPE  H11R20417   6.371   2.739   7.614 -0.3365  2.2684 -2.5397
  179SOPE  H11S20418   6.242   2.799   7.736  0.2027  1.3945  1.3094
  179SOPE  C21220419   6.440   2.783   7.810  0.7778  0.3959 -0.0788
  179SOPE  H12R20420   6.414   2.849   7.895 -0.8049  0.3977 -0.5361
  179SOPE  H12S20421   6.546   2.791   7.778  0.4635  0.8206 -1.0325
  179SOPE  C21320422   6.415   2.636   7.861 -0.3674 -0.4067 -0.0364
  179SOPE  H13R20423   6.442   2.571   7.774  0.0142 -1.3166  0.7423
  179SOPE  H13S20424   6.307   2.622   7.885 -0.2946  0.6413  0.9952
  179SOPE  C21420425   6.511   2.586   7.965  0.0773  0.0891 -0.7323
  179SOPE  H14R20426   6.468   2.637   8.054  0.2229 -0.9461 -0.0547
  179SOPE  H14S20427   6.618   2.614   7.958  0.1129  0.5868  1.1715
  179SOPE  C21520428   6.507   2.437   7.989 -0.2171  0.6679  0.4116
  179SOPE  H15R20429   6.574   2.418   8.076 -1.2905 -0.0394  1.1071
  179SOPE  H15S20430   6.544   2.392   7.895 -1.2477 -0.8834  0.7102
  179SOPE  C21620431   6.371   2.391   8.025  0.7089 -0.1166  0.2217
  179SOPE  H16R20432   6.377   2.281   8.041  2.7820 -0.1460 -0.4455
  179SOPE  H16S20433   6.305   2.395   7.936 -2.1665  0.6077  2.2568
  179SOPE  C21720434   6.294   2.466   8.138  0.1004 -0.1943 -0.9176
  179SOPE  H17R20435   6.275   2.572   8.112  3.2328  1.0543  1.2200
  179SOPE  H17S20436   6.355   2.459   8.231 -1.6339 -1.6389  0.1744
  179SOPE  C21820437   6.159   2.397   8.173 -0.0193  0.3895 -0.2764
  179SOPE  H18R20438   6.110   2.388   8.074 -0.0206  0.4614 -0.2821
  179SOPE  H18S20439   6.094   2.455   8.242  0.0626 -0.3955  0.4875
  179SOPE  H18T20440   6.176   2.294   8.212 -1.5904 -0.3433 -1.4103
  179SOPE   C3320441   5.239   2.863   6.980  0.0637  0.6418  0.4522
  179SOPE   H3X20442   5.164   2.789   7.016 -0.9728  0.5277 -1.7719
  179SOPE   H3Y20443   5.211   2.903   6.880  0.4465  0.4097  0.2512
  179SOPE   C3420444   5.237   2.990   7.080 -0.2932  0.3736  0.4224
  179SOPE   H4X20445   5.134   3.031   7.075 -0.6366 -0.2770  1.8060
  179SOPE   H4Y20446   5.323   3.053   7.049  0.2383  0.5087  2.0788
  179SOPE   C3520447   5.276   2.964   7.226 -0.2725 -0.2167 -0.2737
  179SOPE   H5X20448   5.279   3.058   7.285 -0.0855  0.8565 -1.9394
  179SOPE   H5Y20449   5.380   2.926   7.226  0.6166  2.0495 -0.8232
  179SOPE   C3620450   5.190   2.862   7.298  0.0700  0.1233  0.3907
  179SOPE   H6X20451   5.214   2.764   7.250  0.4228  1.2347 -1.8143
  179SOPE   H6Y20452   5.084   2.894   7.297  0.2828  0.9837 -2.4439
  179SOPE   C3720453   5.225   2.852   7.449 -0.1817 -0.7038  0.0380
  179SOPE   H7X20454   5.230   2.954   7.492 -0.9700 -1.1510  1.2692
  179SOPE   H7Y20455   5.323   2.805   7.471 -0.4534 -0.4058  2.0976
  179SOPE   C3820456   5.109   2.786   7.534 -0.4533 -0.7761 -0.3668
  179SOPE   H8X20457   5.099   2.678   7.507  0.5357 -0.8968 -0.2887
  179SOPE   H8Y20458   5.011   2.824   7.499 -0.0933 -0.8061 -1.4290
  179SOPE   C3920459   5.128   2.811   7.687 -0.0383  0.2935  0.2203
  179SOPE   H9X20460   5.123   2.920   7.710 -2.1004  0.4381 -0.6927
  179SOPE   H9Y20461   5.226   2.763   7.709 -0.0189  0.6621  0.9756
  179SOPE  C31020462   5.028   2.746   7.778 -0.3153  0.4431 -1.2097
  179SOPE  H10X20463   5.032   2.637   7.757 -1.4461  0.1296  0.0450
  179SOPE  H10Y20464   4.921   2.773   7.764 -0.7079  1.0538  2.2497
  179SOPE  C31120465   5.065   2.781   7.925 -0.5455  0.5243  1.1504
  179SOPE  H11X20466   5.034   2.885   7.948  2.5114  1.4890  1.3648
  179SOPE  H11Y20467   5.174   2.781   7.945  0.0775  0.4737 -1.8177
  179SOPE  C31220468   4.998   2.677   8.025 -0.5962 -1.0029 -0.0080
  179SOPE  H12X20469   5.045   2.577   8.027 -2.1014 -1.7294  0.4329
  179SOPE  H12Y20470   4.899   2.652   7.980 -1.0459  1.2541 -0.3826
  179SOPE  C31320471   4.969   2.743   8.164  0.6910 -0.3786 -0.3893
  179SOPE  H13X20472   4.899   2.671   8.212  1.3348 -0.9532 -0.2889
  179SOPE  H13Y20473   4.937   2.847   8.144 -0.7445 -0.3894  1.5678
  179SOPE  C31420474   5.085   2.775   8.252  0.3472  0.2973  0.2332
  179SOPE  H14X20475   5.175   2.808   8.196  0.6069  2.6234  1.8701
  179SOPE  H14Y20476   5.114   2.672   8.281 -0.2852  0.2093  0.5729
  179SOPE  C31520477   5.046   2.871   8.365 -0.0280  0.4886  0.5954
  179SOPE  H15X20478   4.973   2.828   8.436  0.8770 -1.9939  0.1296
  179SOPE  H15Y20479   5.008   2.966   8.321  1.7143  0.4146 -1.2213
  179SOPE  C31620480   5.168   2.915   8.444 -0.1079  0.2536 -0.6278
  179SOPE  H16X20481   5.239   2.952   8.367  0.2660 -1.3320 -1.0840
  179SOPE  H16Y20482   5.209   2.824   8.492  0.5082 -1.3334 -3.8584
  179SOPE  C31720483   5.131   3.014   8.557  0.1322  0.0480 -0.6370
  179SOPE  H17X20484   5.042   2.974   8.611  0.2539  0.8993  0.2242
  179SOPE  H17Y20485   5.108   3.114   8.513  1.2628  0.3332 -0.6031
  179SOPE  C31820486   5.244   3.027   8.658  0.4167 -0.0027  0.3969
  179SOPE  H18X20487   5.228   3.111   8.729 -0.3650 -1.2798  1.7882
  179SOPE  H18Y20488   5.342   3.042   8.608  0.1531 -0.6690 -0.3438
  179SOPE  H18Z20489   5.249   2.933   8.717  0.5980 -0.8441 -0.9136
  180SOPE     N20490   4.504   3.631   6.324 -0.7926 -0.9304 -0.1078
  180SOPE   HN120491   4.571   3.616   6.245 -0.0957  1.0301  0.0555
  180SOPE   HN220492   4.436   3.552   6.327 -1.2781 -0.5607 -1.0986
  180SOPE   HN320493   4.454   3.720   6.304 -0.1934 -0.4594  0.4682
  180SOPE   C1220494   4.581   3.655   6.448  0.8744  0.1519  0.3935
  180SOPE  H12A20495   4.617   3.559   6.491 -0.9769 -2.0325 -2.5297
  180SOPE  H12B20496   4.510   3.694   6.524 -1.7202 -3.1134 -0.1332
  180SOPE   C1120497   4.703   3.742   6.412  0.8959 -0.3603 -0.1679
  180SOPE  H11A20498   4.757   3.770   6.505  1.4709  0.1672 -0.6530
  180SOPE  H11B20499   4.670   3.837   6.364  1.4369  1.0181  2.0309
  180SOPE     P20500   4.921   3.620   6.326 -0.1594 -0.3726  0.0536
  180SOPE   O1320501   5.009   3.670   6.219  0.2587 -0.1618  0.0064
  180SOPE   O1420502   4.906   3.476   6.324 -0.1419  0.8390 -0.0138
  180SOPE   O1220503   4.780   3.684   6.306 -0.1681  0.0635  0.0075
  180SOPE   O1120504   4.961   3.678   6.466 -0.0394 -0.4143  0.1070
  180SOPE    C120505   5.092   3.729   6.491  0.7109 -0.2576  0.3969
  180SOPE    HA20506   5.115   3.812   6.421  0.8907  2.6377  3.6316
  180SOPE    HB20507   5.175   3.655   6.486  2.3079  1.5533 -1.7578
  180SOPE    C220508   5.104   3.786   6.641 -0.4401 -0.3363 -0.1307
  180SOPE    HS20509   5.209   3.775   6.675 -0.8203  0.2333  1.3398
  180SOPE   O2120510   5.008   3.722   6.724  0.2966  0.2732 -0.6149
  180SOPE   C2120511   5.036   3.589   6.743  0.2435  0.5059  0.4304
  180SOPE   O2220512   5.126   3.530   6.683  0.8518  0.1108  0.2615
  180SOPE   C2220513   4.941   3.524   6.841 -0.0458  0.3537  0.4925
  180SOPE   H2R20514   4.913   3.424   6.801 -0.7007  0.6558  0.1740
  180SOPE   H2S20515   4.849   3.584   6.858 -1.9455 -0.9466 -3.6257
  180SOPE    C320516   5.084   3.943   6.644  0.5502  1.0230 -0.8498
  180SOPE    HX20517   4.977   3.953   6.615  0.9447 -0.4431 -3.0712
  180SOPE    HY20518   5.137   3.986   6.556 -0.4352  1.0447 -1.4437
  180SOPE   O3120519   5.119   4.008   6.770  0.2191  0.0020  0.0860
  180SOPE   C3120520   5.257   4.023   6.789  0.1460 -0.4782 -0.2391
  180SOPE   O3220521   5.339   3.997   6.700  0.4463  0.1539  0.9355
  180SOPE   C3220522   5.277   4.093   6.922  0.3484 -0.2851 -0.5890
  180SOPE   H2X20523   5.231   4.193   6.909  2.8829  1.3329  1.7957
  180SOPE   H2Y20524   5.384   4.116   6.938  0.1786 -0.3259  0.6729
  180SOPE   C2320525   5.012   3.516   6.973  0.5727 -0.3206 -0.1704
  180SOPE   H3R20526   5.074   3.607   6.988 -0.2535  0.5363 -1.6707
  180SOPE   H3S20527   5.081   3.429   6.963  2.7139  1.1985  0.7262
  180SOPE   C2420528   4.914   3.503   7.092 -0.2914  0.6500 -0.5984
  180SOPE   H4R20529   4.876   3.605   7.113  2.5536  1.6552  0.2012
  180SOPE   H4S20530   4.832   3.435   7.062 -0.2067  0.5560 -0.6161
  180SOPE   C2520531   4.978   3.440   7.221  0.0319  0.5240 -0.0636
  180SOPE   H5R20532   5.061   3.513   7.228 -0.8597  1.7144 -1.3664
  180SOPE   H5S20533   4.901   3.453   7.300  1.1351 -1.8293  1.4974
  180SOPE   C2620534   5.020   3.293   7.221  0.7285 -0.0855  0.2823
  180SOPE   H6R20535   4.952   3.250   7.145  0.2244  3.1957 -1.2994
  180SOPE   H6S20536   5.123   3.286   7.179  0.6208 -0.8717  0.1256
  180SOPE   C2720537   5.013   3.219   7.354  0.0160  0.4665 -0.3366
  180SOPE   H7R20538   4.908   3.182   7.359  0.5103 -1.1701 -1.3225
  180SOPE   H7S20539   5.073   3.125   7.347  0.6451  0.7712  0.7430
  180SOPE   C2820540   5.061   3.288   7.484 -0.0785 -0.1403  0.6426
  180SOPE   H8R20541   5.171   3.307   7.490  0.0300 -0.6330  0.2763
  180SOPE   H8S20542   5.012   3.388   7.478 -1.3325 -0.7467  0.6120
  180SOPE   C2920543   5.031   3.193   7.597 -0.2180 -1.3914 -0.0067
  180SOPE   H9120544   5.080   3.096   7.586 -1.0673 -1.6887 -1.4338
  180SOPE  C21020545   4.944   3.224   7.699 -0.4782  0.6460  0.2699
  180SOPE  H10120546   4.922   3.139   7.765  1.8392  0.3003  0.6606
  180SOPE  C21120547   4.863   3.343   7.707 -0.6786  0.5166 -0.9034
  180SOPE  H11R20548   4.896   3.420   7.634 -2.0798 -0.3050 -2.4877
  180SOPE  H11S20549   4.882   3.396   7.802 -1.3472 -0.0439 -0.4535
  180SOPE  C21220550   4.713   3.326   7.681 -0.7391 -0.5559 -0.0967
  180SOPE  H12R20551   4.666   3.422   7.712  0.0260  0.4988 -2.0474
  180SOPE  H12S20552   4.683   3.246   7.753 -0.1399  0.7023  1.6306
  180SOPE  C21320553   4.684   3.311   7.531  0.2830  0.8083  0.1642
  180SOPE  H13R20554   4.719   3.210   7.502 -1.1348 -0.7652  3.4313
  180SOPE  H13S20555   4.741   3.386   7.471  0.5811 -1.6450 -2.8613
  180SOPE  C21420556   4.541   3.327   7.488  0.7220 -0.1133 -0.2900
  180SOPE  H14R20557   4.493   3.414   7.539 -1.6836 -1.7206  0.3736
  180SOPE  H14S20558   4.489   3.235   7.522  1.8456 -0.8340 -0.4778
  180SOPE  C21520559   4.513   3.340   7.335  0.0205 -0.1758  0.7327
  180SOPE  H15R20560   4.415   3.294   7.312  0.1519  0.4258 -1.1291
  180SOPE  H15S20561   4.583   3.267   7.291  0.8906 -0.2941  2.2427
  180SOPE  C21620562   4.520   3.483   7.276  0.2532  0.4718  0.2009
  180SOPE  H16R20563   4.490   3.478   7.169  0.1060 -1.8032  0.2948
  180SOPE  H16S20564   4.622   3.528   7.279 -0.4384  2.0636  0.9781
  180SOPE  C21720565   4.427   3.578   7.351 -0.1263 -0.4424 -0.1605
  180SOPE  H17R20566   4.462   3.586   7.456 -1.6997  0.0944  0.3530
  180SOPE  H17S20567   4.323   3.539   7.355 -0.6506  0.9129 -0.3118
  180SOPE  C21820568   4.415   3.723   7.295  0.2138  0.1675 -0.0329
  180SOPE  H18R20569   4.515   3.744   7.252  1.4309 -2.2293  1.3871
  180SOPE  H18S20570   4.393   3.789   7.381  1.3418 -0.2598  0.6023
  180SOPE  H18T20571   4.348   3.741   7.209  2.7634 -0.1446 -2.2192
  180SOPE   C3320572   5.232   4.012   7.045  0.3376 -0.3265  0.7401
  180SOPE   H3X20573   5.136   3.962   7.021  1.7789 -2.4662 -1.0465
  180SOPE   H3Y20574   5.233   4.074   7.137  1.0654 -0.2452  0.6816
  180SOPE   C3420575   5.336   3.895   7.070 -0.6932 -0.1572  0.2658
  180SOPE   H4X20576   5.435   3.944   7.082 -0.8268  0.2373 -0.1851
  180SOPE   H4Y20577   5.347   3.827   6.982  2.2058  0.6930 -0.1414
  180SOPE   C3520578   5.307   3.800   7.191  0.8756  0.1522 -0.5950
  180SOPE   H5X20579   5.369   3.708   7.188  1.9303  0.8137  0.3746
  180SOPE   H5Y20580   5.202   3.765   7.183 -0.1970  2.7041  1.0519
  180SOPE   C3620581   5.356   3.861   7.324  0.0448 -0.3650  0.2132
  180SOPE   H6X20582   5.322   3.967   7.324 -3.0950 -1.2708 -0.4927
  180SOPE   H6Y20583   5.467   3.857   7.331  0.0361  0.2699  0.9670
  180SOPE   C3720584   5.291   3.796   7.439  0.0409  0.4415 -0.1605
  180SOPE   H7X20585   5.315   3.688   7.432 -1.4342 -0.0819  1.7899
  180SOPE   H7Y20586   5.181   3.806   7.429 -0.0305  0.0659  0.1744
  180SOPE   C3820587   5.334   3.845   7.574 -1.2223  0.6850 -0.0910
  180SOPE   H8X20588   5.341   3.956   7.568 -0.9250  0.7756  1.5947
  180SOPE   H8Y20589   5.435   3.803   7.593 -0.3241  3.6069  2.2344
  180SOPE   C3920590   5.242   3.792   7.689 -1.1818  0.4141 -0.6852
  180SOPE   H9X20591   5.230   3.681   7.687 -2.2521  0.5167 -0.8753
  180SOPE   H9Y20592   5.142   3.836   7.671 -1.5993 -0.3709 -0.3470
  180SOPE  C31020593   5.283   3.819   7.835  0.4066 -0.5330 -0.5615
  180SOPE  H10X20594   5.271   3.929   7.842  0.4403 -0.4332 -1.8681
  180SOPE  H10Y20595   5.393   3.803   7.831  0.4881 -0.2712  0.3694
  180SOPE  C31120596   5.202   3.743   7.935  0.1546 -0.1854 -0.3061
  180SOPE  H11X20597   5.104   3.709   7.895 -0.0580 -0.5745  0.5332
  180SOPE  H11Y20598   5.178   3.790   8.033 -1.4851  0.7402 -1.1107
  180SOPE  C31220599   5.292   3.625   7.970  0.2018 -0.4611  0.1582
  180SOPE  H12X20600   5.391   3.656   8.008  1.1011 -1.7736 -1.0212
  180SOPE  H12Y20601   5.320   3.574   7.875  1.4835 -0.3857  0.4834
  180SOPE  C31320602   5.228   3.515   8.057 -0.4220  0.0651  0.1309
  180SOPE  H13X20603   5.290   3.423   8.053 -0.2201 -0.0679  3.4991
  180SOPE  H13Y20604   5.129   3.487   8.015 -0.2499 -2.1606  1.0720
  180SOPE  C31420605   5.211   3.550   8.202 -0.4677  0.1433 -0.0162
  180SOPE  H14X20606   5.166   3.462   8.255 -1.3722 -0.5279 -1.8301
  180SOPE  H14Y20607   5.141   3.636   8.207 -1.0316 -0.3616  2.0718
  180SOPE  C31520608   5.341   3.570   8.278 -0.1167  0.1459 -0.8776
  180SOPE  H15X20609   5.410   3.642   8.228  2.2202 -1.9298 -0.8188
  180SOPE  H15Y20610   5.395   3.473   8.277 -0.5956 -0.1277 -0.7005
  180SOPE  C31620611   5.316   3.616   8.427  0.1873 -0.2046  0.8529
  180SOPE  H16X20612   5.284   3.527   8.485 -0.4765 -0.7116 -0.2660
  180SOPE  H16Y20613   5.234   3.691   8.429  0.0685 -0.2931 -0.2566
  180SOPE  C31720614   5.436   3.688   8.487  0.0534 -0.4447 -0.1874
  180SOPE  H17X20615   5.465   3.766   8.413  1.3077 -0.8176 -0.1189
  180SOPE  H17Y20616   5.526   3.623   8.494  0.0669 -0.2628  3.8060
  180SOPE  C31820617   5.416   3.756   8.624 -0.6501 -0.0812 -0.7340
  180SOPE  H18X20618   5.501   3.827   8.638 -1.9486  1.7819 -1.7932
  180SOPE  H18Y20619   5.426   3.675   8.699 -0.7747  1.0799  0.5844
  180SOPE  H18Z20620   5.318   3.804   8.646 -0.0179  0.5133  0.9797
  181SOPE     N20621   4.280   6.664   5.969 -0.8968  0.1680  0.0501
  181SOPE   HN120622   4.242   6.620   5.883 -0.4969  0.5472 -0.3200
  181SOPE   HN220623   4.240   6.758   5.988  0.1110  0.7518 -0.6074
  181SOPE   HN320624   4.382   6.677   5.953 -1.2380 -0.9261 -3.8755
  181SOPE   C1220625   4.264   6.560   6.076 -0.0825 -0.4068 -0.5773
  181SOPE  H12A20626   4.155   6.560   6.097 -0.5527 -1.8221 -2.7074
  181SOPE  H12B20627   4.316   6.598   6.166 -2.3317  0.0936  0.5785
  181SOPE   C1120628   4.309   6.423   6.039 -0.5174 -0.2625  0.0092
  181SOPE  H11A20629   4.250   6.380   5.956  1.1842 -0.7770 -0.9668
  181SOPE  H11B20630   4.299   6.349   6.122 -1.6803  1.8647  1.8939
  181SOPE     P20631   4.538   6.310   5.969 -0.4286 -0.1545  0.1149
  181SOPE   O1320632   4.635   6.350   5.861 -0.1819 -0.4541 -0.1228
  181SOPE   O1420633   4.455   6.193   5.939 -0.2534  0.0629 -0.1717
  181SOPE   O1220634   4.444   6.440   5.996 -0.0681 -0.4034  0.0147
  181SOPE   O1120635   4.603   6.292   6.109  0.2925  0.3575  0.0265
  181SOPE    C120636   4.628   6.406   6.193  0.1411  0.6426 -0.3071
  181SOPE    HA20637   4.547   6.482   6.199  1.7261  2.2617  2.4409
  181SOPE    HB20638   4.713   6.470   6.162  1.7427  0.1039  2.6442
  181SOPE    C220639   4.655   6.359   6.340  0.0697 -0.2516 -0.0820
  181SOPE    HS20640   4.669   6.454   6.396 -0.2269 -0.4003  0.2417
  181SOPE   O2120641   4.775   6.274   6.354  0.0617  0.5188  0.4388
  181SOPE   C2120642   4.896   6.335   6.348  0.3538 -0.0387  0.6685
  181SOPE   O2220643   4.909   6.449   6.307  0.4345 -0.3986  0.3785
  181SOPE   C2220644   5.015   6.239   6.366  0.1596  0.3083  0.2366
  181SOPE   H2R20645   5.031   6.197   6.265  2.2923 -0.2121  0.7369
  181SOPE   H2S20646   4.983   6.145   6.417 -0.6441  0.8416  0.7359
  181SOPE    C320647   4.528   6.293   6.401  0.4665  0.3563 -0.0757
  181SOPE    HX20648   4.521   6.194   6.351  0.0391  0.6934 -0.6995
  181SOPE    HY20649   4.444   6.357   6.367 -0.6321 -0.9413  0.1612
  181SOPE   O3120650   4.513   6.281   6.536 -0.7700 -0.1180 -0.1212
  181SOPE   C3120651   4.488   6.391   6.607 -0.2074  0.1222  0.2991
  181SOPE   O3220652   4.451   6.498   6.558  0.3804 -0.3646 -0.0741
  181SOPE   C3220653   4.529   6.370   6.750 -0.2393  0.3745 -0.1855
  181SOPE   H2X20654   4.632   6.330   6.766 -0.5968  0.4550  2.8840
  181SOPE   H2Y20655   4.466   6.291   6.796 -0.4315  1.4800  1.5626
  181SOPE   C2320656   5.144   6.298   6.431  0.9207  0.1276  0.6846
  181SOPE   H3R20657   5.154   6.396   6.379 -1.3547 -0.6589 -1.4116
  181SOPE   H3S20658   5.244   6.253   6.411 -0.0640 -0.8088 -2.8190
  181SOPE   C2420659   5.131   6.323   6.585  0.5077  0.0695  0.3223
  181SOPE   H4R20660   5.107   6.226   6.633 -1.0522 -1.0604 -2.5116
  181SOPE   H4S20661   5.230   6.358   6.619  1.7091 -0.7196 -2.1406
  181SOPE   C2520662   5.027   6.432   6.635 -0.1317 -0.1010  0.6224
  181SOPE   H5R20663   5.062   6.526   6.586 -2.0015  0.6520  0.6367
  181SOPE   H5S20664   4.922   6.409   6.607  0.6373  0.5264 -3.3925
  181SOPE   C2620665   5.038   6.433   6.788 -0.4160  0.0370 -0.4926
  181SOPE   H6R20666   4.993   6.339   6.827 -0.3824  0.1232 -0.2487
  181SOPE   H6S20667   5.147   6.428   6.808 -0.2271  0.2199 -1.4353
  181SOPE   C2720668   4.970   6.561   6.840 -0.6250 -0.9019 -0.0667
  181SOPE   H7R20669   5.032   6.641   6.795 -3.1335  0.3220 -1.6339
  181SOPE   H7S20670   4.867   6.578   6.801 -0.6688 -0.4660  0.2265
  181SOPE   C2820671   4.963   6.579   6.991  0.0535  0.0094  0.1654
  181SOPE   H8R20672   4.884   6.507   7.019 -0.7870  1.2215  1.0197
  181SOPE   H8S20673   5.064   6.565   7.036  0.2175  4.1022  1.5003
  181SOPE   C2920674   4.904   6.712   7.033 -0.8545 -0.1667 -0.1163
  181SOPE   H9120675   4.801   6.728   6.998 -0.9051 -0.9172 -0.3287
  181SOPE  C21020676   4.964   6.810   7.104  0.3078 -0.8744  0.1320
  181SOPE  H10120677   4.901   6.900   7.112 -0.7314 -1.6752  1.1052
  181SOPE  C21120678   5.096   6.828   7.169 -0.7700 -0.3962 -0.6073
  181SOPE  H11R20679   5.133   6.931   7.184  0.8442 -0.7820 -1.6835
  181SOPE  H11S20680   5.167   6.784   7.095 -0.3654  1.8464 -1.6198
  181SOPE  C21220681   5.101   6.742   7.290 -0.3782 -0.6322 -0.0882
  181SOPE  H12R20682   5.209   6.721   7.303  0.9853  4.3311 -0.9569
  181SOPE  H12S20683   5.044   6.647   7.288  0.9858 -1.4982 -2.6310
  181SOPE  C21320684   5.058   6.828   7.412 -0.0532  0.1121  0.6927
  181SOPE  H13R20685   4.947   6.828   7.412 -0.1597 -0.6309 -3.0321
  181SOPE  H13S20686   5.106   6.928   7.413  1.3476 -0.5037 -0.7327
  181SOPE  C21420687   5.107   6.763   7.541 -0.5386 -0.1847  0.0156
  181SOPE  H14R20688   5.210   6.795   7.564  0.0290 -2.9031  1.7624
  181SOPE  H14S20689   5.103   6.652   7.534  0.5233 -0.2452  0.2013
  181SOPE  C21520690   5.008   6.785   7.662  0.0386 -0.6761  0.9695
  181SOPE  H15R20691   4.910   6.746   7.627 -0.4360  1.0861  0.2506
  181SOPE  H15S20692   4.999   6.894   7.677  2.1111 -0.5542  1.5888
  181SOPE  C21620693   5.045   6.701   7.780 -0.1746 -0.3645  0.2828
  181SOPE  H16R20694   5.139   6.735   7.827  0.8412 -0.8131 -1.3352
  181SOPE  H16S20695   5.070   6.596   7.752  0.8919 -0.1570  0.4140
  181SOPE  C21720696   4.925   6.694   7.878 -0.2280  0.6297 -0.5750
  181SOPE  H17R20697   4.832   6.694   7.818 -0.6106 -2.4712 -0.1206
  181SOPE  H17S20698   4.910   6.793   7.927  0.7081 -0.5231  2.2703
  181SOPE  C21820699   4.934   6.598   8.002 -0.1529  0.4471  1.6884
  181SOPE  H18R20700   5.028   6.596   8.060 -0.0449 -1.1590  1.5144
  181SOPE  H18S20701   4.925   6.493   7.965 -0.0543  0.2776  2.1390
  181SOPE  H18T20702   4.845   6.607   8.068 -2.2221  0.1204 -0.8839
  181SOPE   C3320703   4.514   6.497   6.836 -0.3472 -0.7512  0.3878
  181SOPE   H3X20704   4.416   6.544   6.815  1.0430  2.0042 -0.4560
  181SOPE   H3Y20705   4.586   6.575   6.802 -1.6457  0.0917 -0.5255
  181SOPE   C3420706   4.539   6.465   6.983  0.1634  0.0498 -0.1022
  181SOPE   H4X20707   4.644   6.432   6.995 -0.1264 -0.6363  0.6707
  181SOPE   H4Y20708   4.463   6.389   7.013  0.9999 -0.3803  1.0284
  181SOPE   C3520709   4.509   6.588   7.070 -0.0432  0.1588 -0.2894
  181SOPE   H5X20710   4.400   6.602   7.060 -0.0076  0.3913 -0.3552
  181SOPE   H5Y20711   4.568   6.674   7.034  1.9469 -1.8347 -2.1468
  181SOPE   C3620712   4.527   6.565   7.219  0.1155 -0.0605  0.2922
  181SOPE   H6X20713   4.493   6.460   7.232  0.3549 -0.4386 -1.7997
  181SOPE   H6Y20714   4.447   6.626   7.266  2.7757  3.6545  0.4268
  181SOPE   C3720715   4.666   6.583   7.277 -0.1271  0.0864  0.2689
  181SOPE   H7X20716   4.696   6.690   7.271 -0.8430  0.3339  0.8401
  181SOPE   H7Y20717   4.740   6.517   7.228  0.3271 -0.5669  1.7867
  181SOPE   C3820718   4.694   6.538   7.424  0.4232  0.1039 -0.7951
  181SOPE   H8X20719   4.805   6.531   7.434  0.6923  1.1431 -2.6313
  181SOPE   H8Y20720   4.656   6.434   7.440 -0.5077  0.7463  1.6362
  181SOPE   C3920721   4.641   6.637   7.529  0.2253  0.8574 -0.2988
  181SOPE   H9X20722   4.559   6.689   7.476 -0.0508  0.6796 -0.0544
  181SOPE   H9Y20723   4.723   6.707   7.555  0.5908  0.7100 -1.0483
  181SOPE  C31020724   4.592   6.561   7.651 -0.4440 -0.4044  0.0714
  181SOPE  H10X20725   4.673   6.508   7.707 -1.1251 -1.1156  0.4062
  181SOPE  H10Y20726   4.515   6.485   7.627 -1.5050  0.4659  0.6529
  181SOPE  C31120727   4.501   6.650   7.745 -0.2848  0.2960 -0.3998
  181SOPE  H11X20728   4.396   6.657   7.709 -0.1913  1.0535 -0.5409
  181SOPE  H11Y20729   4.546   6.749   7.765 -2.5365  1.1405  0.8020
  181SOPE  C31220730   4.507   6.602   7.889  1.1378  0.2170  0.7685
  181SOPE  H12X20731   4.613   6.594   7.921  1.5516  0.7089 -0.4249
  181SOPE  H12Y20732   4.444   6.510   7.896 -0.3467  1.0459 -0.7836
  181SOPE  C31320733   4.430   6.700   7.977 -0.0583  0.1229 -0.3271
  181SOPE  H13X20734   4.369   6.640   8.048 -0.1201  1.6569  0.9628
  181SOPE  H13Y20735   4.359   6.757   7.913  0.0755 -0.4292 -0.9796
  181SOPE  C31420736   4.527   6.785   8.063  0.3987 -0.3796  0.2401
  181SOPE  H14X20737   4.477   6.869   8.115 -0.8971 -1.0821  0.1553
  181SOPE  H14Y20738   4.612   6.827   8.004  0.1226 -0.3600 -0.1473
  181SOPE  C31520739   4.605   6.707   8.175 -0.0021  0.4041 -0.5280
  181SOPE  H15X20740   4.664   6.624   8.131  0.7195  0.9531 -0.5985
  181SOPE  H15Y20741   4.533   6.672   8.253  0.6175 -0.5906 -0.3843
  181SOPE  C31620742   4.722   6.788   8.236  0.9526 -0.3938 -0.7915
  181SOPE  H16X20743   4.691   6.890   8.267  2.5806  0.2895 -1.3024
  181SOPE  H16Y20744   4.801   6.792   8.158  1.7818 -0.3859  0.0354
  181SOPE  C31720745   4.801   6.713   8.347  0.4990 -0.0187  0.0400
  181SOPE  H17X20746   4.901   6.759   8.338  0.6006 -0.3281 -0.4582
  181SOPE  H17Y20747   4.818   6.610   8.310 -0.5006  0.9288 -3.4384
  181SOPE  C31820748   4.743   6.734   8.484 -0.5911 -0.9273 -0.1462
  181SOPE  H18X20749   4.748   6.842   8.508  0.0217 -0.5001 -2.0860
  181SOPE  H18Y20750   4.801   6.690   8.569 -1.2793  2.0013  1.9967
  181SOPE  H18Z20751   4.639   6.696   8.490 -0.4414 -1.7517 -2.1137
  182SOPE     N20752   5.359   1.662   6.242 -0.0947  1.0992  0.0215
  182SOPE   HN120753   5.296   1.583   6.264  1.8340 -0.4267  0.3586
  182SOPE   HN220754   5.408   1.619   6.161 -2.7049 -1.0741 -0.5265
  182SOPE   HN320755   5.421   1.677   6.325  1.8230 -1.4033 -0.8150
  182SOPE   C1220756   5.288   1.787   6.195 -0.2214 -0.1847  0.9015
  182SOPE  H12A20757   5.279   1.774   6.085  0.8216 -0.3458  0.8297
  182SOPE  H12B20758   5.353   1.875   6.214 -1.6496  1.2814 -0.6679
  182SOPE   C1120759   5.149   1.788   6.255 -0.2873 -0.7784 -0.6526
  182SOPE  H11A20760   5.094   1.875   6.213  1.9160  0.5836 -0.8478
  182SOPE  H11B20761   5.150   1.814   6.363 -2.4423  0.3888 -0.8590
  182SOPE     P20762   4.933   1.657   6.303 -0.1927  0.3270 -0.0380
  182SOPE   O1320763   4.895   1.512   6.323  0.1200  0.0544 -0.4555
  182SOPE   O1420764   4.841   1.730   6.221 -0.2461  0.6501  0.0143
  182SOPE   O1220765   5.078   1.668   6.244  0.0968 -0.5749 -0.3703
  182SOPE   O1120766   4.946   1.727   6.444  0.4040 -0.4550 -0.3894
  182SOPE    C120767   5.022   1.671   6.550  0.3112  0.2328 -0.8334
  182SOPE    HA20768   5.130   1.696   6.544  0.5595 -0.2893  0.9976
  182SOPE    HB20769   5.028   1.561   6.542  2.0735  0.2344 -0.1071
  182SOPE    C220770   4.966   1.695   6.695  0.2977 -0.1037 -0.2517
  182SOPE    HS20771   4.998   1.795   6.730  0.6474 -0.3141  0.0397
  182SOPE   O2120772   5.016   1.584   6.772  0.4892 -0.2522 -0.3210
  182SOPE   C2120773   5.114   1.619   6.851 -0.2350  0.2570  0.0596
  182SOPE   O2220774   5.167   1.727   6.857 -0.7616 -0.6092  0.4557
  182SOPE   C2220775   5.142   1.504   6.943 -0.5507  0.0271  0.1097
  182SOPE   H2R20776   5.212   1.430   6.898 -2.1169 -0.2036 -2.0809
  182SOPE   H2S20777   5.045   1.453   6.964 -0.6802  1.5343  3.9981
  182SOPE    C320778   4.809   1.698   6.695  0.3859  0.6102  0.3067
  182SOPE    HX20779   4.778   1.607   6.641  2.2008  0.1480 -0.0212
  182SOPE    HY20780   4.767   1.781   6.634 -0.2462  0.4241  0.4775
  182SOPE   O3120781   4.755   1.712   6.822 -0.3245 -0.2734  0.0274
  182SOPE   C3120782   4.754   1.834   6.880 -0.4750 -0.5826 -0.0162
  182SOPE   O3220783   4.805   1.936   6.828  0.5598  0.3206  0.0754
  182SOPE   C3220784   4.684   1.818   7.019 -0.0736 -0.1193 -0.3051
  182SOPE   H2X20785   4.677   1.709   7.037  0.0397 -0.2262 -0.9030
  182SOPE   H2Y20786   4.580   1.856   7.010 -0.9256 -2.5752 -1.5815
  182SOPE   C2320787   5.186   1.550   7.084  0.2457  0.6540  0.5689
  182SOPE   H3R20788   5.118   1.625   7.129 -1.6299 -0.2775 -0.5561
  182SOPE   H3S20789   5.282   1.605   7.071  1.2007 -0.7540  1.4060
  182SOPE   C2420790   5.208   1.431   7.176 -0.5139 -0.7317  0.2283
  182SOPE   H4R20791   5.120   1.362   7.175 -0.5760 -0.6541 -1.1120
  182SOPE   H4S20792   5.287   1.364   7.135  0.6717  0.4582  0.5125
  182SOPE   C2520793   5.265   1.473   7.313  0.5147  0.7845  0.9412
  182SOPE   H5R20794   5.364   1.523   7.320  0.6221  0.6306  0.5522
  182SOPE   H5S20795   5.192   1.532   7.371 -1.5403 -0.7339  0.0134
  182SOPE   C2620796   5.289   1.347   7.405 -0.2130  0.2901 -0.0956
  182SOPE   H6R20797   5.191   1.295   7.410  0.2048 -0.5285 -0.1894
  182SOPE   H6S20798   5.364   1.273   7.369 -1.3810 -1.9328  1.7357
  182SOPE   C2720799   5.336   1.379   7.551  0.2907  0.6628 -0.4814
  182SOPE   H7R20800   5.426   1.444   7.554 -1.7842  3.6878  0.9648
  182SOPE   H7S20801   5.261   1.445   7.597  1.3047  0.8939  0.8917
  182SOPE   C2820802   5.366   1.253   7.627  0.3364  0.0059  0.1952
  182SOPE   H8R20803   5.425   1.182   7.565  0.7886  0.2301  0.3658
  182SOPE   H8S20804   5.434   1.284   7.709  0.6770 -1.2168  0.3976
  182SOPE   C2920805   5.244   1.184   7.677 -0.6938  0.9541  0.3809
  182SOPE   H9120806   5.174   1.256   7.721  0.7630  1.0154  2.7556
  182SOPE  C21020807   5.209   1.058   7.682  0.6466  0.6473 -0.2387
  182SOPE  H10120808   5.124   1.042   7.750  1.2637  0.2199  0.4536
  182SOPE  C21120809   5.285   0.945   7.627 -0.4998  0.3085 -1.2113
  182SOPE  H11R20810   5.274   0.863   7.701  0.5846  0.3867 -0.9492
  182SOPE  H11S20811   5.394   0.964   7.620  0.1786 -0.6565  3.4937
  182SOPE  C21220812   5.240   0.891   7.487  0.4054  0.5419 -0.4027
  182SOPE  H12R20813   5.147   0.840   7.522  1.0227  0.4756  1.2289
  182SOPE  H12S20814   5.309   0.812   7.453  1.5087  0.7008  1.3441
  182SOPE  C21320815   5.213   0.991   7.368 -0.0348 -0.0438  0.0260
  182SOPE  H13R20816   5.297   1.064   7.369  0.1938 -0.3018 -0.1867
  182SOPE  H13S20817   5.129   1.059   7.392  1.4775  1.6103  0.8853
  182SOPE  C21420818   5.221   0.929   7.229 -0.3675  0.0847  0.4068
  182SOPE  H14R20819   5.155   0.840   7.234  1.0356 -1.1582 -1.5622
  182SOPE  H14S20820   5.320   0.884   7.206 -1.3169 -1.9662  0.1480
  182SOPE  C21520821   5.189   1.023   7.118 -0.1479  0.0775 -0.6499
  182SOPE  H15R20822   5.278   1.089   7.110  1.5773 -1.7007  2.0043
  182SOPE  H15S20823   5.104   1.083   7.155  0.2361 -0.3095  0.9533
  182SOPE  C21620824   5.152   0.960   6.980 -0.1111  0.8927 -0.0764
  182SOPE  H16R20825   5.072   0.885   6.999  1.8032 -1.0601  0.7156
  182SOPE  H16S20826   5.230   0.896   6.932 -1.9137 -0.2223 -1.6605
  182SOPE  C21720827   5.111   1.064   6.871 -0.5689  0.5027 -0.0580
  182SOPE  H17R20828   5.194   1.137   6.858  0.3664 -0.2316  1.4359
  182SOPE  H17S20829   5.022   1.112   6.917 -1.4571  1.2339 -2.3886
  182SOPE  C21820830   5.063   1.004   6.738  0.2585  0.4882  0.0051
  182SOPE  H18R20831   5.153   0.956   6.694  1.2972 -1.1665  3.5809
  182SOPE  H18S20832   5.021   1.083   6.673  1.2394  3.3793  2.6311
  182SOPE  H18T20833   4.999   0.915   6.754  1.6238 -0.0893  3.1262
  182SOPE   C3320834   4.769   1.896   7.124  0.4032  0.5822  0.4822
  182SOPE   H3X20835   4.704   1.908   7.214  0.3675 -0.5428  0.6309
  182SOPE   H3Y20836   4.801   1.993   7.083 -1.5675  1.2349  0.3842
  182SOPE   C3420837   4.903   1.825   7.169 -0.4695  0.0980 -0.8026
  182SOPE   H4X20838   4.981   1.828   7.090  0.9185  0.8935  0.5358
  182SOPE   H4Y20839   4.887   1.718   7.192  0.2279  0.2878  0.7011
  182SOPE   C3520840   4.953   1.886   7.304 -0.4977  0.1333 -0.6081
  182SOPE   H5X20841   4.856   1.902   7.355 -1.6851  0.6457 -2.9015
  182SOPE   H5Y20842   5.008   1.981   7.283  0.2360 -0.0582  0.3899
  182SOPE   C3620843   5.052   1.806   7.385 -1.0817 -0.1486  0.3338
  182SOPE   H6X20844   5.157   1.831   7.362 -0.5526 -2.8017 -0.4577
  182SOPE   H6Y20845   5.043   1.697   7.363  0.3737 -0.6517  1.9595
  182SOPE   C3720846   5.037   1.832   7.536 -0.0309 -0.3261 -0.4459
  182SOPE   H7X20847   4.932   1.809   7.562 -0.1621 -0.7530 -1.3294
  182SOPE   H7Y20848   5.049   1.942   7.543  0.2373 -0.2486 -1.8278
  182SOPE   C3820849   5.128   1.745   7.621 -0.1814 -0.3075 -0.0889
  182SOPE   H8X20850   5.238   1.749   7.606 -0.0883  3.2994  0.7348
  182SOPE   H8Y20851   5.123   1.637   7.594 -2.9717 -0.0314 -0.9898
  182SOPE   C3920852   5.112   1.771   7.766  0.5661 -0.1722  0.4279
  182SOPE   H9X20853   5.003   1.757   7.780  0.5458 -0.2880  0.1523
  182SOPE   H9Y20854   5.138   1.876   7.789  1.3735 -0.0074 -1.1496
  182SOPE  C31020855   5.190   1.679   7.856  0.4734 -0.8649 -0.6197
  182SOPE  H10X20856   5.299   1.696   7.837  0.3419  1.6259  0.5445
  182SOPE  H10Y20857   5.175   1.574   7.823 -2.0984 -0.3132 -1.4412
  182SOPE  C31120858   5.171   1.686   8.011  0.3102  0.3657  0.0773
  182SOPE  H11X20859   5.062   1.698   8.032  0.4140  0.9016  0.3281
  182SOPE  H11Y20860   5.237   1.764   8.054  0.7094 -1.2628  2.6377
  182SOPE  C31220861   5.221   1.554   8.082 -0.3464  0.7916  1.0041
  182SOPE  H12X20862   5.147   1.470   8.078 -1.1977  1.5762 -1.1044
  182SOPE  H12Y20863   5.235   1.583   8.188 -1.4938  1.6518  0.9400
  182SOPE  C31320864   5.358   1.493   8.031 -0.6016 -0.9812  0.0286
  182SOPE  H13X20865   5.442   1.563   8.052 -0.6331 -1.3026  1.3149
  182SOPE  H13Y20866   5.351   1.468   7.923  3.3252 -0.6723 -0.4420
  182SOPE  C31420867   5.397   1.353   8.081 -0.1335  0.3381 -0.0229
  182SOPE  H14X20868   5.503   1.342   8.051 -0.6860 -1.6491 -1.4290
  182SOPE  H14Y20869   5.344   1.272   8.027  1.9156 -1.6226  0.8058
  182SOPE  C31520870   5.380   1.317   8.234 -0.1465 -0.7096  0.3909
  182SOPE  H15X20871   5.270   1.304   8.247 -0.2877  0.0777  0.0184
  182SOPE  H15Y20872   5.420   1.404   8.290 -0.3790  1.4723 -2.6174
  182SOPE  C31620873   5.448   1.183   8.269 -0.4495 -0.0843 -0.1990
  182SOPE  H16X20874   5.438   1.170   8.379  1.2868 -0.3934 -0.0573
  182SOPE  H16Y20875   5.556   1.205   8.260 -0.4971 -0.5497 -2.4839
  182SOPE  C31720876   5.397   1.052   8.197 -0.1289 -0.1383  0.0895
  182SOPE  H17X20877   5.402   1.059   8.087 -1.7650 -2.8123 -0.2311
  182SOPE  H17Y20878   5.289   1.044   8.220 -0.1213 -0.4753  0.0213
  182SOPE  C31820879   5.467   0.932   8.257 -0.2790 -0.2657  0.5117
  182SOPE  H18X20880   5.414   0.847   8.208 -1.8679  1.7630 -1.4451
  182SOPE  H18Y20881   5.458   0.918   8.367 -0.3318  1.7183  0.7971
  182SOPE  H18Z20882   5.575   0.934   8.230 -0.8308  1.3405 -1.8282
  183SOPE     N20883   0.068   0.174   5.986 -0.3132  0.1083 -0.1801
  183SOPE   HN120884   0.105   0.244   6.053 -0.1318 -1.0925  1.0408
  183SOPE   HN220885   0.142   0.101   5.982 -2.2076 -1.9859  0.2192
  183SOPE   HN320886   0.058   0.212   5.890  1.6386 -0.5250 -0.6766
  183SOPE   C1220887  -0.059   0.123   6.046 -0.3020  0.4899  0.2691
  183SOPE  H12A20888  -0.114   0.077   5.961  1.0008  1.4586 -1.1623
  183SOPE  H12B20889  -0.112   0.207   6.097 -0.9477  0.5061 -0.4051
  183SOPE   C1120890  -0.031   0.017   6.154  0.4743  0.3182  0.1407
  183SOPE  H11A20891  -0.124  -0.010   6.208  0.6754 -2.5545 -0.7420
  183SOPE  H11B20892   0.018   0.069   6.239 -1.2423  0.1913  1.2588
  183SOPE     P20893  -0.001  -0.237   6.120 -0.0408  0.1723  0.1608
  183SOPE   O1320894   0.098  -0.334   6.066 -0.1368 -0.2301 -0.7044
  183SOPE   O1420895  -0.137  -0.243   6.051 -0.4631 -0.1117 -1.1192
  183SOPE   O1220896   0.046  -0.089   6.107  0.3853  0.1717  0.1134
  183SOPE   O1120897  -0.015  -0.265   6.274  0.3488 -0.3003 -0.0451
  183SOPE    C120898   0.097  -0.242   6.360 -0.3219  0.0055 -0.0646
  183SOPE    HA20899   0.111  -0.133   6.381  1.7211 -0.1416 -0.3837
  183SOPE    HB20900   0.190  -0.286   6.317 -0.8748 -2.4040  1.0697
  183SOPE    C220901   0.072  -0.296   6.503 -0.0975  0.1724 -0.7905
  183SOPE    HS20902   0.059  -0.406   6.489  0.8780  0.0204 -0.5324
  183SOPE   O2120903  -0.046  -0.226   6.552  0.0406 -0.6266 -0.5570
  183SOPE   C2120904  -0.111  -0.282   6.647  0.4750  0.5545  0.0911
  183SOPE   O2220905  -0.091  -0.400   6.684  0.0859  0.6257  0.3621
  183SOPE   C2220906  -0.208  -0.187   6.706 -0.3452 -0.2165 -0.2876
  183SOPE   H2R20907  -0.269  -0.144   6.623  1.5481  1.6081 -0.8261
  183SOPE   H2S20908  -0.155  -0.104   6.757  0.6907 -0.0871 -1.4967
  183SOPE    C320909   0.202  -0.269   6.587 -0.1913 -0.2012 -1.2314
  183SOPE    HX20910   0.231  -0.162   6.591 -0.4445 -0.1685 -0.0554
  183SOPE    HY20911   0.283  -0.326   6.536 -0.5962  0.4202 -2.6102
  183SOPE   O3120912   0.214  -0.333   6.715 -0.5949 -0.4305  0.2022
  183SOPE   C3120913   0.194  -0.267   6.831  0.3424 -0.1466  0.9178
  183SOPE   O3220914   0.176  -0.145   6.836 -0.4022 -0.0190  0.3236
  183SOPE   C3220915   0.182  -0.368   6.948  0.2218  0.7110  0.5046
  183SOPE   H2X20916   0.271  -0.435   6.946 -1.9571 -2.4232  0.2717
  183SOPE   H2Y20917   0.093  -0.434   6.936 -0.6942  2.2465 -1.9206
  183SOPE   C2320918  -0.308  -0.239   6.812  0.1004 -0.8048  0.6563
  183SOPE   H3R20919  -0.377  -0.319   6.777 -0.6966  0.3382 -0.4583
  183SOPE   H3S20920  -0.386  -0.162   6.830 -0.9404 -1.3535 -1.2627
  183SOPE   C2420921  -0.244  -0.264   6.953  0.7119  0.0500  0.9178
  183SOPE   H4R20922  -0.159  -0.335   6.942  1.0703  0.6792 -0.7055
  183SOPE   H4S20923  -0.200  -0.167   6.984 -0.7775  0.6179  1.3463
  183SOPE   C2520924  -0.341  -0.312   7.060 -0.0313 -0.4308  0.1538
  183SOPE   H5R20925  -0.426  -0.245   7.082  0.4359 -0.0912  1.0023
  183SOPE   H5S20926  -0.377  -0.417   7.047 -1.0003  0.0758 -1.4583
  183SOPE   C2620927  -0.281  -0.312   7.202  0.0294 -0.3885  0.4822
  183SOPE   H6R20928  -0.182  -0.358   7.183 -0.2888 -0.7211 -0.4203
  183SOPE   H6S20929  -0.268  -0.207   7.236 -2.0485  0.1216 -0.1307
  183SOPE   C2720930  -0.358  -0.383   7.314  0.3466 -0.0746  0.3244
  183SOPE   H7R20931  -0.458  -0.336   7.322  1.5538  2.8781 -0.6984
  183SOPE   H7S20932  -0.351  -0.493   7.295 -0.2500 -0.3243  1.4561
  183SOPE   C2820933  -0.295  -0.354   7.449 -0.1044 -0.0958 -0.5605
  183SOPE   H8R20934  -0.277  -0.246   7.466  2.2662 -0.9348  3.2503
  183SOPE   H8S20935  -0.357  -0.396   7.531  2.9275 -0.8174  1.5198
  183SOPE   C2920936  -0.154  -0.424   7.452  0.9134  0.1442 -0.1364
  183SOPE   H9120937  -0.118  -0.479   7.364  0.0394  0.9685 -1.0334
  183SOPE  C21020938  -0.070  -0.433   7.557 -0.2011 -0.0131 -0.2255
  183SOPE  H10120939   0.023  -0.492   7.545 -0.8925 -1.4609  1.1289
  183SOPE  C21120940  -0.084  -0.372   7.688  0.3964  0.0005  0.1723
  183SOPE  H11R20941  -0.097  -0.262   7.680  2.3670  0.3633  1.2395
  183SOPE  H11S20942   0.015  -0.388   7.735 -0.3811 -2.2823  1.1215
  183SOPE  C21220943  -0.200  -0.409   7.773  0.5410 -0.0739  0.0886
  183SOPE  H12R20944  -0.254  -0.494   7.726  1.2969 -0.1079 -0.7503
  183SOPE  H12S20945  -0.275  -0.327   7.781  1.6827  0.9940  0.1883
  183SOPE  C21320946  -0.160  -0.458   7.914 -0.7204  0.5376  0.5962
  183SOPE  H13R20947  -0.083  -0.537   7.906  0.4203  1.6477  0.2943
  183SOPE  H13S20948  -0.251  -0.513   7.947 -1.2359  1.0141  0.0053
  183SOPE  C21420949  -0.104  -0.354   8.020 -0.5172  0.7338 -0.0051
  183SOPE  H14R20950  -0.175  -0.269   8.019 -3.5315 -1.6320 -0.7806
  183SOPE  H14S20951  -0.004  -0.321   7.982 -0.2053 -0.1923 -0.0181
  183SOPE  C21520952  -0.084  -0.398   8.158 -1.0209 -0.7443  0.8170
  183SOPE  H15R20953   0.013  -0.363   8.199 -0.6931 -2.0183  1.1688
  183SOPE  H15S20954  -0.066  -0.508   8.162  3.6062 -0.1830  0.9368
  183SOPE  C21620955  -0.200  -0.346   8.250  0.9268  0.5037  0.2903
  183SOPE  H16R20956  -0.289  -0.408   8.225 -0.3315  2.8094 -1.2829
  183SOPE  H16S20957  -0.225  -0.238   8.240 -0.8749  0.0029 -0.9808
  183SOPE  C21720958  -0.159  -0.366   8.394 -0.0872  0.9982  0.4199
  183SOPE  H17R20959  -0.058  -0.320   8.405  1.2404 -1.1283 -1.7586
  183SOPE  H17S20960  -0.144  -0.476   8.401  2.8778  1.3770  1.4807
  183SOPE  C21820961  -0.267  -0.320   8.500 -0.1677  0.3389 -0.0859
  183SOPE  H18R20962  -0.359  -0.381   8.487  1.3660 -1.9670 -0.7437
  183SOPE  H18S20963  -0.279  -0.209   8.495 -0.3129  0.2751 -2.1914
  183SOPE  H18T20964  -0.227  -0.344   8.601  0.2680  0.8949 -0.1194
  183SOPE   C3320965   0.176  -0.299   7.092 -0.0806  0.7404 -0.0477
  183SOPE   H3X20966   0.071  -0.275   7.117  0.1902  0.8747  1.0046
  183SOPE   H3Y20967   0.236  -0.205   7.087 -2.6229  2.4242 -1.1616
  183SOPE   C3420968   0.246  -0.383   7.205  0.3443  0.4619 -0.0536
  183SOPE   H4X20969   0.348  -0.415   7.177 -0.1751 -0.4055 -1.0581
  183SOPE   H4Y20970   0.183  -0.474   7.215  1.1945  0.0756  2.2547
  183SOPE   C3520971   0.249  -0.325   7.344 -0.1207  0.6299  0.2468
  183SOPE   H5X20972   0.145  -0.290   7.359 -0.2046 -0.0012  1.1747
  183SOPE   H5Y20973   0.313  -0.235   7.355  0.3978  0.3294 -0.2389
  183SOPE   C3620974   0.284  -0.429   7.446  0.2797  0.5083 -0.6774
  183SOPE   H6X20975   0.383  -0.479   7.435 -1.3703 -3.3968  0.6424
  183SOPE   H6Y20976   0.204  -0.505   7.435 -1.9569  2.3977  1.4673
  183SOPE   C3720977   0.282  -0.365   7.588 -0.8233 -0.3351  0.2424
  183SOPE   H7X20978   0.188  -0.309   7.607 -0.5815 -0.8216  3.5184
  183SOPE   H7Y20979   0.372  -0.300   7.593 -0.8136 -0.3021 -0.2903
  183SOPE   C3820980   0.296  -0.462   7.702  0.0438  0.7095 -0.2955
  183SOPE   H8X20981   0.372  -0.533   7.661  0.0619  0.5317  0.0410
  183SOPE   H8Y20982   0.202  -0.519   7.715  0.8505 -0.3581  1.1507
  183SOPE   C3920983   0.336  -0.413   7.843 -0.6907  0.6195 -0.9268
  183SOPE   H9X20984   0.250  -0.355   7.882 -0.2610  0.6653 -0.0089
  183SOPE   H9Y20985   0.431  -0.355   7.834  0.0872 -0.4029  0.3277
  183SOPE  C31020986   0.354  -0.528   7.941  0.4967  0.4902 -0.3830
  183SOPE  H10X20987   0.432  -0.502   8.016  0.4078  0.2192 -0.1972
  183SOPE  H10Y20988   0.406  -0.609   7.885  0.5507 -0.6975  1.3184
  183SOPE  C31120989   0.227  -0.577   7.990  0.3584  0.6020  0.0719
  183SOPE  H11X20990   0.170  -0.620   7.905  3.5035 -0.6889 -1.5363
  183SOPE  H11Y20991   0.162  -0.502   8.040 -1.5257  0.0451 -1.4190
  183SOPE  C31220992   0.240  -0.690   8.094 -0.0713 -0.7309 -0.4780
  183SOPE  H12X20993   0.346  -0.722   8.091  0.1378 -0.0042 -0.9182
  183SOPE  H12Y20994   0.164  -0.768   8.071 -0.2476 -0.7772  0.2402
  183SOPE  C31320995   0.229  -0.630   8.238 -0.4957 -0.1316 -0.3049
  183SOPE  H13X20996   0.141  -0.566   8.259 -0.3875 -0.0234 -0.1781
  183SOPE  H13Y20997   0.317  -0.563   8.251 -0.6155  0.4289 -2.0884
  183SOPE  C31420998   0.238  -0.737   8.352  0.4196 -0.0415  0.3188
  183SOPE  H14X20999   0.334  -0.793   8.346 -0.6240 -1.9331  0.5573
  183SOPE  H14Y21000   0.147  -0.799   8.342  0.3713  0.1938 -0.9471
  183SOPE  C31521001   0.235  -0.679   8.493 -0.2678 -0.0579  0.6620
  183SOPE  H15X21002   0.144  -0.621   8.522  0.7127  1.8935 -0.0235
  183SOPE  H15Y21003   0.315  -0.603   8.497  0.2796 -0.6569  2.0698
  183SOPE  C31621004   0.255  -0.780   8.611  0.1553 -0.6115 -0.3515
  183SOPE  H16X21005   0.356  -0.825   8.596  0.2608 -1.0674  1.4712
  183SOPE  H16Y21006   0.180  -0.862   8.607  1.6602 -2.0214 -1.0410
  183SOPE  C31721007   0.251  -0.718   8.748  0.5196  0.1022  0.6643
  183SOPE  H17X21008   0.155  -0.668   8.772 -0.9750 -1.8928 -0.8479
  183SOPE  H17Y21009   0.327  -0.637   8.760 -0.8480  1.5927 -0.3531
  183SOPE  C31821010   0.273  -0.822   8.853  0.2370 -0.1137  0.3472
  183SOPE  H18X21011   0.295  -0.785   8.956 -0.7530 -2.2785  1.4174
  183SOPE  H18Y21012   0.347  -0.905   8.845  1.3330  0.5158  2.8722
  183SOPE  H18Z21013   0.180  -0.875   8.883  0.2518  0.0611  0.7117
  184SOPE     N21014   5.417   6.438   6.052 -0.2931  0.2115 -0.0241
  184SOPE   HN121015   5.319   6.472   6.061 -0.6629 -1.0463  1.0325
  184SOPE   HN221016   5.473   6.517   6.015  1.4502 -0.1824  1.6091
  184SOPE   HN321017   5.436   6.353   5.995 -0.6328 -0.0835  0.2951
  184SOPE   C1221018   5.481   6.410   6.185  0.5203  0.2719  0.0168
  184SOPE  H12A21019   5.592   6.415   6.176  0.5504  3.3891  0.9240
  184SOPE  H12B21020   5.454   6.307   6.218  0.5533 -1.3787 -4.3921
  184SOPE   C1121021   5.439   6.523   6.276 -0.2345  0.7172  0.2870
  184SOPE  H11A21022   5.494   6.528   6.372 -2.2453  2.1325  1.4555
  184SOPE  H11B21023   5.335   6.492   6.298 -0.4742  0.2940 -1.3188
  184SOPE     P21024   5.546   6.753   6.203  0.1556 -0.0518  0.0204
  184SOPE   O1321025   5.610   6.758   6.069 -0.2926  0.1902  0.3280
  184SOPE   O1421026   5.641   6.723   6.310  0.5363 -0.1182 -0.2104
  184SOPE   O1221027   5.440   6.649   6.204  0.2629  0.2197 -0.1018
  184SOPE   O1121028   5.473   6.891   6.234 -0.0209 -0.2868  0.0698
  184SOPE    C121029   5.350   6.885   6.313 -0.1327 -0.1464  0.2743
  184SOPE    HA21030   5.282   6.804   6.281 -3.9029  2.1631  1.8113
  184SOPE    HB21031   5.284   6.970   6.286 -0.3243 -0.6088 -0.7803
  184SOPE    C221032   5.382   6.886   6.471  0.0417 -0.0568  1.0002
  184SOPE    HS21033   5.296   6.929   6.527 -0.0175 -2.0287  2.5077
  184SOPE   O2121034   5.499   6.966   6.495 -0.0494  0.0690  0.4076
  184SOPE   C2121035   5.505   7.096   6.462 -0.3258 -0.0042  0.1945
  184SOPE   O2221036   5.409   7.165   6.435 -0.0028  0.4339  0.3254
  184SOPE   C2221037   5.647   7.134   6.446 -0.2555 -0.2847  0.6439
  184SOPE   H2R21038   5.677   7.130   6.339 -0.3883  1.9972  0.4880
  184SOPE   H2S21039   5.717   7.060   6.491  0.6457  0.4524  0.5017
  184SOPE    C321040   5.384   6.748   6.525 -0.0574  0.4170 -0.7970
  184SOPE    HX21041   5.472   6.688   6.494 -1.2294 -1.1878 -1.1427
  184SOPE    HY21042   5.300   6.698   6.473 -0.9795 -1.3699  2.1718
  184SOPE   O3121043   5.361   6.749   6.670 -0.0948  0.6940  0.3999
  184SOPE   C3121044   5.457   6.713   6.750 -0.8543  0.2958  0.2957
  184SOPE   O3221045   5.571   6.674   6.711 -0.5858  0.0352 -0.5766
  184SOPE   C3221046   5.414   6.750   6.893 -0.7500 -0.5093 -0.8653
  184SOPE   H2X21047   5.445   6.662   6.953 -1.6746 -0.2149  0.0691
  184SOPE   H2Y21048   5.304   6.748   6.901 -0.8053 -0.3672 -1.5141
  184SOPE   C2321049   5.653   7.280   6.500 -0.0588 -0.7376  0.5603
  184SOPE   H3R21050   5.653   7.270   6.611  0.0012 -2.7645  0.4151
  184SOPE   H3S21051   5.564   7.341   6.471 -0.2022 -0.9663  0.5160
  184SOPE   C2421052   5.786   7.350   6.455 -0.3075 -0.4505  0.3704
  184SOPE   H4R21053   5.864   7.270   6.461  0.4315  0.3288  1.6177
  184SOPE   H4S21054   5.774   7.386   6.351  0.1204  3.1996  1.4557
  184SOPE   C2521055   5.824   7.472   6.540  0.2977  0.1084 -0.0371
  184SOPE   H5R21056   5.750   7.555   6.540 -0.7466 -0.8074  0.3479
  184SOPE   H5S21057   5.828   7.441   6.647  1.4685 -0.1434 -0.1409
  184SOPE   C2621058   5.955   7.537   6.496  0.1672  0.1826 -0.4542
  184SOPE   H6R21059   6.019   7.448   6.478  0.4338  0.6649 -1.9871
  184SOPE   H6S21060   5.938   7.590   6.400  1.6395  4.3491  1.3412
  184SOPE   C2721061   6.015   7.634   6.600  0.0864 -0.7099  0.5755
  184SOPE   H7R21062   6.099   7.678   6.543 -0.5156 -1.6877 -1.1304
  184SOPE   H7S21063   5.930   7.703   6.617  0.3236 -0.0677 -0.7441
  184SOPE   C2821064   6.059   7.573   6.730  0.4771 -0.0625 -0.1148
  184SOPE   H8R21065   5.980   7.507   6.771  0.3663 -0.4067 -0.8653
  184SOPE   H8S21066   6.152   7.520   6.701 -0.4828 -1.3288 -1.0196
  184SOPE   C2921067   6.074   7.676   6.830 -0.2829 -0.1906 -0.1063
  184SOPE   H9121068   6.110   7.772   6.790  1.5368 -1.2971 -1.2692
  184SOPE  C21021069   6.048   7.656   6.959 -0.1397  0.0186 -0.4087
  184SOPE  H10121070   6.060   7.734   7.036 -0.9372 -1.3462  1.1497
  184SOPE  C21121071   5.999   7.524   7.030  0.4570 -0.1017  1.0712
  184SOPE  H11R21072   6.002   7.437   6.960  0.3916  2.2230 -2.0175
  184SOPE  H11S21073   5.894   7.546   7.060  0.1749  0.4208 -0.2107
  184SOPE  C21221074   6.070   7.490   7.161  0.3322 -0.3145  0.0629
  184SOPE  H12R21075   6.175   7.459   7.139  0.3208 -0.3582  0.0680
  184SOPE  H12S21076   6.026   7.396   7.201  1.1287 -0.3800  0.8091
  184SOPE  C21321077   6.081   7.602   7.266 -0.4237  0.5782  0.1008
  184SOPE  H13R21078   5.979   7.635   7.295  0.1856  2.0372  0.6964
  184SOPE  H13S21079   6.144   7.685   7.228 -1.1994  1.0255 -0.2308
  184SOPE  C21421080   6.132   7.544   7.400 -0.6054  0.0222 -0.3716
  184SOPE  H14R21081   6.232   7.499   7.380 -0.6416 -0.8852  1.2794
  184SOPE  H14S21082   6.071   7.460   7.440 -2.1484  0.9221 -0.7879
  184SOPE  C21521083   6.136   7.647   7.519 -0.6614 -0.0619 -0.1132
  184SOPE  H15R21084   6.032   7.684   7.535 -0.7374  1.0317 -2.6905
  184SOPE  H15S21085   6.198   7.733   7.489 -0.9168 -0.1585 -0.9478
  184SOPE  C21621086   6.164   7.585   7.660  0.2357 -0.3324 -0.0005
  184SOPE  H16R21087   6.270   7.553   7.667  1.5838  3.2708 -1.4128
  184SOPE  H16S21088   6.104   7.495   7.685 -0.7510 -0.0200 -1.1153
  184SOPE  C21721089   6.142   7.694   7.768 -0.2886  0.0383 -0.4017
  184SOPE  H17R21090   6.034   7.711   7.786 -0.0217 -1.0912  2.7461
  184SOPE  H17S21091   6.190   7.782   7.721 -0.7972 -0.4901 -2.0178
  184SOPE  C21821092   6.210   7.661   7.903 -0.6897 -0.1838 -0.2825
  184SOPE  H18R21093   6.195   7.743   7.976 -1.8512  0.9410 -1.7224
  184SOPE  H18S21094   6.318   7.644   7.886 -0.3159  0.7549  1.0198
  184SOPE  H18T21095   6.167   7.569   7.948  1.7642 -1.5818 -0.5881
  184SOPE   C3321096   5.489   6.882   6.933  0.1419  0.1587  0.3874
  184SOPE   H3X21097   5.459   6.973   6.877  0.5191 -0.0931 -0.2264
  184SOPE   H3Y21098   5.597   6.865   6.914  0.1845 -0.5197  1.1601
  184SOPE   C3421099   5.484   6.912   7.089 -0.1932 -0.2342 -0.1010
  184SOPE   H4X21100   5.379   6.919   7.126  0.4825 -0.5814  2.0204
  184SOPE   H4Y21101   5.528   7.014   7.096  0.8683 -0.7019  0.1525
  184SOPE   C3521102   5.569   6.811   7.179 -0.4873 -0.4204  0.5371
  184SOPE   H5X21103   5.669   6.806   7.130 -0.9491  0.0458 -0.4859
  184SOPE   H5Y21104   5.526   6.709   7.165 -0.6307 -0.1525 -1.3133
  184SOPE   C3621105   5.593   6.853   7.325  0.2369 -0.0703 -0.0466
  184SOPE   H6X21106   5.630   6.958   7.332  0.3079 -0.1860  1.9758
  184SOPE   H6Y21107   5.666   6.778   7.364 -1.5197 -0.6875  2.2187
  184SOPE   C3721108   5.467   6.838   7.411  1.0094  0.2206  0.6802
  184SOPE   H7X21109   5.414   6.742   7.394  1.4168  0.2489 -0.9342
  184SOPE   H7Y21110   5.392   6.909   7.369 -1.4331 -2.2963  0.4897
  184SOPE   C3821111   5.484   6.876   7.559 -0.2072 -0.4625  0.5608
  184SOPE   H8X21112   5.549   6.797   7.602 -0.0735 -0.1789  0.8864
  184SOPE   H8Y21113   5.397   6.866   7.627  0.3672 -1.0989  1.2172
  184SOPE   C3921114   5.574   6.994   7.585  0.4638 -0.9504 -0.2436
  184SOPE   H9X21115   5.532   7.087   7.542 -1.3923 -0.6271  2.1356
  184SOPE   H9Y21116   5.674   6.987   7.536  1.5017 -2.8966  1.9726
  184SOPE  C31021117   5.617   7.013   7.736 -0.5016  0.4001  0.6295
  184SOPE  H10X21118   5.530   7.013   7.806  0.4279 -1.1391  1.8485
  184SOPE  H10Y21119   5.664   7.114   7.730 -0.1118  0.1997  0.2933
  184SOPE  C31121120   5.714   6.911   7.783 -0.4387  0.2173  0.3199
  184SOPE  H11X21121   5.802   6.920   7.715  0.2323 -1.1873  0.9681
  184SOPE  H11Y21122   5.676   6.807   7.787  2.0911 -0.7276  2.3110
  184SOPE  C31221123   5.759   6.943   7.930  0.2007 -0.1894  1.1085
  184SOPE  H12X21124   5.673   6.923   7.997 -0.6564  1.2544  0.4752
  184SOPE  H12Y21125   5.785   7.050   7.938  1.1824 -0.5188  2.7054
  184SOPE  C31321126   5.878   6.855   7.985  0.1075 -0.4331  0.3693
  184SOPE  H13X21127   5.963   6.875   7.917  1.5975  1.1863  2.5770
  184SOPE  H13Y21128   5.861   6.745   7.984  2.7958 -0.9024  0.0800
  184SOPE  C31421129   5.915   6.887   8.129 -0.5263 -0.1485  0.3673
  184SOPE  H14X21130   5.889   6.995   8.140 -2.8215 -0.7449  1.4730
  184SOPE  H14Y21131   6.025   6.886   8.136 -0.3628  2.2011 -0.6790
  184SOPE  C31521132   5.848   6.796   8.236 -0.0016 -0.4823 -0.0566
  184SOPE  H15X21133   5.738   6.785   8.227 -0.1173  0.8171 -0.3589
  184SOPE  H15Y21134   5.874   6.847   8.331  1.1689  1.7626 -1.4879
  184SOPE  C31621135   5.898   6.646   8.246  0.2596  0.5817 -0.2045
  184SOPE  H16X21136   6.000   6.650   8.291  0.4962 -0.7916 -0.5556
  184SOPE  H16Y21137   5.905   6.605   8.143  0.2593  0.8847 -0.3250
  184SOPE  C31721138   5.806   6.556   8.338 -0.0350  0.2098  0.3011
  184SOPE  H17X21139   5.846   6.453   8.341 -0.3100  0.0778 -0.3926
  184SOPE  H17Y21140   5.706   6.543   8.290  0.7944 -2.2912 -0.8835
  184SOPE  C31821141   5.787   6.607   8.485 -0.5179 -0.0925  0.0140
  184SOPE  H18X21142   5.882   6.603   8.543  0.2803  1.5744 -1.0954
  184SOPE  H18Y21143   5.716   6.539   8.537  0.8341 -2.5471 -1.1164
  184SOPE  H18Z21144   5.744   6.709   8.479 -2.0041 -0.7095 -0.1237
  185SAPI   C1221145   3.145   4.287  11.043 -0.3597 -0.4826 -0.3311
  185SAPI    H221146   3.140   4.270  10.934  1.0506 -0.6634 -0.3855
  185SAPI    O221147   3.071   4.403  11.078 -0.5555  0.5471  0.1251
  185SAPI   HO221148   3.115   4.471  11.026  1.7925 -0.6599  0.4412
  185SAPI   C1321149   3.078   4.162  11.103  0.2428  0.5079  0.0818
  185SAPI    H321150   3.138   4.074  11.071 -0.0622  0.0429  0.7621
  185SAPI    O321151   2.940   4.151  11.051  0.1465 -0.1397  0.5258
  185SAPI   HO321152   2.907   4.061  11.041 -1.8013  0.6883 -0.9277
  185SAPI   C1421153   3.092   4.164  11.259 -0.5187 -0.6322 -0.1998
  185SAPI    H421154   3.035   4.254  11.291 -2.6530 -1.3373 -1.7194
  185SAPI    O421155   3.038   4.047  11.322  0.0156 -0.2231 -0.2922
  185SAPI   HO421156   3.036   4.061  11.417  1.9744 -1.8391  0.0672
  185SAPI   C1521157   3.245   4.168  11.299 -0.4105 -0.4808  0.0423
  185SAPI    H521158   3.303   4.085  11.252  3.3069  2.3702 -0.9608
  185SAPI    O521159   3.270   4.175  11.441 -0.1001  0.5057  0.2655
  185SAPI   HO521160   3.276   4.090  11.485 -3.2982  1.1898  2.3563
  185SAPI   C1621161   3.305   4.292  11.241  0.1876  0.1381  1.2706
  185SAPI    H621162   3.244   4.376  11.280 -1.9579 -0.7087 -0.0995
  185SAPI    O621163   3.445   4.300  11.277  0.6526  0.4807  0.2406
  185SAPI   HO621164   3.446   4.285  11.372  1.3505  0.7940  0.2867
  185SAPI   C1121165   3.295   4.290  11.089  0.6192  0.4202 -0.4590
  185SAPI    H121166   3.347   4.200  11.048 -0.4717 -0.2464 -0.4142
  185SAPI     P21167   3.482   4.421  10.946  0.2878 -0.0140 -0.1024
  185SAPI   O1321168   3.546   4.286  10.936  0.3424  0.8019  0.4648
  185SAPI   O1421169   3.569   4.537  10.982  0.1879 -0.1760  0.1309
  185SAPI   O1221170   3.348   4.412  11.043  0.0444  0.1726  0.0966
  185SAPI   O1121171   3.407   4.449  10.809 -1.0676 -0.5790 -0.4916
  185SAPI    C121172   3.346   4.339  10.745  0.3050 -0.0136 -0.7247
  185SAPI    HA21173   3.366   4.237  10.784 -1.5743 -1.3860 -3.0300
  185SAPI    HB21174   3.237   4.339  10.765  0.4976 -3.4413  0.9392
  185SAPI    C221175   3.380   4.341  10.592 -0.0053 -0.4477  0.0731
  185SAPI    HS21176   3.328   4.253  10.548 -0.9702  0.5709 -0.8643
  185SAPI   O2121177   3.520   4.331  10.578 -0.4995 -0.3614 -0.0413
  185SAPI   C2121178   3.579   4.206  10.589  0.9099  0.0780  0.5620
  185SAPI   O2221179   3.508   4.111  10.616  0.3619 -0.1095  0.0060
  185SAPI   C2221180   3.730   4.216  10.579  0.2477  0.4217 -0.0308
  185SAPI   H2R21181   3.757   4.276  10.490  1.2199  1.1756  0.7606
  185SAPI   H2S21182   3.768   4.260  10.674 -0.3511  0.7505  0.0616
  185SAPI    C321183   3.326   4.476  10.529  0.0359  0.5384  0.5124
  185SAPI    HX21184   3.373   4.564  10.578  1.2343  0.5899 -0.6790
  185SAPI    HY21185   3.218   4.485  10.555 -0.8727 -0.3497 -2.5342
  185SAPI   O3121186   3.361   4.487  10.394 -0.3391  0.2295 -0.3440
  185SAPI   C3121187   3.265   4.441  10.313 -0.4416 -0.1120 -0.5097
  185SAPI   O3221188   3.167   4.387  10.358  0.5936 -0.4268  0.0231
  185SAPI   C3221189   3.293   4.479  10.171  0.6356  0.3121  0.2283
  185SAPI   H2X21190   3.238   4.423  10.093 -0.2779  1.1823  0.2212
  185SAPI   H2Y21191   3.401   4.458  10.158  0.6450 -0.3646  1.2691
  185SAPI   C2321192   3.801   4.073  10.558 -0.2355 -0.6234 -0.0565
  185SAPI   H3R21193   3.773   4.016  10.649  0.2013  1.4249  1.4197
  185SAPI   H3S21194   3.909   4.099  10.571 -1.4867  5.2310  1.4027
  185SAPI   C2421195   3.782   4.001  10.426 -0.0034 -0.3222 -0.0610
  185SAPI   H4R21196   3.673   3.996  10.405 -0.2292 -1.8816  1.2667
  185SAPI   H4S21197   3.819   3.896  10.417 -0.2183 -0.2265 -2.6302
  185SAPI   C2521198   3.852   4.082  10.314  0.0624 -0.2213  0.0441
  185SAPI   H5R21199   3.953   4.040  10.303 -0.2457 -0.6804 -1.1238
  185SAPI   C2621200   3.803   4.176  10.233  0.3749  0.1277 -0.1449
  185SAPI   H6R21201   3.870   4.214  10.154 -1.6500  3.5037 -0.4594
  185SAPI   C2721202   3.666   4.232  10.235  0.6358  0.0752  0.1217
  185SAPI   H7R21203   3.621   4.210  10.334  2.2358 -0.8484  0.6841
  185SAPI   H7S21204   3.608   4.180  10.155  0.0113 -0.8001  1.1132
  185SAPI   C2821205   3.668   4.379  10.223  0.4435  0.0510 -1.0898
  185SAPI   H8R21206   3.633   4.428  10.315 -0.2248 -0.6086 -0.9772
  185SAPI   C2921207   3.691   4.453  10.118 -0.0871 -0.1026  0.1041
  185SAPI   H9R21208   3.697   4.561  10.138  0.4756 -0.3303  1.2224
  185SAPI  C21021209   3.714   4.413   9.971 -1.0548 -0.0944 -0.3069
  185SAPI  H10R21210   3.716   4.302   9.977  0.9787 -0.0153  2.4598
  185SAPI  H10S21211   3.815   4.446   9.940 -0.8507  1.8985  2.1731
  185SAPI  C21121212   3.596   4.469   9.883 -0.4697 -0.0582 -0.1117
  185SAPI  H11R21213   3.597   4.578   9.871 -3.2052  0.0504  0.1250
  185SAPI  C21221214   3.500   4.397   9.819  0.5858 -0.7500 -1.0305
  185SAPI  H12R21215   3.424   4.443   9.755  1.7115 -0.1556 -1.9700
  185SAPI  C21321216   3.483   4.247   9.832 -0.1794  0.1870 -0.2440
  185SAPI  H13R21217   3.490   4.209   9.936 -1.9861 -0.8153 -0.4511
  185SAPI  H13S21218   3.557   4.197   9.766 -0.7539  1.3852 -1.8873
  185SAPI  C21421219   3.348   4.188   9.779  0.2743 -0.6009 -0.7225
  185SAPI  H14R21220   3.296   4.142   9.865  1.8291  1.4382  1.4579
  185SAPI  C21521221   3.300   4.198   9.652 -0.4624  0.3416 -0.3176
  185SAPI  H15R21222   3.200   4.157   9.631 -0.4943  0.6648 -0.8104
  185SAPI  C21621223   3.371   4.259   9.535  0.0096 -0.4096 -0.1856
  185SAPI  H16R21224   3.479   4.252   9.559  0.5622  2.9071 -1.1574
  185SAPI  H16S21225   3.362   4.368   9.519  2.7338  0.1155  1.1693
  185SAPI  C21721226   3.337   4.196   9.396  0.3064 -0.3120  0.5009
  185SAPI  H17R21227   3.396   4.236   9.311 -0.7798 -0.6851 -0.4719
  185SAPI  H17S21228   3.234   4.228   9.369  1.3810  0.6156 -3.0724
  185SAPI  C21821229   3.355   4.045   9.385  0.2035 -0.0035 -0.1166
  185SAPI  H18R21230   3.267   4.007   9.440 -2.2099  1.6236 -2.6149
  185SAPI  H18S21231   3.452   4.016   9.433 -0.4340 -1.9603  0.1069
  185SAPI  C21921232   3.347   3.987   9.241 -0.5769  0.5954  0.0175
  185SAPI  H19R21233   3.346   3.879   9.264  1.2845  1.2237  3.7710
  185SAPI  H19S21234   3.441   4.020   9.191 -1.0434  0.9782 -0.6356
  185SAPI  C22021235   3.233   4.038   9.152 -0.7344  0.6605 -0.7893
  185SAPI  H20R21236   3.253   3.989   9.054  1.3070  0.5355 -0.3554
  185SAPI  H20S21237   3.241   4.148   9.134 -1.8862  1.0798  1.0470
  185SAPI  H20T21238   3.132   4.005   9.184 -0.1847 -0.3790 -0.0613
  185SAPI   C3321239   3.270   4.629  10.147 -0.0093 -0.6582 -0.2477
  185SAPI   H3X21240   3.334   4.698  10.206 -1.7692  0.4205  0.4923
  185SAPI   H3Y21241   3.162   4.651  10.158  0.2361 -0.3189  1.9986
  185SAPI   C3421242   3.309   4.664   9.998  0.2268  0.5558  0.1868
  185SAPI   H4X21243   3.251   4.608   9.922  0.9644 -0.9650  0.6942
  185SAPI   H4Y21244   3.418   4.644   9.984 -0.2361 -0.9743 -1.7717
  185SAPI   C3521245   3.278   4.815   9.968  0.7428  0.1722 -0.2781
  185SAPI   H5X21246   3.338   4.869  10.044 -0.4672 -1.2320  1.7670
  185SAPI   H5Y21247   3.171   4.839   9.985  0.7299  0.6865 -1.0182
  185SAPI   C3621248   3.324   4.872   9.838 -0.3849  0.9061 -0.0488
  185SAPI   H6X21249   3.382   4.786   9.799 -2.4147 -1.3951  1.7547
  185SAPI   H6Y21250   3.394   4.958   9.851 -0.0196  0.3287  2.1991
  185SAPI   C3721251   3.214   4.891   9.731  0.5475  0.2713  0.5031
  185SAPI   H7X21252   3.173   4.991   9.758 -0.7271 -0.1945  0.3322
  185SAPI   H7Y21253   3.135   4.816   9.750 -0.1857  0.6986 -0.8113
  185SAPI   C3821254   3.267   4.880   9.594 -0.3051 -0.1838 -0.0738
  185SAPI   H8X21255   3.339   4.796   9.589  0.1994  0.1847  0.7365
  185SAPI   H8Y21256   3.326   4.969   9.562 -0.3450  0.2301  0.9588
  185SAPI   C3921257   3.166   4.861   9.487 -0.0646  0.1247  0.1372
  185SAPI   H9X21258   3.105   4.954   9.497 -1.3028 -0.7201  0.8170
  185SAPI   H9Y21259   3.092   4.779   9.500 -2.4184  1.6967 -2.3345
  185SAPI  C31021260   3.230   4.861   9.345  0.4649  0.2195 -0.3209
  185SAPI  H10X21261   3.285   4.957   9.334  1.1502  0.0277  1.1306
  185SAPI  H10Y21262   3.148   4.865   9.270 -0.7568 -1.3225  0.8541
  185SAPI  C31121263   3.325   4.740   9.327 -0.6308 -0.4585  0.2576
  185SAPI  H11X21264   3.265   4.647   9.328 -2.5020  0.7003  0.3451
  185SAPI  H11Y21265   3.407   4.739   9.403 -1.8179  0.9455  1.6315
  185SAPI  C31221266   3.410   4.740   9.190 -0.2051 -0.0360 -0.2459
  185SAPI  H12X21267   3.477   4.651   9.189  1.3477  1.0675  0.9757
  185SAPI  H12Y21268   3.475   4.830   9.192 -2.2303  1.5490  2.4565
  185SAPI  C31321269   3.324   4.732   9.057  0.6341  0.2074 -0.0128
  185SAPI  H13X21270   3.405   4.738   8.981 -0.7623  1.1164 -1.5037
  185SAPI  H13Y21271   3.268   4.828   9.050  0.9205  0.3408 -0.5133
  185SAPI  C31421272   3.244   4.604   9.043  0.5732  0.0050 -0.5246
  185SAPI  H14X21273   3.138   4.638   9.039 -0.0521 -1.5506  1.2550
  185SAPI  H14Y21274   3.250   4.541   9.135 -1.0621  0.7501  0.1234
  185SAPI  C31521275   3.296   4.515   8.927  1.1575  0.2284  0.0408
  185SAPI  H15X21276   3.401   4.493   8.956  0.7440 -3.5003 -0.7876
  185SAPI  H15Y21277   3.293   4.561   8.825  0.2043  1.2947  0.5273
  185SAPI  C31621278   3.208   4.386   8.920 -0.1053 -0.1995 -0.1401
  185SAPI  H16X21279   3.101   4.414   8.913 -0.5367 -1.6050  0.5968
  185SAPI  H16Y21280   3.210   4.330   9.016  0.5724  1.1286  0.6516
  185SAPI  C31721281   3.247   4.282   8.817  0.2806 -1.0502  0.0619
  185SAPI  H17X21282   3.350   4.252   8.847  0.5032 -0.5021 -0.1365
  185SAPI  H17Y21283   3.251   4.327   8.716 -1.5589 -0.2384  0.3191
  185SAPI  C31821284   3.154   4.161   8.807 -0.4168  0.4157 -0.7052
  185SAPI  H18X21285   3.148   4.108   8.904  2.5709  0.0663 -0.6017
  185SAPI  H18Y21286   3.188   4.107   8.716 -1.0414 -2.5269  0.7046
  185SAPI  H18Z21287   3.052   4.201   8.788 -0.0423  1.1549 -1.2172
  186SAPI   C1221288   2.974   0.751  10.832 -0.7131  0.2587 -0.1796
  186SAPI    H221289   3.017   0.721  10.734 -1.1099 -1.6042  0.1844
  186SAPI    O221290   2.859   0.674  10.861  0.7014 -0.7779  1.0027
  186SAPI   HO221291   2.850   0.594  10.808  1.7615 -0.6783  0.6507
  186SAPI   C1321292   3.077   0.721  10.938 -0.6447  0.3537 -0.7493
  186SAPI    H321293   3.169   0.777  10.913 -0.4335  0.5999  0.4940
  186SAPI    O321294   3.099   0.581  10.948  0.1741  0.6001  0.5645
  186SAPI   HO321295   3.100   0.536  10.864  0.0618 -0.6111  1.1852
  186SAPI   C1421296   3.032   0.785  11.074 -0.7972  0.2887  0.8055
  186SAPI    H421297   2.937   0.739  11.109 -1.7417  0.7447 -1.0361
  186SAPI    O421298   3.136   0.762  11.173  0.5599  0.4061  0.4673
  186SAPI   HO421299   3.102   0.744  11.261 -0.8881 -0.4171 -0.2251
  186SAPI   C1521300   2.999   0.931  11.061  0.6197 -0.0463  0.4060
  186SAPI    H521301   3.092   0.982  11.027  0.5425 -0.6274 -0.7384
  186SAPI    O521302   2.954   0.985  11.184  0.1205  0.2879  0.3545
  186SAPI   HO521303   2.998   1.071  11.188 -1.6785  1.7309 -4.3087
  186SAPI   C1621304   2.892   0.953  10.954 -0.0873  0.0111 -0.4661
  186SAPI    H621305   2.801   0.904  10.994  1.1341 -3.1841 -1.3186
  186SAPI    O621306   2.864   1.095  10.939  0.4726  0.4607  0.3214
  186SAPI   HO621307   2.843   1.109  10.846  0.6922  0.5197  0.2820
  186SAPI   C1121308   2.940   0.894  10.829 -0.0866 -0.3228  0.0189
  186SAPI    H121309   3.030   0.956  10.808 -1.7009  2.2734  0.4064
  186SAPI     P21310   2.844   1.031  10.609  0.2916  0.2927  0.2232
  186SAPI   O1321311   2.861   1.153  10.692 -0.1118  0.0212 -0.8129
  186SAPI   O1421312   2.720   1.009  10.528  0.0929 -0.5074 -0.4879
  186SAPI   O1221313   2.847   0.912  10.714 -0.1356 -0.1306 -0.1498
  186SAPI   O1121314   2.973   1.016  10.512  0.5523 -0.3323 -0.0128
  186SAPI    C121315   3.021   0.889  10.469 -0.3912  0.1129 -0.0245
  186SAPI    HA21316   3.127   0.890  10.503 -0.8649 -3.2423  2.0107
  186SAPI    HB21317   2.958   0.806  10.510 -1.6106  0.1379 -1.7425
  186SAPI    C221318   3.019   0.879  10.308 -0.4752  0.0680 -0.2179
  186SAPI    HS21319   3.070   0.786  10.276  0.1256  0.5652 -0.7268
  186SAPI   O2121320   3.086   0.996  10.250  0.0006 -0.1951 -0.1350
  186SAPI   C2121321   3.221   0.983  10.245 -0.2937 -0.2843 -0.4364
  186SAPI   O2221322   3.286   0.887  10.288  0.2990  0.1254  0.2234
  186SAPI   C2221323   3.276   1.098  10.170  0.4189  0.5358  0.7300
  186SAPI   H2R21324   3.214   1.098  10.078  0.0853  0.5010  0.9517
  186SAPI   H2S21325   3.268   1.191  10.230 -0.9144  0.4530  0.7203
  186SAPI    C321326   2.878   0.865  10.258 -1.0863  0.7502 -0.5026
  186SAPI    HX21327   2.823   0.955  10.293 -1.5040  0.3468 -0.1100
  186SAPI    HY21328   2.826   0.780  10.308  0.0639 -3.0541 -5.0628
  186SAPI   O3121329   2.873   0.847  10.113  0.1918 -0.2529 -0.6247
  186SAPI   C3121330   2.869   0.727  10.057 -0.2105 -0.1569 -0.5324
  186SAPI   O3221331   2.881   0.622  10.123 -0.0673 -0.0459 -0.2657
  186SAPI   C3221332   2.850   0.730   9.912  0.0874  0.8063 -0.3149
  186SAPI   H2X21333   2.883   0.830   9.877  0.3750  1.5056  1.8375
  186SAPI   H2Y21334   2.743   0.742   9.887  0.5051  2.8789 -1.3718
  186SAPI   C2321335   3.429   1.071  10.136 -0.0071  0.0377  0.2421
  186SAPI   H3R21336   3.443   0.976  10.080 -0.6795 -0.1033  0.3064
  186SAPI   H3S21337   3.479   1.056  10.234 -0.3032 -0.5799  0.3020
  186SAPI   C2421338   3.485   1.196  10.064 -0.0831 -0.0432 -0.3374
  186SAPI   H4R21339   3.465   1.285  10.126  0.6308  2.1783 -3.0906
  186SAPI   H4S21340   3.432   1.210   9.968  0.8225  0.9966 -0.7003
  186SAPI   C2521341   3.636   1.186  10.047  0.2634 -0.1847  0.7557
  186SAPI   H5R21342   3.687   1.187  10.144  1.0812 -0.3032  0.3393
  186SAPI   C2621343   3.710   1.177   9.941  0.1074 -0.3934  0.7431
  186SAPI   H6R21344   3.820   1.173   9.951  0.4061 -1.0133 -2.1102
  186SAPI   C2721345   3.669   1.173   9.798 -0.1465  0.6195  0.2422
  186SAPI   H7R21346   3.563   1.154   9.770  0.4031 -0.6672 -1.0969
  186SAPI   H7S21347   3.712   1.077   9.763 -1.8475  0.7206 -2.4531
  186SAPI   C2821348   3.722   1.281   9.715 -0.2654 -0.2741  0.4132
  186SAPI   H8R21349   3.764   1.365   9.772  1.5792 -0.7356 -0.1839
  186SAPI   C2921350   3.732   1.286   9.582 -0.3273  0.3337  0.1416
  186SAPI   H9R21351   3.757   1.384   9.539  2.4376 -1.0288 -1.7217
  186SAPI  C21021352   3.679   1.181   9.481  0.0615 -0.1988  0.6686
  186SAPI  H10R21353   3.619   1.104   9.534 -0.1424  0.6990  1.7898
  186SAPI  H10S21354   3.764   1.128   9.435  1.2616  1.6442  0.6481
  186SAPI  C21121355   3.580   1.239   9.384 -0.4478  0.2706  0.5430
  186SAPI  H11R21356   3.476   1.226   9.416 -0.0950 -1.3629  1.1390
  186SAPI  C21221357   3.613   1.287   9.265 -0.0267  0.1072  0.3853
  186SAPI  H12R21358   3.531   1.319   9.198 -1.0112  1.2152  2.0472
  186SAPI  C21321359   3.748   1.287   9.203 -0.6546  0.9852 -0.4663
  186SAPI  H13R21360   3.756   1.186   9.158 -0.9786  1.3605 -1.4161
  186SAPI  H13S21361   3.826   1.295   9.281 -1.2467 -0.6578  0.3311
  186SAPI  C21421362   3.783   1.369   9.081 -1.0629  0.6132 -0.1407
  186SAPI  H14R21363   3.837   1.462   9.103  1.2518 -0.3956 -1.2711
  186SAPI  C21521364   3.744   1.352   8.954 -0.1687 -0.2182  0.7506
  186SAPI  H15R21365   3.784   1.426   8.883  1.2734 -0.1145  1.6213
  186SAPI  C21621366   3.661   1.239   8.901  0.1229 -0.8091 -0.2028
  186SAPI  H16R21367   3.622   1.177   8.984 -0.8444 -0.4134 -0.3441
  186SAPI  H16S21368   3.727   1.170   8.845  1.2821  0.8262 -0.9401
  186SAPI  C21721369   3.535   1.286   8.815 -0.3191 -0.5393  1.1352
  186SAPI  H17R21370   3.499   1.194   8.765  0.0891 -0.0364 -0.1442
  186SAPI  H17S21371   3.570   1.359   8.738  0.5034 -0.6906  1.3490
  186SAPI  C21821372   3.440   1.369   8.904  0.2969 -0.3916  0.8469
  186SAPI  H18R21373   3.490   1.462   8.940 -0.7278  0.1298  0.9478
  186SAPI  H18S21374   3.411   1.315   8.997  1.2922 -1.2740  0.6600
  186SAPI  C21921375   3.314   1.421   8.829  0.5988 -0.0393 -0.5081
  186SAPI  H19R21376   3.227   1.437   8.896  1.2189 -2.2023  0.9197
  186SAPI  H19S21377   3.282   1.338   8.762 -1.6436 -0.5458  1.0750
  186SAPI  C22021378   3.345   1.538   8.737 -0.4247 -0.2585  0.6330
  186SAPI  H20R21379   3.254   1.584   8.692 -1.5900 -1.2927  1.8680
  186SAPI  H20S21380   3.412   1.505   8.654 -1.3947 -2.6128  0.6863
  186SAPI  H20T21381   3.384   1.626   8.791 -0.2626  0.7836 -1.1108
  186SAPI   C3321382   2.933   0.627   9.833 -0.3139  0.1323 -0.4388
  186SAPI   H3X21383   2.924   0.523   9.872 -2.5587  0.2935 -0.3609
  186SAPI   H3Y21384   3.042   0.636   9.851  0.1933 -2.0393 -2.0021
  186SAPI   C3421385   2.920   0.631   9.681 -0.1514 -0.4326  0.6965
  186SAPI   H4X21386   2.928   0.733   9.639 -2.2837 -0.1112  0.9694
  186SAPI   H4Y21387   2.820   0.589   9.659  0.7489 -2.2755 -0.1177
  186SAPI   C3521388   3.029   0.539   9.622  0.4087  0.7151  0.5732
  186SAPI   H5X21389   3.025   0.433   9.657  0.9945  0.2793 -0.6331
  186SAPI   H5Y21390   3.128   0.589   9.625  0.9638 -0.3667  0.7164
  186SAPI   C3621391   3.002   0.525   9.473  0.1361 -0.1840  0.3560
  186SAPI   H6X21392   2.990   0.626   9.428  0.0888 -0.9093 -1.3161
  186SAPI   H6Y21393   2.903   0.473   9.472 -0.4755  0.9579  0.1294
  186SAPI   C3721394   3.107   0.433   9.407 -0.5871  0.2187 -0.3000
  186SAPI   H7X21395   3.073   0.328   9.416 -0.7695  0.1132 -1.9702
  186SAPI   H7Y21396   3.202   0.446   9.462 -0.2785  0.9984 -0.9948
  186SAPI   C3821397   3.139   0.461   9.261  0.2427 -0.5580  0.4182
  186SAPI   H8X21398   3.215   0.386   9.229  1.6934  1.1919 -0.4156
  186SAPI   H8Y21399   3.185   0.560   9.243  1.0059 -0.5374  2.2564
  186SAPI   C3921400   3.017   0.448   9.166  0.0745  0.6477  0.3076
  186SAPI   H9X21401   2.933   0.519   9.182  0.5292  1.8289 -2.0924
  186SAPI   H9Y21402   2.985   0.344   9.187 -0.7583  1.0132  0.9165
  186SAPI  C31021403   3.053   0.463   9.016 -0.6573  0.0276 -0.2917
  186SAPI  H10X21404   3.136   0.399   8.981  1.4958  2.0761  0.8349
  186SAPI  H10Y21405   3.098   0.564   9.004 -0.6814  0.0208 -0.4357
  186SAPI  C31121406   2.932   0.464   8.924 -0.2251 -0.2973 -0.4476
  186SAPI  H11X21407   2.961   0.485   8.819  1.0046  1.4279  0.1920
  186SAPI  H11Y21408   2.874   0.552   8.959  0.4506  0.6211 -1.5714
  186SAPI  C31221409   2.866   0.336   8.914 -0.1188  0.4143  0.1626
  186SAPI  H12X21410   2.824   0.318   9.016 -2.0367  0.9011 -0.5029
  186SAPI  H12Y21411   2.943   0.260   8.892  1.6225  2.9895 -3.8551
  186SAPI  C31321412   2.755   0.340   8.820 -0.0907 -0.2664 -0.4345
  186SAPI  H13X21413   2.811   0.331   8.724  1.9829 -1.4018  0.7915
  186SAPI  H13Y21414   2.695   0.432   8.832 -1.0557 -1.0590  1.3023
  186SAPI  C31421415   2.669   0.218   8.838  0.6900  0.4633 -0.0002
  186SAPI  H14X21416   2.631   0.213   8.942  0.7085  0.0874 -0.0079
  186SAPI  H14Y21417   2.736   0.134   8.809  1.4234  1.4857 -1.3914
  186SAPI  C31521418   2.562   0.203   8.733  0.1390 -0.1097 -0.2983
  186SAPI  H15X21419   2.482   0.275   8.761 -0.5256 -1.4360  1.4297
  186SAPI  H15Y21420   2.509   0.105   8.739  0.6576 -0.4212 -0.7774
  186SAPI  C31621421   2.602   0.226   8.587  0.2761 -0.2722  0.5911
  186SAPI  H16X21422   2.688   0.160   8.563 -1.6715 -2.4752 -0.7321
  186SAPI  H16Y21423   2.630   0.334   8.582 -1.7319  0.2709  0.3837
  186SAPI  C31721424   2.497   0.210   8.485  0.7797  0.0259  0.1574
  186SAPI  H17X21425   2.529   0.216   8.379 -2.9388 -1.2856 -1.2312
  186SAPI  H17Y21426   2.437   0.303   8.489  0.5644  0.1191 -2.9253
  186SAPI  C31821427   2.397   0.090   8.494  0.7113 -0.0810 -0.4733
  186SAPI  H18X21428   2.362   0.063   8.595  0.5422 -1.6871 -0.9290
  186SAPI  H18Y21429   2.427  -0.006   8.446  0.0500 -1.6156  2.0021
  186SAPI  H18Z21430   2.308   0.117   8.433  1.4600  1.9951 -0.7251
  187SAPI   C1221431   2.816   2.487   6.401  0.2287  0.1213 -0.1388
  187SAPI    H221432   2.785   2.594   6.399 -1.0615 -0.0994  2.8200
  187SAPI    O221433   2.813   2.436   6.269  0.3046  0.0843  0.1029
  187SAPI   HO221434   2.722   2.442   6.241 -0.0149 -1.6465  0.6561
  187SAPI   C1321435   2.964   2.474   6.450 -0.3685  0.8288  0.4807
  187SAPI    H321436   2.975   2.513   6.553  0.7306 -1.0407  1.1192
  187SAPI    O321437   3.059   2.540   6.356 -0.0768  0.2537 -0.4306
  187SAPI   HO321438   3.048   2.493   6.273  1.5703  2.7348 -2.2010
  187SAPI   C1421439   2.996   2.327   6.466 -0.2954  0.3214  0.2533
  187SAPI    H421440   2.979   2.284   6.364 -0.0427 -1.0796  0.7814
  187SAPI    O421441   3.129   2.314   6.509 -0.8222 -0.1708 -0.2262
  187SAPI   HO421442   3.163   2.239   6.460  0.3997 -0.6892  1.3299
  187SAPI   C1521443   2.895   2.250   6.550  0.2517  0.1302 -0.5474
  187SAPI    H521444   2.889   2.312   6.642 -0.8351  1.8779 -1.7274
  187SAPI    O521445   2.927   2.118   6.586 -0.0454 -0.5551 -0.4959
  187SAPI   HO521446   2.880   2.095   6.666  1.6186 -1.1167  0.3747
  187SAPI   C1621447   2.754   2.259   6.488  0.5486 -0.3564  0.5034
  187SAPI    H621448   2.765   2.213   6.388 -2.6471 -1.1042  0.3683
  187SAPI    O621449   2.645   2.184   6.542  0.1641  0.5679  0.2051
  187SAPI   HO621450   2.569   2.239   6.564 -0.7890 -0.2377 -0.9206
  187SAPI   C1121451   2.719   2.407   6.481 -0.6992  0.2718  0.0512
  187SAPI    H121452   2.733   2.439   6.587 -1.6039 -1.9943  0.9343
  187SAPI     P21453   2.472   2.491   6.506 -0.1423 -0.7028  0.0250
  187SAPI   O1321454   2.371   2.517   6.403  0.1093 -0.6145 -0.1359
  187SAPI   O1421455   2.520   2.611   6.576  0.0827  0.1291  0.2838
  187SAPI   O1221456   2.593   2.419   6.430  0.2789 -0.5034  0.0920
  187SAPI   O1121457   2.429   2.393   6.614  0.2611  0.8454  0.1316
  187SAPI    C121458   2.335   2.287   6.579  0.3077  0.1719 -0.6460
  187SAPI    HA21459   2.240   2.331   6.541 -0.5678 -1.9145 -1.0023
  187SAPI    HB21460   2.384   2.227   6.500  1.5113  1.9814 -1.3332
  187SAPI    C221461   2.296   2.198   6.701  0.1880 -0.5901  0.4683
  187SAPI    HS21462   2.219   2.125   6.666 -0.4079 -0.0298  0.5927
  187SAPI   O2121463   2.235   2.292   6.799  0.8235 -0.0200 -0.5387
  187SAPI   C2121464   2.114   2.344   6.774 -0.2587 -0.2120 -1.1689
  187SAPI   O2221465   2.039   2.309   6.680  0.3389  0.7743 -0.0666
  187SAPI   C2221466   2.077   2.431   6.893  1.0022 -0.0153 -0.3050
  187SAPI   H2R21467   1.967   2.418   6.897  0.9092  0.1360 -1.7796
  187SAPI   H2S21468   2.127   2.393   6.984  0.8754 -0.9663 -0.6188
  187SAPI    C321469   2.405   2.119   6.760 -0.0200 -0.3220  0.3494
  187SAPI    HX21470   2.485   2.188   6.794  1.1096 -2.2909  1.9588
  187SAPI    HY21471   2.452   2.052   6.684  2.3718  2.3121 -0.7048
  187SAPI   O3121472   2.337   2.050   6.860  0.1647 -0.2008 -0.5839
  187SAPI   C3121473   2.409   2.011   6.969 -0.2297 -0.1781  0.7562
  187SAPI   O3221474   2.528   2.044   6.980  0.2935 -0.6252  0.0674
  187SAPI   C3221475   2.318   1.930   7.054 -0.2258  0.0658  0.2625
  187SAPI   H2X21476   2.316   1.832   7.000 -1.1845 -0.2028  0.7692
  187SAPI   H2Y21477   2.219   1.978   7.059 -1.3356 -1.6475 -2.5900
  187SAPI   C2321478   2.089   2.583   6.868  0.6611  0.5809  0.1090
  187SAPI   H3R21479   2.005   2.628   6.925  0.7597  0.6374  0.2111
  187SAPI   H3S21480   2.066   2.602   6.761 -0.7135  0.8157  0.4229
  187SAPI   C2421481   2.216   2.647   6.923 -0.3440  0.8913  0.3764
  187SAPI   H4R21482   2.207   2.638   7.033 -0.7767  1.5748  0.3986
  187SAPI   H4S21483   2.218   2.757   6.907  0.5027  1.0253  1.3359
  187SAPI   C2521484   2.347   2.596   6.876  0.1400  0.1357 -0.0979
  187SAPI   H5R21485   2.389   2.654   6.793 -0.0425  3.1362  1.7726
  187SAPI   C2621486   2.426   2.499   6.934 -0.3847 -0.8576  1.3335
  187SAPI   H6R21487   2.511   2.476   6.867 -0.5025  0.5686  0.6410
  187SAPI   C2721488   2.389   2.415   7.054  0.4016 -0.6261  0.4144
  187SAPI   H7R21489   2.340   2.323   7.017  0.4227 -0.4900  0.0491
  187SAPI   H7S21490   2.315   2.477   7.109  1.0396  1.1219 -0.6103
  187SAPI   C2821491   2.507   2.373   7.133  0.2667 -0.2551 -0.8665
  187SAPI   H8R21492   2.561   2.287   7.091  0.6954 -0.4671  0.1143
  187SAPI   C2921493   2.564   2.435   7.235 -0.4064 -0.6762  0.6991
  187SAPI   H9R21494   2.651   2.386   7.281 -0.1558 -1.0732 -0.1855
  187SAPI  C21021495   2.521   2.560   7.306  0.0179  0.0812  0.3150
  187SAPI  H10R21496   2.505   2.641   7.232 -1.5072 -0.1266  0.3871
  187SAPI  H10S21497   2.609   2.591   7.367  0.4281 -2.6138  1.2344
  187SAPI  C21121498   2.404   2.555   7.403 -0.1527  0.6518 -0.4256
  187SAPI  H11R21499   2.305   2.569   7.358 -0.2157 -2.1208 -1.3822
  187SAPI  C21221500   2.413   2.554   7.539 -0.3172 -0.0127 -0.0223
  187SAPI  H12R21501   2.322   2.544   7.599 -0.0637  1.0423  0.5622
  187SAPI  C21321502   2.533   2.559   7.630 -0.4539 -0.1659 -0.1128
  187SAPI  H13R21503   2.624   2.521   7.578  0.9710  0.9175  1.4794
  187SAPI  H13S21504   2.522   2.489   7.716 -0.9323  0.8402  0.6651
  187SAPI  C21421505   2.564   2.702   7.669  0.4119  0.8379  0.1574
  187SAPI  H14R21506   2.555   2.774   7.587 -0.2092  2.2258  1.4002
  187SAPI  C21521507   2.595   2.761   7.789  1.3723  0.0205 -0.6444
  187SAPI  H15R21508   2.600   2.870   7.798 -2.5828  0.2958  0.0296
  187SAPI  C21621509   2.582   2.688   7.923 -0.3413 -0.0991 -0.0373
  187SAPI  H16R21510   2.682   2.696   7.971 -0.0450 -1.5895 -0.3711
  187SAPI  H16S21511   2.571   2.579   7.908  0.4954 -0.2259  0.2117
  187SAPI  C21721512   2.487   2.753   8.025  0.4048 -0.1619 -0.0658
  187SAPI  H17R21513   2.514   2.859   8.044 -1.6777  0.1035  1.8764
  187SAPI  H17S21514   2.505   2.706   8.124 -0.4758  2.5064  1.4751
  187SAPI  C21821515   2.345   2.743   7.977  0.8442  0.2050  0.0332
  187SAPI  H18R21516   2.322   2.637   7.952  0.4988 -0.0497  1.3763
  187SAPI  H18S21517   2.334   2.807   7.887  0.6714  0.1996  0.0506
  187SAPI  C21921518   2.248   2.792   8.083  0.7867  1.0680 -0.0095
  187SAPI  H19R21519   2.147   2.773   8.041  1.5613  0.5035 -1.7247
  187SAPI  H19S21520   2.245   2.903   8.085  1.1673  1.0827  2.1884
  187SAPI  C22021521   2.247   2.732   8.225  0.8493  0.9660  0.5061
  187SAPI  H20R21522   2.244   2.621   8.219  2.4952  0.9924 -1.5132
  187SAPI  H20S21523   2.163   2.779   8.281 -0.5065 -0.8482  0.0930
  187SAPI  H20T21524   2.343   2.753   8.276  0.4302  1.4014  1.1457
  187SAPI   C3321525   2.370   1.922   7.193 -0.1055  0.6073  0.1095
  187SAPI   H3X21526   2.277   1.904   7.251 -0.5712  1.8276 -0.2420
  187SAPI   H3Y21527   2.421   2.017   7.220 -0.3095  0.8357 -0.3043
  187SAPI   C3421528   2.463   1.799   7.221  0.0048  0.4981 -0.4042
  187SAPI   H4X21529   2.561   1.812   7.170  0.6680  1.1252  0.9920
  187SAPI   H4Y21530   2.420   1.705   7.179 -1.4912 -0.2296  2.4858
  187SAPI   C3521531   2.485   1.772   7.370 -0.2899  0.2246 -0.5179
  187SAPI   H5X21532   2.389   1.726   7.401  0.5882 -0.7189  0.9180
  187SAPI   H5Y21533   2.501   1.875   7.410  1.1688  0.0006 -0.4733
  187SAPI   C3621534   2.598   1.674   7.401 -0.0199  0.5926  0.4344
  187SAPI   H6X21535   2.691   1.702   7.346 -1.2884 -0.1167 -2.1953
  187SAPI   H6Y21536   2.573   1.580   7.347  0.2277  0.9863 -0.3716
  187SAPI   C3721537   2.611   1.650   7.550  0.2510  0.7690  0.6665
  187SAPI   H7X21538   2.678   1.565   7.573 -0.3742 -0.1142 -0.6837
  187SAPI   H7Y21539   2.507   1.627   7.583 -1.2421  4.4937 -0.8613
  187SAPI   C3821540   2.654   1.778   7.625  0.0537  0.2998  0.6104
  187SAPI   H8X21541   2.579   1.860   7.629  1.1652  1.4437 -0.8678
  187SAPI   H8Y21542   2.739   1.810   7.560  1.6547 -0.5993  2.1623
  187SAPI   C3921543   2.714   1.743   7.753  0.1682  0.4848 -0.1022
  187SAPI   H9X21544   2.798   1.814   7.769 -0.7464  1.6083 -0.2126
  187SAPI   H9Y21545   2.750   1.638   7.758 -1.2867 -0.4233 -4.4557
  187SAPI  C31021546   2.611   1.760   7.867  0.2425 -0.1074  0.1465
  187SAPI  H10X21547   2.537   1.679   7.845  0.5284 -0.0601 -1.0525
  187SAPI  H10Y21548   2.559   1.858   7.863  0.6233  0.1430  0.9811
  187SAPI  C31121549   2.663   1.731   8.013  0.7602  0.7210  0.9289
  187SAPI  H11X21550   2.748   1.798   8.038  4.1806 -2.3867 -1.3349
  187SAPI  H11Y21551   2.703   1.627   8.016 -0.7527 -0.0139 -1.6354
  187SAPI  C31221552   2.550   1.747   8.122 -0.2214 -0.6096 -0.1878
  187SAPI  H12X21553   2.596   1.719   8.219  1.6106  1.5269 -0.3656
  187SAPI  H12Y21554   2.470   1.675   8.093 -1.1024  0.2287  0.0772
  187SAPI  C31321555   2.508   1.893   8.134  0.4227 -0.5702  0.3672
  187SAPI  H13X21556   2.419   1.921   8.074  0.9564  0.6170  0.0989
  187SAPI  H13Y21557   2.588   1.959   8.093 -1.4743  1.1495 -0.7505
  187SAPI  C31421558   2.476   1.947   8.277  0.0394 -0.3308  0.6314
  187SAPI  H14X21559   2.567   1.932   8.338 -0.0262  0.2589  0.8842
  187SAPI  H14Y21560   2.391   1.889   8.318  0.7076 -2.1677 -0.4530
  187SAPI  C31521561   2.436   2.102   8.279  0.2374  0.6075  0.1244
  187SAPI  H15X21562   2.333   2.116   8.239  0.3226  0.1955 -0.2488
  187SAPI  H15Y21563   2.507   2.162   8.218 -0.3233 -0.0843 -1.2614
  187SAPI  C31621564   2.446   2.154   8.425  0.2413  0.0941  0.2556
  187SAPI  H16X21565   2.541   2.115   8.467 -0.5303 -0.9623  1.0918
  187SAPI  H16Y21566   2.371   2.110   8.495  0.7262  1.9515  2.0225
  187SAPI  C31721567   2.436   2.304   8.445 -0.0517 -0.6479 -0.1646
  187SAPI  H17X21568   2.534   2.340   8.406  0.6951 -2.2789  0.1234
  187SAPI  H17Y21569   2.420   2.316   8.554  0.7042  0.5417 -0.1627
  187SAPI  C31821570   2.311   2.364   8.377 -0.1645 -0.2323  0.3545
  187SAPI  H18X21571   2.295   2.460   8.430 -3.5374  0.7510 -2.0748
  187SAPI  H18Y21572   2.237   2.292   8.419  2.8339 -2.1238  2.9016
  187SAPI  H18Z21573   2.331   2.371   8.268  1.9631 -1.0711  0.6458
  188SAPI   C1221574   1.787   6.226   6.083 -0.3454 -0.2059  0.7400
  188SAPI    H221575   1.839   6.304   6.023  0.2496 -1.1126  0.0476
  188SAPI    O221576   1.712   6.140   5.991 -0.0806 -0.1858  0.0715
  188SAPI   HO221577   1.720   6.172   5.900 -0.8320  0.8936  0.3630
  188SAPI   C1321578   1.894   6.152   6.155 -0.2377 -0.4745  0.0455
  188SAPI    H321579   1.943   6.222   6.226  1.1122  0.9320 -2.1484
  188SAPI    O321580   2.009   6.125   6.064  0.4691  0.4302  0.0740
  188SAPI   HO321581   2.094   6.135   6.108  0.9815 -0.8091 -0.5833
  188SAPI   C1421582   1.845   6.033   6.229  0.0225 -0.6564  0.3749
  188SAPI    H421583   1.805   5.964   6.153  0.4800  1.2364 -1.6800
  188SAPI    O421584   1.951   5.962   6.290 -0.6247  0.1450 -0.6743
  188SAPI   HO421585   1.990   6.022   6.354 -2.1693 -0.0304  0.4948
  188SAPI   C1521586   1.742   6.076   6.330 -0.3686 -0.1611 -0.1056
  188SAPI    H521587   1.794   6.146   6.398 -1.7955  1.4511 -0.6165
  188SAPI    O521588   1.680   5.969   6.398 -0.1166 -0.3648 -0.5045
  188SAPI   HO521589   1.613   6.009   6.454  0.3337  0.5747 -0.6143
  188SAPI   C1621590   1.637   6.166   6.263 -0.1504  0.2854  0.5586
  188SAPI    H621591   1.567   6.118   6.191 -0.6191  2.6577 -0.6481
  188SAPI    O621592   1.558   6.217   6.373 -0.2292 -0.2155  0.1987
  188SAPI   HO621593   1.466   6.223   6.344 -0.1674  0.8729  0.2008
  188SAPI   C1121594   1.692   6.281   6.187 -0.0065 -0.2851  0.8809
  188SAPI    H121595   1.760   6.339   6.254  0.4772  0.0687  0.0956
  188SAPI     P21596   1.608   6.538   6.125  0.2283  0.4109 -0.1245
  188SAPI   O1321597   1.532   6.597   6.012 -0.2019  0.1300  0.0949
  188SAPI   O1421598   1.753   6.575   6.141  0.1643 -0.1955 -0.0019
  188SAPI   O1221599   1.595   6.371   6.127 -0.3376 -0.9619 -1.3957
  188SAPI   O1121600   1.536   6.573   6.262  0.2024  0.2552 -0.5650
  188SAPI    C121601   1.401   6.532   6.290 -0.2843 -0.6425  0.1866
  188SAPI    HA21602   1.330   6.596   6.233 -1.1864 -0.9098  0.9875
  188SAPI    HB21603   1.380   6.427   6.260 -0.5709 -0.7539  0.7678
  188SAPI    C221604   1.369   6.548   6.439  0.1080 -0.2803 -0.8778
  188SAPI    HS21605   1.352   6.654   6.468  0.5616 -1.1676  3.1934
  188SAPI   O2121606   1.462   6.481   6.526 -0.6841 -0.5304 -0.4566
  188SAPI   C2121607   1.579   6.550   6.557  0.0027 -0.3560 -0.9365
  188SAPI   O2221608   1.582   6.668   6.544 -0.1125  0.0218 -0.2414
  188SAPI   C2221609   1.686   6.469   6.613 -0.1508  0.5695 -0.7256
  188SAPI   H2R21610   1.708   6.384   6.545 -0.6990 -1.2492  1.2784
  188SAPI   H2S21611   1.774   6.530   6.640 -0.5892  0.5467  0.8444
  188SAPI    C321612   1.244   6.473   6.476 -0.0238  0.1450 -0.0362
  188SAPI    HX21613   1.251   6.365   6.450  1.4646  0.0249  0.6956
  188SAPI    HY21614   1.164   6.508   6.407 -0.4532 -0.1407  0.3135
  188SAPI   O3121615   1.212   6.483   6.621 -0.2975  0.1454  0.6911
  188SAPI   C3121616   1.117   6.402   6.666  0.1557 -1.4327  0.2559
  188SAPI   O3221617   1.057   6.319   6.600  0.6876  0.0553 -0.1499
  188SAPI   C3221618   1.094   6.437   6.809 -0.7216 -0.3126 -0.8514
  188SAPI   H2X21619   1.097   6.546   6.833 -2.3142 -0.6435  1.0664
  188SAPI   H2Y21620   1.184   6.394   6.859 -0.4722 -0.1804 -1.1785
  188SAPI   C2321621   1.662   6.408   6.756 -0.2914  0.0142  0.5566
  188SAPI   H3R21622   1.566   6.351   6.750  0.3305 -1.0657  0.6853
  188SAPI   H3S21623   1.662   6.483   6.838  0.9843  1.0947 -0.3944
  188SAPI   C2421624   1.781   6.321   6.802  0.4234 -0.0664 -0.2092
  188SAPI   H4R21625   1.764   6.291   6.907  1.0702  2.0275  0.5403
  188SAPI   H4S21626   1.871   6.386   6.803  0.1208  0.3460  0.1964
  188SAPI   C2521627   1.820   6.203   6.716 -0.5504 -0.1799 -0.0005
  188SAPI   H5R21628   1.881   6.236   6.631  0.8042 -0.3862  0.8774
  188SAPI   C2621629   1.807   6.072   6.740  1.1519  0.5591 -0.0224
  188SAPI   H6R21630   1.825   6.007   6.653 -0.4703  0.5372 -0.3660
  188SAPI   C2721631   1.747   6.012   6.861  0.9784 -0.1817 -0.3837
  188SAPI   H7R21632   1.669   5.941   6.827 -0.3812  0.1232  1.8731
  188SAPI   H7S21633   1.701   6.084   6.932  0.5848 -0.0961 -0.7231
  188SAPI   C2821634   1.858   5.920   6.920  0.3077  0.1753 -0.4738
  188SAPI   H8R21635   1.896   5.844   6.851 -2.0417 -1.4537 -0.0951
  188SAPI   C2921636   1.904   5.922   7.050  0.2405  0.2274 -0.0064
  188SAPI   H9R21637   1.977   5.848   7.085  1.5701  0.5122 -1.9903
  188SAPI  C21021638   1.849   6.006   7.157  0.1469 -0.4023 -0.2795
  188SAPI  H10R21639   1.837   5.941   7.246 -0.2498  0.3991  0.2551
  188SAPI  H10S21640   1.743   6.034   7.138  0.2539  0.3096  0.1584
  188SAPI  C21121641   1.922   6.136   7.189 -0.3817 -0.1216 -0.1503
  188SAPI  H11R21642   1.928   6.204   7.102  0.5697 -0.8527 -0.6803
  188SAPI  C21221643   1.978   6.172   7.309 -0.3009 -0.0020  0.0687
  188SAPI  H12R21644   2.026   6.268   7.333  1.3151 -0.8519  0.3866
  188SAPI  C21321645   1.980   6.080   7.430 -0.0481 -0.1825 -0.0375
  188SAPI  H13R21646   1.922   5.986   7.427 -1.3086  0.1690  4.7445
  188SAPI  H13S21647   1.924   6.145   7.502  1.9660  0.1129  1.3530
  188SAPI  C21421648   2.116   6.054   7.489  1.0158 -0.3583  0.3438
  188SAPI  H14R21649   2.192   6.041   7.410 -0.8358 -0.6505 -1.4958
  188SAPI  C21521650   2.143   6.021   7.617 -0.3684 -0.1556  0.4557
  188SAPI  H15R21651   2.249   6.004   7.639 -0.1334  2.1879  1.3927
  188SAPI  C21621652   2.043   6.025   7.730  0.7415 -0.4076 -0.1708
  188SAPI  H16R21653   2.062   5.942   7.801 -3.1038 -1.9524 -0.6999
  188SAPI  H16S21654   1.939   6.005   7.695  0.4801  0.0997  0.3084
  188SAPI  C21721655   2.026   6.157   7.810  0.4866  0.1431 -0.3928
  188SAPI  H17R21656   1.992   6.233   7.737  0.6981 -1.4335 -2.2042
  188SAPI  H17S21657   2.121   6.195   7.853  0.1364 -0.9317  1.4805
  188SAPI  C21821658   1.924   6.142   7.929  0.2857 -0.3065 -0.0258
  188SAPI  H18R21659   1.872   6.044   7.926  2.3044 -1.4392 -3.1438
  188SAPI  H18S21660   1.852   6.226   7.931 -0.4699 -0.6946 -4.0436
  188SAPI  C21921661   1.995   6.142   8.063 -0.2394  0.0490 -0.0591
  188SAPI  H19R21662   2.045   6.238   8.090 -2.9606  1.0667  1.7767
  188SAPI  H19S21663   2.069   6.059   8.059  0.8660  1.0413 -0.9020
  188SAPI  C22021664   1.894   6.111   8.177 -0.3121 -0.0176  0.0879
  188SAPI  H20R21665   1.832   6.020   8.161 -0.0808 -0.3765  1.1564
  188SAPI  H20S21666   1.828   6.200   8.187  0.4144  0.4593  0.8037
  188SAPI  H20T21667   1.940   6.089   8.275  1.5111  0.2225 -0.6740
  188SAPI   C3321668   0.973   6.367   6.869  0.1675  0.4663  1.1751
  188SAPI   H3X21669   0.977   6.256   6.869 -2.2957  0.3138 -0.0116
  188SAPI   H3Y21670   0.889   6.399   6.804  1.6870 -0.6887 -1.5903
  188SAPI   C3421671   0.949   6.416   7.011  0.4650  0.4225  0.2821
  188SAPI   H4X21672   0.859   6.362   7.046  0.1011  1.2036  0.5558
  188SAPI   H4Y21673   0.943   6.527   7.015  1.2315  0.4986 -0.3822
  188SAPI   C3521674   1.059   6.379   7.115 -0.5379 -0.2013 -0.1245
  188SAPI   H5X21675   1.153   6.430   7.086  1.3741 -1.8280  2.7527
  188SAPI   H5Y21676   1.070   6.269   7.110  2.8617  0.0351 -0.1431
  188SAPI   C3621677   1.034   6.424   7.260  0.2635  0.1240  0.5634
  188SAPI   H6X21678   0.931   6.398   7.292  0.8849 -1.2849  1.4966
  188SAPI   H6Y21679   1.043   6.535   7.269  1.3584  0.0842  0.0990
  188SAPI   C3721680   1.134   6.361   7.359 -0.3014 -0.4261  0.1016
  188SAPI   H7X21681   1.230   6.417   7.354 -0.7873  0.7397  2.3527
  188SAPI   H7Y21682   1.154   6.254   7.337  3.1858 -0.2132  1.5132
  188SAPI   C3821683   1.076   6.368   7.503 -0.2920 -0.8706  0.4298
  188SAPI   H8X21684   1.010   6.279   7.515  0.1732 -0.9730  2.4854
  188SAPI   H8Y21685   1.022   6.464   7.519  0.0084 -0.3501 -1.4102
  188SAPI   C3921686   1.191   6.359   7.606 -0.3116 -0.4392  0.1236
  188SAPI   H9X21687   1.264   6.442   7.591  1.1064 -1.4298  1.1773
  188SAPI   H9Y21688   1.239   6.260   7.589 -3.1078 -1.8370 -0.1869
  188SAPI  C31021689   1.139   6.375   7.756 -0.7780  0.6207 -0.4194
  188SAPI  H10X21690   1.065   6.296   7.780 -1.5047  1.2756 -0.4433
  188SAPI  H10Y21691   1.079   6.469   7.760 -1.0216  0.4353  0.8107
  188SAPI  C31121692   1.251   6.373   7.853  0.3133 -0.1145 -0.4080
  188SAPI  H11X21693   1.310   6.467   7.851 -2.3800  1.7623  1.5077
  188SAPI  H11Y21694   1.311   6.281   7.838 -0.8116 -0.6102 -2.1910
  188SAPI  C31221695   1.217   6.365   8.000  0.1127 -0.0135 -0.5517
  188SAPI  H12X21696   1.155   6.275   8.018 -0.6581  0.7293  0.6555
  188SAPI  H12Y21697   1.155   6.453   8.026  1.0190  0.0795  1.4885
  188SAPI  C31321698   1.345   6.370   8.080 -0.4065 -0.4801  0.2536
  188SAPI  H13X21699   1.351   6.456   8.150 -0.5151 -0.9126  0.8060
  188SAPI  H13Y21700   1.427   6.374   8.005 -1.9531  0.7065 -1.4770
  188SAPI  C31421701   1.370   6.250   8.164 -0.1529  0.6013 -0.1796
  188SAPI  H14X21702   1.340   6.151   8.123  1.7218  0.1987 -0.6603
  188SAPI  H14Y21703   1.301   6.252   8.251 -0.4456 -3.1785 -0.1741
  188SAPI  C31521704   1.515   6.255   8.213 -0.9220 -0.1340 -0.5442
  188SAPI  H15X21705   1.541   6.348   8.268  1.0081 -1.8059  1.5997
  188SAPI  H15Y21706   1.578   6.245   8.122 -2.1304 -1.6535 -1.2477
  188SAPI  C31621707   1.546   6.142   8.317  0.2701 -0.5390  0.1455
  188SAPI  H16X21708   1.651   6.142   8.354 -0.1004  0.7909  1.2946
  188SAPI  H16Y21709   1.525   6.052   8.256 -1.4317  0.5138 -0.8872
  188SAPI  C31721710   1.459   6.132   8.443  0.6338 -0.4273 -0.0488
  188SAPI  H17X21711   1.368   6.075   8.415  0.9482  0.0934 -2.3170
  188SAPI  H17Y21712   1.419   6.232   8.469 -1.7279 -1.1540 -0.6083
  188SAPI  C31821713   1.529   6.073   8.555 -0.3998 -0.4032 -0.3677
  188SAPI  H18X21714   1.541   5.963   8.548  0.5845 -0.2034 -2.4672
  188SAPI  H18Y21715   1.474   6.098   8.649 -0.0071 -3.6654  0.8586
  188SAPI  H18Z21716   1.631   6.116   8.565 -0.2448 -1.0136  0.8934
  189POPC     N21717   0.994   0.370  11.142 -0.2394 -0.1963  0.0830
  189POPC   C1221718   1.057   0.415  11.007  0.6424  0.5652 -0.5623
  189POPC  H12A21719   1.112   0.503  11.034 -0.2266  1.1494 -0.6516
  189POPC  H12B21720   0.970   0.437  10.948 -1.2506 -0.4960  1.6402
  189POPC   C1321721   1.089   0.372  11.257 -0.1305 -0.4257 -0.1089
  189POPC  H13A21722   1.173   0.307  11.238  0.9657  1.2448 -1.3034
  189POPC  H13B21723   1.130   0.471  11.266  0.0703 -0.3997 -1.1775
  189POPC  H13C21724   1.039   0.337  11.347  1.4528 -0.0798  0.9420
  189POPC   C1421725   0.881   0.461  11.179 -0.3520 -0.3117 -0.5509
  189POPC  H14A21726   0.810   0.478  11.100 -0.2482  2.3282 -0.1875
  189POPC  H14B21727   0.829   0.409  11.259 -0.5202 -0.9195 -1.0562
  189POPC  H14C21728   0.923   0.558  11.204 -0.2375 -1.0243  2.4484
  189POPC   C1521729   0.943   0.232  11.145  0.3795 -0.3460 -0.2212
  189POPC  H15A21730   1.025   0.163  11.156 -0.2221 -0.7635  2.0500
  189POPC  H15B21731   0.877   0.209  11.062 -0.3534  3.3141 -0.8416
  189POPC  H15C21732   0.885   0.219  11.234 -0.9719 -1.5878 -1.2305
  189POPC   C1121733   1.143   0.321  10.922  0.0701 -0.1727  0.0634
  189POPC  H11A21734   1.148   0.368  10.822 -0.1531 -1.2054 -0.4403
  189POPC  H11B21735   1.095   0.223  10.903  0.4240 -0.3741  0.2067
  189POPC     P21736   1.385   0.392  10.973  0.2301  0.1421 -0.2560
  189POPC   O1321737   1.499   0.360  11.065 -0.3639  0.3834 -0.3905
  189POPC   O1421738   1.321   0.526  10.982 -0.1098 -0.9349 -0.2809
  189POPC   O1221739   1.274   0.290  10.982  0.4754 -0.1714  0.3766
  189POPC   O1121740   1.439   0.364  10.825  0.0148  0.4795  0.1109
  189POPC    C121741   1.456   0.223  10.794 -0.3100 -0.0453 -0.1417
  189POPC    HA21742   1.360   0.184  10.754  0.2368 -0.6961 -0.8571
  189POPC    HB21743   1.494   0.166  10.881  1.6486 -1.0015 -1.5482
  189POPC    C221744   1.557   0.202  10.673 -0.3783  0.2341 -0.4544
  189POPC    HS21745   1.654   0.216  10.724 -1.2359 -3.0638  2.5067
  189POPC   O2121746   1.535   0.303  10.568 -0.6692 -0.1846 -0.1394
  189POPC   C2121747   1.640   0.323  10.486 -0.4283  0.3827 -0.0867
  189POPC   O2221748   1.744   0.263  10.491 -0.3049  0.0078 -0.0018
  189POPC   C2221749   1.597   0.397  10.363 -0.7666 -0.5591  0.0419
  189POPC   H2R21750   1.495   0.440  10.379 -0.4375  0.4588 -0.5652
  189POPC   H2S21751   1.581   0.316  10.288  1.4606 -1.9856  1.0109
  189POPC    C321752   1.561   0.057  10.617 -0.5484 -0.6421  0.1241
  189POPC    HX21753   1.577  -0.016  10.699  4.9433  0.2771  0.2768
  189POPC    HY21754   1.649   0.046  10.549 -1.5639 -1.0915 -1.1568
  189POPC   O3121755   1.446   0.021  10.545  0.0132 -0.2504  0.0978
  189POPC   C3121756   1.458  -0.035  10.425  0.1699 -0.6571 -0.0449
  189POPC   O3221757   1.563  -0.055  10.366 -0.2781 -0.0663  0.6761
  189POPC   C3221758   1.324  -0.054  10.355 -0.0317 -0.2730 -0.2509
  189POPC   H2X21759   1.288   0.041  10.309 -0.4150  0.1127  0.8068
  189POPC   H2Y21760   1.247  -0.085  10.429  1.9802 -3.1797  0.7615
  189POPC   C2321761   1.710   0.501  10.327 -0.0599 -0.6548  0.7339
  189POPC   H3R21762   1.806   0.460  10.289 -1.5708 -2.2945 -1.5227
  189POPC   H3S21763   1.734   0.568  10.412  2.9416 -0.5244 -0.1070
  189POPC   C2421764   1.668   0.586  10.203  0.2519  0.3590 -0.6861
  189POPC   H4R21765   1.751   0.656  10.182 -0.1756  1.3967  0.8990
  189POPC   H4S21766   1.576   0.642  10.228  0.7263  1.1838 -0.7758
  189POPC   C2521767   1.641   0.501  10.076 -0.0786  0.5997 -0.2310
  189POPC   H5R21768   1.589   0.410  10.114 -0.4771  2.5892  4.7394
  189POPC   H5S21769   1.741   0.468  10.039  0.1669 -1.9883  2.3738
  189POPC   C2621770   1.565   0.578   9.977  0.1112 -0.8420 -0.5282
  189POPC   H6R21771   1.597   0.684   9.964 -0.0673 -0.8611 -1.1709
  189POPC   H6S21772   1.459   0.582  10.011  1.0767 -0.0678  2.7026
  189POPC   C2721773   1.580   0.522   9.836 -0.1046 -0.7529  0.0437
  189POPC   H7R21774   1.541   0.418   9.849  0.5181 -0.9896  0.0614
  189POPC   H7S21775   1.685   0.533   9.804 -0.4236  3.4114 -0.0471
  189POPC   C2821776   1.484   0.579   9.724  0.4251  0.0413  0.1157
  189POPC   H8R21777   1.383   0.570   9.768  0.3734 -0.8315 -0.1652
  189POPC   H8S21778   1.496   0.526   9.627 -1.5226  0.0352 -0.1481
  189POPC   C2921779   1.519   0.724   9.701 -0.5925  0.5250  0.1742
  189POPC   H9121780   1.511   0.787   9.791 -0.7845 -0.5559  0.9372
  189POPC  C21021781   1.546   0.784   9.585  0.5843 -0.3356  0.1346
  189POPC  H10121782   1.588   0.886   9.589  1.0099 -0.5159  0.3416
  189POPC  C21121783   1.551   0.731   9.442 -0.6762  0.5997  0.1092
  189POPC  H11R21784   1.511   0.813   9.379 -2.3688  0.7312  1.2729
  189POPC  H11S21785   1.480   0.646   9.434  0.5317 -0.2784 -2.4985
  189POPC  C21221786   1.690   0.684   9.393  0.4825 -0.2214  0.1576
  189POPC  H12R21787   1.752   0.626   9.464  0.8551  1.3650  1.1941
  189POPC  H12S21788   1.752   0.773   9.368  0.9475 -0.6852 -0.3451
  189POPC  C21321789   1.669   0.607   9.263 -0.7371 -0.4842 -0.5136
  189POPC  H13R21790   1.611   0.670   9.193 -0.1030  2.0436  1.1216
  189POPC  H13S21791   1.614   0.511   9.271 -0.9747 -0.6973 -3.5636
  189POPC  C21421792   1.800   0.572   9.188  0.1403 -0.6324 -0.3415
  189POPC  H14R21793   1.866   0.516   9.258 -0.0640  1.0950  1.3258
  189POPC  H14S21794   1.856   0.668   9.176  3.3189 -2.1431  1.1288
  189POPC  C21521795   1.779   0.526   9.043  0.1759  0.2615 -0.1538
  189POPC  H15R21796   1.712   0.437   9.043 -0.8973  1.0456 -0.8395
  189POPC  H15S21797   1.876   0.495   9.000  0.6122  0.9578  0.3219
  189POPC  C21621798   1.728   0.624   8.935  0.1949 -0.4567  0.1467
  189POPC  H16R21799   1.629   0.658   8.970 -0.0650 -1.2705  0.2278
  189POPC  H16S21800   1.712   0.570   8.839 -0.9803 -2.4578  1.3884
  189POPC  C21721801   1.823   0.747   8.914  1.0939 -0.1568 -0.3895
  189POPC  H17R21802   1.825   0.799   9.013  0.4262  0.6133 -0.7765
  189POPC  H17S21803   1.786   0.821   8.840  1.1623  0.7489  0.4639
  189POPC  C21821804   1.970   0.723   8.886 -0.0586 -0.4314 -0.7303
  189POPC  H18R21805   2.026   0.815   8.857  0.4335  0.1029  1.7389
  189POPC  H18S21806   1.967   0.663   8.792 -0.4510 -2.6685  0.6572
  189POPC  H18T21807   2.034   0.683   8.967  0.3075  1.9244  0.2324
  189POPC   C3321808   1.341  -0.152  10.236 -0.2078  0.6532 -0.0064
  189POPC   H3X21809   1.388  -0.246  10.272 -0.3058  0.4971 -0.2839
  189POPC   H3Y21810   1.420  -0.108  10.173  2.3826  1.5386  3.5648
  189POPC   C3421811   1.216  -0.186  10.165  0.6760  0.1161  0.4109
  189POPC   H4X21812   1.179  -0.093  10.116  1.3324  0.3425  0.3280
  189POPC   H4Y21813   1.145  -0.226  10.240  1.5148 -3.5421 -0.5542
  189POPC   C3521814   1.239  -0.290  10.048  0.3927 -0.5564 -1.0278
  189POPC   H5X21815   1.273  -0.389  10.086 -0.7538 -0.1126  1.3615
  189POPC   H5Y21816   1.331  -0.252  10.000  0.9980  0.6081  0.9500
  189POPC   C3621817   1.116  -0.288   9.946 -0.5427 -0.4055  0.0014
  189POPC   H6X21818   1.082  -0.184   9.930 -0.3839 -0.3855 -0.2182
  189POPC   H6Y21819   1.028  -0.341   9.988 -2.6395  1.7850 -1.3464
  189POPC   C3721820   1.142  -0.357   9.811 -0.2879  0.2025 -0.0147
  189POPC   H7X21821   1.053  -0.405   9.765 -0.3465  0.8125 -0.5423
  189POPC   H7Y21822   1.220  -0.434   9.828  1.1161  1.5112 -0.3464
  189POPC   C3821823   1.212  -0.272   9.705  0.0879 -0.2190 -0.4356
  189POPC   H8X21824   1.303  -0.222   9.746  0.8031 -0.7017 -1.3887
  189POPC   H8Y21825   1.138  -0.195   9.676 -0.4107 -0.4354  0.2437
  189POPC   C3921826   1.224  -0.365   9.586  0.1841  1.0653  0.6466
  189POPC   H9X21827   1.134  -0.421   9.556  1.0529 -0.4683  0.7867
  189POPC   H9Y21828   1.306  -0.440   9.596 -1.1461 -0.7622 -1.3227
  189POPC  C31021829   1.267  -0.283   9.459  0.0020  0.1979 -0.2249
  189POPC  H10X21830   1.327  -0.197   9.495 -0.6557  0.5084  0.1623
  189POPC  H10Y21831   1.181  -0.231   9.411  0.4960  1.0207 -0.2225
  189POPC  C31121832   1.332  -0.360   9.352  0.1349  0.0052  0.7034
  189POPC  H11X21833   1.283  -0.456   9.327  2.7038 -1.0150 -0.8154
  189POPC  H11Y21834   1.433  -0.396   9.382  0.6604  0.9347  0.1130
  189POPC  C31221835   1.363  -0.285   9.222  0.8967  0.2028 -0.0892
  189POPC  H12X21836   1.388  -0.182   9.257 -0.6309  0.2612  0.9208
  189POPC  H12Y21837   1.270  -0.273   9.161  0.0024 -3.2421  0.3936
  189POPC  C31321838   1.468  -0.343   9.137  0.2425  0.1324  0.5142
  189POPC  H13X21839   1.443  -0.448   9.112 -0.2399  0.4627 -0.4540
  189POPC  H13Y21840   1.564  -0.340   9.192  0.1410 -0.8653  0.7597
  189POPC  C31421841   1.485  -0.266   9.007  0.0851  0.3044 -0.3937
  189POPC  H14X21842   1.579  -0.298   8.958 -0.1986 -0.3648 -0.5149
  189POPC  H14Y21843   1.489  -0.158   9.030 -0.2514  0.4180 -0.8623
  189POPC  C31521844   1.380  -0.286   8.894 -0.5925 -0.1580  0.5084
  189POPC  H15X21845   1.279  -0.274   8.940 -0.2094  1.1464  1.0503
  189POPC  H15Y21846   1.394  -0.383   8.841 -3.2506 -0.7785  0.7832
  189POPC  C31621847   1.398  -0.174   8.790 -0.0144  0.3622  0.2374
  189POPC  H16X21848   1.313  -0.184   8.720  2.2532 -2.7533 -2.3800
  189POPC  H16Y21849   1.488  -0.191   8.727  0.9506 -0.9209  1.8635
  189POPC  H16Z21850   1.410  -0.076   8.842  0.6445  0.0441  0.6998
  190POPC     N21851   4.316   3.980  11.067 -0.4112 -0.3971 -0.9604
  190POPC   C1221852   4.357   3.840  11.071  0.2228 -0.1672  0.2100
  190POPC  H12A21853   4.428   3.814  10.994 -0.7037 -2.9709  0.1922
  190POPC  H12B21854   4.268   3.780  11.059 -0.8864  0.2926  4.4454
  190POPC   C1321855   4.412   4.080  11.129  0.1927 -0.0901  0.0003
  190POPC  H13A21856   4.409   4.067  11.236 -0.2339 -0.4953 -0.0555
  190POPC  H13B21857   4.516   4.073  11.102  0.1530  2.3178 -1.0309
  190POPC  H13C21858   4.380   4.181  11.107  0.9744  0.3623  0.8802
  190POPC   C1421859   4.288   4.018  10.929 -0.0225  0.3483 -0.3470
  190POPC  H14A21860   4.260   4.123  10.928 -0.6739  0.1944  0.9823
  190POPC  H14B21861   4.382   4.017  10.875  0.2704  0.9294  0.1376
  190POPC  H14C21862   4.214   3.951  10.888 -1.1985  0.0055  2.1869
  190POPC   C1521863   4.185   3.998  11.143 -0.7007 -0.1434  0.8338
  190POPC  H15A21864   4.154   4.101  11.155  0.3597  0.1309  1.3023
  190POPC  H15B21865   4.207   3.966  11.244  1.8573  0.6631  0.5960
  190POPC  H15C21866   4.094   3.946  11.114 -0.3587 -0.1227 -0.3203
  190POPC   C1121867   4.435   3.796  11.202  1.2271 -0.0344  0.3304
  190POPC  H11A21868   4.439   3.685  11.209 -0.8830 -0.2326 -0.8226
  190POPC  H11B21869   4.379   3.828  11.292 -0.8443 -0.4017 -0.7541
  190POPC     P21870   4.688   3.806  11.127 -0.3700  0.1887 -0.2698
  190POPC   O1321871   4.723   3.658  11.133  0.5024  0.0617 -0.3410
  190POPC   O1421872   4.799   3.890  11.171 -0.1664 -0.3485  0.5181
  190POPC   O1221873   4.565   3.842  11.219 -0.3259  0.5263 -0.1108
  190POPC   O1121874   4.639   3.841  10.987  0.3754  0.1527  0.5690
  190POPC    C121875   4.711   3.818  10.863  0.2350  0.2008  0.0912
  190POPC    HA21876   4.733   3.711  10.843 -0.6208  0.1880 -0.8690
  190POPC    HB21877   4.801   3.883  10.855  0.5195 -0.2902 -0.9364
  190POPC    C221878   4.630   3.848  10.733  0.0642 -0.6642 -0.5749
  190POPC    HS21879   4.712   3.824  10.663  2.3508 -0.4583  1.8631
  190POPC   O2121880   4.586   3.994  10.737  0.1066  1.1000 -0.7672
  190POPC   C2121881   4.683   4.080  10.713 -0.4487 -0.2674 -0.2188
  190POPC   O2221882   4.801   4.051  10.691  0.1641  0.0498  0.2839
  190POPC   C2221883   4.631   4.221  10.721  0.3791 -0.7849 -1.0813
  190POPC   H2R21884   4.718   4.287  10.742 -0.3955 -0.3347  0.9525
  190POPC   H2S21885   4.567   4.217  10.812  0.1642 -2.1060 -1.2713
  190POPC    C321886   4.500   3.753  10.697 -0.1661  0.0380 -0.0426
  190POPC    HX21887   4.439   3.780  10.786  2.2661  0.8582  1.4545
  190POPC    HY21888   4.544   3.651  10.698  0.1167  0.1624  1.0217
  190POPC   O3121889   4.444   3.789  10.564  0.1515  0.1632  0.1205
  190POPC   C3121890   4.314   3.789  10.561 -0.2181 -0.4147 -0.1313
  190POPC   O3221891   4.243   3.782  10.659  0.4933  0.4609  0.5052
  190POPC   C3221892   4.260   3.805  10.421 -0.7075  0.4118  0.7586
  190POPC   H2X21893   4.318   3.736  10.357 -0.8729  1.4406 -0.5526
  190POPC   H2Y21894   4.290   3.904  10.381 -0.7026 -1.2658 -4.0767
  190POPC   C2321895   4.552   4.260  10.595 -0.5663  0.2694 -0.1036
  190POPC   H3R21896   4.516   4.364  10.611  0.0445  0.7085 -1.4567
  190POPC   H3S21897   4.463   4.195  10.584 -1.3727  1.4300 -0.5961
  190POPC   C2421898   4.636   4.251  10.462  1.0606 -0.6961 -0.3883
  190POPC   H4R21899   4.742   4.227  10.482  0.8474 -1.5118 -0.2101
  190POPC   H4S21900   4.627   4.345  10.402 -2.0695  0.8168  2.1586
  190POPC   C2521901   4.586   4.139  10.369  0.0648  0.0259  0.3679
  190POPC   H5R21902   4.568   4.042  10.421  0.4357 -1.0246 -1.3772
  190POPC   H5S21903   4.657   4.124  10.285 -1.5561 -1.1721 -0.8541
  190POPC   C2621904   4.444   4.166  10.303 -0.6241  0.1949  0.2294
  190POPC   H6R21905   4.434   4.275  10.283 -0.5441 -0.1201 -1.6881
  190POPC   H6S21906   4.367   4.150  10.381 -0.1966  1.7060  1.0126
  190POPC   C2721907   4.434   4.078  10.185 -0.2569  0.6654 -0.3137
  190POPC   H7R21908   4.460   3.973  10.208 -0.9221 -0.4140 -3.8233
  190POPC   H7S21909   4.508   4.108  10.108  0.4038 -2.7092 -1.1506
  190POPC   C2821910   4.291   4.078  10.132  0.7343  0.0647 -0.4337
  190POPC   H8R21911   4.220   4.058  10.216 -0.6084 -1.3082 -1.8191
  190POPC   H8S21912   4.280   3.993  10.061 -1.8548  0.8917 -1.1277
  190POPC   C2921913   4.258   4.211  10.063  0.5458  0.2833 -0.0900
  190POPC   H9121914   4.330   4.294  10.066  1.0879 -0.0004 -2.6880
  190POPC  C21021915   4.153   4.219   9.985  0.2101 -0.4009 -0.6267
  190POPC  H10121916   4.129   4.324   9.963  2.8788  1.0630  2.4793
  190POPC  C21121917   4.046   4.124   9.941  0.1449 -0.0153  0.6887
  190POPC  H11R21918   3.949   4.173   9.964  0.0127  0.4405 -0.7457
  190POPC  H11S21919   4.035   4.026   9.992 -0.9130 -0.6834 -0.7562
  190POPC  C21221920   4.071   4.097   9.790 -0.0367 -0.0182 -0.1758
  190POPC  H12R21921   4.170   4.049   9.797 -0.9236 -1.9393 -0.2396
  190POPC  H12S21922   4.089   4.190   9.732 -2.0711 -0.3077 -1.3935
  190POPC  C21321923   3.965   4.005   9.732  0.7001 -0.1266 -0.0139
  190POPC  H13R21924   3.867   4.057   9.721 -0.4540 -1.6380  2.2879
  190POPC  H13S21925   3.956   3.917   9.800  0.6656 -0.4699 -0.4598
  190POPC  C21421926   3.996   3.951   9.591 -0.0577  0.9307 -0.3140
  190POPC  H14R21927   4.095   3.904   9.606 -0.8818 -1.3926 -1.6549
  190POPC  H14S21928   4.012   4.031   9.516 -1.3893  0.1972 -1.4211
  190POPC  C21521929   3.889   3.864   9.526 -0.3936  0.0332 -0.6054
  190POPC  H15R21930   3.794   3.922   9.535 -0.3543 -0.1296  1.3769
  190POPC  H15S21931   3.884   3.775   9.592  3.4010 -0.7031 -1.0947
  190POPC  C21621932   3.917   3.836   9.379 -0.0438  0.9683  0.1450
  190POPC  H16R21933   4.017   3.789   9.366 -0.1426  1.4470 -3.1086
  190POPC  H16S21934   3.920   3.932   9.323 -2.1944  1.4250  0.7198
  190POPC  C21721935   3.803   3.761   9.312 -0.2006  0.5881  0.3320
  190POPC  H17R21936   3.705   3.800   9.347  0.8036  0.8144  3.2384
  190POPC  H17S21937   3.802   3.654   9.343 -1.4929  0.1893 -0.9803
  190POPC  C21821938   3.810   3.765   9.161 -0.3480  0.9007 -0.5653
  190POPC  H18R21939   3.738   3.694   9.115  0.5206  0.3029 -1.0408
  190POPC  H18S21940   3.905   3.728   9.117 -0.7737  0.9174 -1.5267
  190POPC  H18T21941   3.789   3.871   9.138 -0.4951  0.6671 -1.5821
  190POPC   C3321942   4.115   3.782  10.396 -0.7384  0.5013 -0.3687
  190POPC   H3X21943   4.049   3.862  10.435 -1.8284 -0.3470 -0.4223
  190POPC   H3Y21944   4.087   3.686  10.443  0.6003  0.7154  0.9370
  190POPC   C3421945   4.082   3.766  10.251 -0.0564 -0.8779  0.3500
  190POPC   H4X21946   4.077   3.868  10.209 -2.7154 -0.0765  2.3807
  190POPC   H4Y21947   3.981   3.721  10.247 -0.2199 -0.4547 -0.5725
  190POPC   C3521948   4.169   3.683  10.153  0.4575 -0.1348  0.2859
  190POPC   H5X21949   4.188   3.583  10.196  1.6183  0.6315  1.6444
  190POPC   H5Y21950   4.266   3.733  10.134 -0.7272  1.9236 -0.7474
  190POPC   C3621951   4.092   3.657  10.024  0.8269 -0.1833  0.1436
  190POPC   H6X21952   4.011   3.728   9.996  0.9495 -0.3158 -0.5687
  190POPC   H6Y21953   4.058   3.552  10.028  2.0966 -0.7033 -1.3807
  190POPC   C3721954   4.190   3.657   9.902  0.3938  0.1656  0.1498
  190POPC   H7X21955   4.274   3.588   9.924  0.0678 -0.7576 -1.4003
  190POPC   H7Y21956   4.240   3.756   9.893  0.8175 -0.0965 -0.4581
  190POPC   C3821957   4.126   3.615   9.770  0.1071 -0.5601  1.0418
  190POPC   H8X21958   4.039   3.676   9.738  0.7836 -0.8643 -1.6047
  190POPC   H8Y21959   4.103   3.507   9.771  0.7316 -0.6952  1.3084
  190POPC   C3921960   4.233   3.615   9.656  0.0751 -0.1491 -0.5031
  190POPC   H9X21961   4.318   3.548   9.682  0.1473 -0.2507 -1.0036
  190POPC   H9Y21962   4.273   3.719   9.659  0.4942 -0.3145  1.4564
  190POPC  C31021963   4.175   3.573   9.519 -0.0569  0.1379 -0.4201
  190POPC  H10X21964   4.080   3.626   9.496  0.0402  0.3387 -0.3603
  190POPC  H10Y21965   4.159   3.464   9.521  0.3471  0.0781  0.6579
  190POPC  C31121966   4.273   3.617   9.407  0.3877 -0.1464  0.0879
  190POPC  H11X21967   4.369   3.563   9.418 -0.2819 -1.7581 -1.3993
  190POPC  H11Y21968   4.298   3.725   9.417  0.8436 -0.3243  0.9873
  190POPC  C31221969   4.219   3.568   9.276  0.3894  0.3660  0.1897
  190POPC  H12X21970   4.112   3.598   9.269 -0.0818 -1.1182  0.8126
  190POPC  H12Y21971   4.220   3.457   9.273  1.0846  0.3322  1.2342
  190POPC  C31321972   4.299   3.620   9.153 -0.2522 -0.4105 -0.2382
  190POPC  H13X21973   4.395   3.564   9.151 -1.3632 -2.3959 -0.6066
  190POPC  H13Y21974   4.309   3.731   9.153  2.1568 -0.5587 -1.3796
  190POPC  C31421975   4.234   3.584   9.019  1.0066 -0.0939 -0.1206
  190POPC  H14X21976   4.145   3.647   8.996  1.4958  0.0991 -1.5788
  190POPC  H14Y21977   4.198   3.479   9.029 -0.7729  0.5273  0.3658
  190POPC  C31521978   4.336   3.579   8.900  0.5912 -0.0443 -0.2777
  190POPC  H15X21979   4.286   3.552   8.805  0.5357  1.3467 -0.6725
  190POPC  H15Y21980   4.418   3.506   8.915  1.6555  0.9900 -0.9184
  190POPC  C31621981   4.403   3.716   8.871  0.2423  0.0411 -0.4747
  190POPC  H16X21982   4.506   3.704   8.831 -0.0524 -0.7530 -1.0228
  190POPC  H16Y21983   4.410   3.778   8.963 -0.0286 -1.5076  0.6206
  190POPC  H16Z21984   4.352   3.767   8.786  0.9990  0.1773 -0.8601
  191POPC     N21985   5.690   5.604   5.858  0.0444  0.4576  0.2955
  191POPC   C1221986   5.721   5.723   5.953  0.5394 -0.1344 -0.2775
  191POPC  H12A21987   5.635   5.730   6.018  2.3951 -1.1770  2.4902
  191POPC  H12B21988   5.738   5.807   5.888  0.2500 -1.0109 -1.5099
  191POPC   C1321989   5.659   5.484   5.942  0.9673 -0.5007 -0.1248
  191POPC  H13A21990   5.739   5.451   6.006  0.7322 -0.9799 -0.0701
  191POPC  H13B21991   5.572   5.498   6.004  2.8363  2.3357  2.1444
  191POPC  H13C21992   5.636   5.411   5.865 -1.7133 -0.7241  0.7714
  191POPC   C1421993   5.560   5.638   5.789  0.1953  0.4663  0.8409
  191POPC  H14A21994   5.497   5.640   5.877  0.9063 -2.6262  1.5378
  191POPC  H14B21995   5.539   5.734   5.744 -0.8014 -0.1613 -0.0780
  191POPC  H14C21996   5.529   5.557   5.725  2.9013  0.0154 -0.0078
  191POPC   C1521997   5.803   5.571   5.766  0.0927 -0.0493  0.1497
  191POPC  H15A21998   5.877   5.519   5.825  0.1093  2.0867  2.1483
  191POPC  H15B21999   5.852   5.658   5.725  0.7402 -0.5495 -0.1697
  191POPC  H15C22000   5.772   5.503   5.689  0.1266 -0.1440  0.2194
  191POPC   C1122001   5.843   5.706   6.049  0.1368 -0.4872 -0.5671
  191POPC  H11A22002   5.871   5.806   6.087  3.2807 -1.7666  0.9102
  191POPC  H11B22003   5.929   5.667   5.988 -1.9609 -3.3491 -1.9486
  191POPC     P22004   5.709   5.670   6.275  0.0003 -0.7078  0.2364
  191POPC   O1322005   5.603   5.746   6.207  0.1851  0.1757 -0.0263
  191POPC   O1422006   5.773   5.735   6.385 -0.3667 -0.5247 -0.0253
  191POPC   O1222007   5.823   5.627   6.172 -0.0044  0.0193  0.2889
  191POPC   O1122008   5.654   5.530   6.321 -0.5377  0.3271 -0.1519
  191POPC    C122009   5.740   5.457   6.414 -0.1792 -0.8227  0.6598
  191POPC    HA22010   5.743   5.511   6.511  1.4479  0.5797 -0.0949
  191POPC    HB22011   5.847   5.452   6.381 -0.6825  1.5088 -1.6812
  191POPC    C222012   5.673   5.325   6.438  0.4288 -0.0874 -0.6337
  191POPC    HS22013   5.634   5.291   6.340  0.4636 -0.4094 -0.5385
  191POPC   O2122014   5.577   5.333   6.540  0.2543  0.0324 -0.1295
  191POPC   C2122015   5.499   5.230   6.568  0.8879 -0.1789  0.0667
  191POPC   O2222016   5.501   5.122   6.513  0.2835  0.3857 -0.2243
  191POPC   C2222017   5.405   5.266   6.688 -0.1084  0.4352 -0.5854
  191POPC   H2R22018   5.379   5.164   6.726  1.9834 -0.1407 -0.5595
  191POPC   H2S22019   5.319   5.314   6.637 -0.6686 -2.7173 -2.8807
  191POPC    C322020   5.783   5.225   6.475  0.7068  0.6787 -0.5858
  191POPC    HX22021   5.867   5.239   6.404  1.8577  1.7575  0.9098
  191POPC    HY22022   5.743   5.123   6.462  1.1851  0.6393 -1.8920
  191POPC   O3122023   5.835   5.259   6.603  0.1368  0.1308  0.1779
  191POPC   C3122024   5.877   5.161   6.674 -0.1216 -0.2942  0.4063
  191POPC   O3222025   5.874   5.041   6.642  0.0470 -0.0869 -0.1547
  191POPC   C3222026   5.919   5.217   6.810 -0.1278  0.1119  1.1684
  191POPC   H2X22027   5.903   5.327   6.814 -1.8103 -0.0580 -0.1378
  191POPC   H2Y22028   6.029   5.204   6.820 -0.1876 -0.8378  0.6798
  191POPC   C2322029   5.462   5.369   6.792 -0.7848 -0.1171 -0.3473
  191POPC   H3R22030   5.483   5.465   6.741 -2.9068  0.8830  0.5632
  191POPC   H3S22031   5.559   5.323   6.821 -0.6383 -0.4875 -1.3548
  191POPC   C2422032   5.376   5.403   6.909 -0.3432 -1.3393  0.6827
  191POPC   H4R22033   5.290   5.464   6.875  0.1674 -1.4917 -0.9391
  191POPC   H4S22034   5.432   5.468   6.979 -0.8145  2.0764 -1.8842
  191POPC   C2522035   5.341   5.283   6.989  0.1877  0.7913  0.4214
  191POPC   H5R22036   5.439   5.240   7.019 -0.3837 -0.6550  0.3310
  191POPC   H5S22037   5.289   5.204   6.930  0.0719 -0.5361  2.1996
  191POPC   C2622038   5.255   5.306   7.112 -0.0262  0.1489 -0.0527
  191POPC   H6R22039   5.225   5.208   7.156 -2.0566  1.2832  1.2536
  191POPC   H6S22040   5.154   5.335   7.075 -0.5795 -3.3885 -1.8475
  191POPC   C2722041   5.295   5.403   7.225  0.3249 -0.1033 -0.6092
  191POPC   H7R22042   5.202   5.422   7.284  0.2440  1.3514 -1.1650
  191POPC   H7S22043   5.314   5.501   7.177  1.3816 -1.6319 -3.5569
  191POPC   C2822044   5.413   5.363   7.308  0.1792  0.5592  0.5839
  191POPC   H8R22045   5.466   5.454   7.342  1.5455  0.8189 -2.0275
  191POPC   H8S22046   5.483   5.313   7.239 -0.6857  0.0641  0.0434
  191POPC   C2922047   5.380   5.282   7.422 -0.1285 -0.6085  0.0099
  191POPC   H9122048   5.273   5.258   7.433 -0.3923 -0.5846 -2.1241
  191POPC  C21022049   5.459   5.265   7.531 -0.1272 -0.0221  0.8461
  191POPC  H10122050   5.436   5.192   7.609 -0.3525 -1.4767 -0.5368
  191POPC  C21122051   5.597   5.329   7.555 -0.0312  0.3561  0.0786
  191POPC  H11R22052   5.645   5.347   7.457 -1.8196  0.4372 -0.8304
  191POPC  H11S22053   5.660   5.250   7.600 -2.7606 -1.8211  0.3882
  191POPC  C21222054   5.595   5.466   7.633  0.5137  0.2819 -0.4335
  191POPC  H12R22055   5.528   5.458   7.721  1.1645  1.3639  0.1775
  191POPC  H12S22056   5.555   5.541   7.561 -0.3830 -0.0134 -0.2600
  191POPC  C21322057   5.734   5.512   7.686  0.1458 -0.3057 -0.0348
  191POPC  H13R22058   5.804   5.525   7.601  0.1612  1.3069  0.1876
  191POPC  H13S22059   5.756   5.433   7.761  0.2758 -1.1911 -1.0003
  191POPC  C21422060   5.720   5.640   7.758 -0.5807 -0.1758 -0.3652
  191POPC  H14R22061   5.639   5.639   7.834 -0.2501  1.7158  0.0731
  191POPC  H14S22062   5.685   5.733   7.707  1.7312  1.5684  1.0147
  191POPC  C21522063   5.850   5.690   7.830 -0.2085  1.4794  0.2215
  191POPC  H15R22064   5.841   5.791   7.875 -3.0267  1.7409 -0.7186
  191POPC  H15S22065   5.939   5.706   7.766  0.9522  0.5326  1.5258
  191POPC  C21622066   5.892   5.601   7.956  0.6941 -0.2030  0.6700
  191POPC  H16R22067   5.890   5.496   7.920  3.0376  0.0558 -0.4040
  191POPC  H16S22068   5.818   5.617   8.037 -1.0038 -0.9098 -0.6692
  191POPC  C21722069   6.036   5.626   7.994 -0.1196  0.1057  1.1659
  191POPC  H17R22070   6.057   5.733   8.015  1.3731 -0.2534  1.6425
  191POPC  H17S22071   6.094   5.597   7.903 -0.8556 -2.0603  1.3497
  191POPC  C21822072   6.090   5.549   8.113 -0.4727 -0.0730  0.6912
  191POPC  H18R22073   6.200   5.565   8.123  0.1075 -0.3959 -3.4895
  191POPC  H18S22074   6.068   5.440   8.107  1.5781 -0.5753  1.4422
  191POPC  H18T22075   6.044   5.585   8.208 -0.0686  1.5083  0.3021
  191POPC   C3322076   5.875   5.127   6.925  1.0309  0.7002  0.1652
  191POPC   H3X22077   5.937   5.156   7.012  0.4664 -0.1099  0.8570
  191POPC   H3Y22078   5.894   5.020   6.902  0.1102  0.5004  0.3133
  191POPC   C3422079   5.725   5.141   6.978 -0.2855 -0.5810  0.1184
  191POPC   H4X22080   5.654   5.122   6.894  0.7137  0.5623 -1.0306
  191POPC   H4Y22081   5.717   5.246   7.011  0.3284  0.0374 -1.5879
  191POPC   C3522082   5.678   5.045   7.092 -0.1869  0.2357  0.0848
  191POPC   H5X22083   5.680   4.941   7.051  0.2490  0.1253  0.3774
  191POPC   H5Y22084   5.571   5.056   7.118 -0.1882 -0.9604  0.6500
  191POPC   C3622085   5.769   5.058   7.212 -0.0380  0.1269 -0.0465
  191POPC   H6X22086   5.745   5.161   7.248 -1.0407  0.1321 -0.6949
  191POPC   H6Y22087   5.877   5.052   7.189 -0.0367  1.5498 -0.5362
  191POPC   C3722088   5.753   4.948   7.315 -0.0548 -0.7165 -0.2096
  191POPC   H7X22089   5.856   4.926   7.349 -0.1744  0.4176  0.9474
  191POPC   H7Y22090   5.712   4.858   7.263  0.2257 -0.3948 -1.0026
  191POPC   C3822091   5.679   4.982   7.449  0.3943  0.3688  0.4995
  191POPC   H8X22092   5.569   4.983   7.435  0.4903  2.5464 -0.4773
  191POPC   H8Y22093   5.705   5.085   7.479 -0.0526  0.8178 -0.5860
  191POPC   C3922094   5.710   4.876   7.551  0.6416  0.3623  0.0192
  191POPC   H9X22095   5.819   4.856   7.551  0.9645  1.9326 -0.7582
  191POPC   H9Y22096   5.659   4.783   7.517  0.0977 -0.3215  2.5187
  191POPC  C31022097   5.653   4.889   7.692 -0.0169 -0.1292 -0.6656
  191POPC  H10X22098   5.675   4.802   7.758 -2.7773  1.1978  2.2354
  191POPC  H10Y22099   5.543   4.891   7.701  0.0879 -0.3953  1.0364
  191POPC  C31122100   5.715   4.999   7.772  0.7671 -0.4162 -0.3090
  191POPC  H11X22101   5.721   5.096   7.718 -0.0671  0.1480  0.5519
  191POPC  H11Y22102   5.820   4.972   7.793  0.3216  0.1985  3.4124
  191POPC  C31222103   5.638   5.020   7.899 -0.8496 -0.0210 -0.5316
  191POPC  H12X22104   5.529   5.036   7.884 -1.4407 -1.7915  1.4613
  191POPC  H12Y22105   5.679   5.112   7.945  2.3696 -1.1935 -0.7941
  191POPC  C31322106   5.670   4.912   8.005 -0.5352 -0.2119  0.2418
  191POPC  H13X22107   5.780   4.902   8.016 -0.5909  0.1412  1.2448
  191POPC  H13Y22108   5.614   4.820   7.976 -2.0505  0.4247  1.0782
  191POPC  C31422109   5.606   4.943   8.139  0.1982  0.6476 -0.1485
  191POPC  H14X22110   5.498   4.954   8.115  0.1510 -0.6156 -0.5690
  191POPC  H14Y22111   5.645   5.043   8.167 -1.7376  1.6164 -0.7205
  191POPC  C31522112   5.630   4.848   8.254 -0.4384 -0.3458  0.5441
  191POPC  H15X22113   5.570   4.889   8.338  0.1674  1.3904  0.1752
  191POPC  H15Y22114   5.737   4.834   8.280 -0.6546 -0.5390  1.3434
  191POPC  C31622115   5.560   4.709   8.225 -0.3885  0.0158 -0.2779
  191POPC  H16X22116   5.450   4.718   8.236 -0.3550 -0.7775  0.9357
  191POPC  H16Y22117   5.572   4.634   8.306 -0.9569  0.1119 -0.0981
  191POPC  H16Z22118   5.589   4.673   8.124 -3.1894  0.1378 -1.2113
  192POPC     N22119   2.425   0.250   5.931  0.2342 -0.1725  0.0864
  192POPC   C1222120   2.549   0.308   5.996 -0.0837  0.7752  0.2201
  192POPC  H12A22121   2.613   0.343   5.916 -1.7967 -0.9673 -2.0601
  192POPC  H12B22122   2.593   0.225   6.049 -0.1449 -0.4347 -1.5339
  192POPC   C1322123   2.374   0.332   5.816  0.0004  0.5743 -0.5148
  192POPC  H13A22124   2.310   0.405   5.863  1.3200  0.6588  1.2901
  192POPC  H13B22125   2.456   0.379   5.765  2.7833 -2.9421  0.3012
  192POPC  H13C22126   2.311   0.276   5.749  1.1292  1.4508 -2.3783
  192POPC   C1422127   2.460   0.121   5.879  0.3524 -0.3616 -0.3379
  192POPC  H14A22128   2.373   0.082   5.827 -0.9937  3.3362 -1.1473
  192POPC  H14B22129   2.533   0.139   5.801  0.4096  0.4760 -0.0949
  192POPC  H14C22130   2.497   0.056   5.957 -0.1951  0.2575  0.4465
  192POPC   C1522131   2.311   0.229   6.033 -0.0652  0.1582 -0.1247
  192POPC  H15A22132   2.332   0.164   6.117 -1.3774 -0.5271 -0.3026
  192POPC  H15B22133   2.233   0.179   5.977 -0.7914  2.2877 -1.1247
  192POPC  H15C22134   2.268   0.319   6.074 -2.1906 -1.4608  1.4282
  192POPC   C1122135   2.524   0.424   6.103 -0.0333  0.5175  0.0035
  192POPC  H11A22136   2.613   0.460   6.159 -0.5891  0.3174  1.0422
  192POPC  H11B22137   2.460   0.384   6.184  0.3703 -0.7394 -0.2764
  192POPC     P22138   2.354   0.617   6.106  0.2991 -0.0151 -0.0513
  192POPC   O1322139   2.229   0.542   6.076 -0.3114  0.3308 -0.3018
  192POPC   O1422140   2.363   0.756   6.064  0.0968 -0.2378 -0.6892
  192POPC   O1222141   2.467   0.535   6.035 -0.1981  0.1762 -0.4313
  192POPC   O1122142   2.387   0.612   6.262  0.1470 -0.4114  0.0702
  192POPC    C122143   2.508   0.661   6.313 -0.5958  0.1715  0.0708
  192POPC    HA22144   2.504   0.772   6.322 -1.0109  0.1209  0.4983
  192POPC    HB22145   2.593   0.643   6.243  0.2527  1.5399  0.6947
  192POPC    C222146   2.535   0.601   6.449 -0.0600  0.2748 -0.2946
  192POPC    HS22147   2.512   0.492   6.443 -0.3122  0.2018  1.4747
  192POPC   O2122148   2.440   0.678   6.536 -0.3913  0.3539 -0.3259
  192POPC   C2122149   2.357   0.606   6.602 -0.0330 -1.0178  0.0673
  192POPC   O2222150   2.327   0.494   6.585  0.3057  0.3044 -0.2692
  192POPC   C2222151   2.300   0.694   6.713 -0.0144 -0.6954  0.3355
  192POPC   H2R22152   2.204   0.737   6.677  1.4377  2.4216 -0.1164
  192POPC   H2S22153   2.367   0.780   6.735 -2.0652  1.0502  0.0912
  192POPC    C322154   2.681   0.636   6.495  0.5744 -0.2649  0.2215
  192POPC    HX22155   2.693   0.746   6.482 -2.3300  0.1227  0.1572
  192POPC    HY22156   2.757   0.584   6.433 -1.6041 -0.8805 -2.0689
  192POPC   O3122157   2.695   0.593   6.632  0.6928  0.2854  0.2408
  192POPC   C3122158   2.792   0.640   6.707 -0.1668 -0.4020 -0.0843
  192POPC   O3222159   2.883   0.714   6.668 -0.6084  0.3076  0.1715
  192POPC   C3222160   2.776   0.588   6.855 -0.0446 -0.4029 -0.3579
  192POPC   H2X22161   2.822   0.488   6.868  1.0785  0.1562  0.1078
  192POPC   H2Y22162   2.668   0.572   6.878  0.0870 -1.5791 -0.4728
  192POPC   C2322163   2.287   0.618   6.849  0.2680 -0.0562  0.7177
  192POPC   H3R22164   2.386   0.572   6.867 -0.2523 -1.1115  0.9625
  192POPC   H3S22165   2.209   0.540   6.834  1.8620 -1.7284  0.8567
  192POPC   C2422166   2.240   0.710   6.956  0.5530  0.6823  0.4317
  192POPC   H4R22167   2.150   0.774   6.941  1.8017  2.0637 -1.7456
  192POPC   H4S22168   2.316   0.790   6.972  0.3190  1.0538 -0.2779
  192POPC   C2522169   2.219   0.643   7.090 -0.2952  0.5431 -0.2654
  192POPC   H5R22170   2.317   0.603   7.127 -2.8160 -2.2391  4.3331
  192POPC   H5S22171   2.157   0.551   7.078  2.5807 -1.3280 -2.1882
  192POPC   C2622172   2.175   0.733   7.210  0.6058 -0.1388 -0.6635
  192POPC   H6R22173   2.064   0.737   7.204  0.6949  0.7988 -2.3296
  192POPC   H6S22174   2.208   0.839   7.203 -0.5617  0.2628 -0.4158
  192POPC   C2722175   2.206   0.674   7.347  0.3827 -0.1041  0.3150
  192POPC   H7R22176   2.316   0.679   7.364  0.1694  0.0830  1.7303
  192POPC   H7S22177   2.168   0.571   7.331 -0.0856  0.2400 -0.8939
  192POPC   C2822178   2.143   0.737   7.467  0.2000 -0.5791 -0.3890
  192POPC   H8R22179   2.178   0.683   7.558  0.7074  0.3073 -0.0474
  192POPC   H8S22180   2.032   0.744   7.470  0.2499  2.8307 -2.1885
  192POPC   C2922181   2.176   0.883   7.468 -0.7648  0.3310 -0.6642
  192POPC   H9122182   2.119   0.943   7.396 -0.4531  0.1279 -1.0848
  192POPC  C21022183   2.284   0.932   7.545  0.0138 -0.3119  0.0044
  192POPC  H10122184   2.313   1.037   7.527  0.4878 -0.6220 -1.1320
  192POPC  C21122185   2.371   0.860   7.645  0.0351  0.3441 -0.2223
  192POPC  H11R22186   2.475   0.893   7.624  1.8497 -3.7296  1.2132
  192POPC  H11S22187   2.373   0.749   7.637  1.7123  0.3645 -0.4094
  192POPC  C21222188   2.339   0.883   7.793  0.3387 -0.0750  0.4880
  192POPC  H12R22189   2.246   0.835   7.830  1.1659 -0.7725  1.7294
  192POPC  H12S22190   2.331   0.993   7.798  2.2734  0.1654 -0.5547
  192POPC  C21322191   2.453   0.835   7.879 -0.7032  0.3271 -0.2205
  192POPC  H13R22192   2.536   0.908   7.889 -2.3130  2.0831  0.9492
  192POPC  H13S22193   2.494   0.746   7.826  0.2813 -0.1387  1.2748
  192POPC  C21422194   2.412   0.785   8.020  0.3138 -0.0526 -0.2201
  192POPC  H14R22195   2.312   0.738   8.021  0.0440  0.4682  1.8255
  192POPC  H14S22196   2.400   0.877   8.081  0.0778  0.2772 -0.7559
  192POPC  C21522197   2.515   0.698   8.084  0.0918 -0.5572 -0.4142
  192POPC  H15R22198   2.501   0.681   8.193  1.1517 -4.8530 -0.7532
  192POPC  H15S22199   2.612   0.752   8.080  0.0193 -0.1162  2.1834
  192POPC  C21622200   2.535   0.563   8.020 -0.2412  0.4236  0.0972
  192POPC  H16R22201   2.572   0.580   7.917 -1.8992  0.7349 -0.4861
  192POPC  H16S22202   2.436   0.513   8.011  0.1784 -0.5713  0.8968
  192POPC  C21722203   2.635   0.472   8.096  0.6044 -0.5708 -0.6776
  192POPC  H17R22204   2.603   0.463   8.202  2.1997 -3.0260 -0.3234
  192POPC  H17S22205   2.729   0.529   8.108  0.8095 -1.3929  2.3633
  192POPC  C21822206   2.649   0.338   8.034  0.4001  0.2107  0.1450
  192POPC  H18R22207   2.552   0.283   8.032  0.3371  0.3325 -0.7453
  192POPC  H18S22208   2.711   0.272   8.098 -2.6322 -1.6961  1.3402
  192POPC  H18T22209   2.678   0.343   7.927 -1.1102 -1.5716 -0.4119
  192POPC   C3322210   2.844   0.685   6.963 -0.4422 -0.5948 -0.2817
  192POPC   H3X22211   2.804   0.788   6.948  1.1536  0.3991  1.7806
  192POPC   H3Y22212   2.954   0.693   6.953 -0.3511 -0.6387  0.5885
  192POPC   C3422213   2.822   0.643   7.105 -0.5735  0.6281  0.2474
  192POPC   H4X22214   2.859   0.539   7.114  0.5985  0.9179 -0.9315
  192POPC   H4Y22215   2.713   0.642   7.129 -0.1819  0.0767  2.2185
  192POPC   C3522216   2.899   0.735   7.196 -0.5339 -0.8100  0.0603
  192POPC   H5X22217   2.855   0.837   7.188 -1.9682 -1.4525 -0.4879
  192POPC   H5Y22218   3.009   0.735   7.178 -0.2635  0.0641  1.5726
  192POPC   C3622219   2.872   0.682   7.343 -0.2162 -0.2874 -0.2046
  192POPC   H6X22220   2.904   0.576   7.355  1.5685  0.2059 -0.4198
  192POPC   H6Y22221   2.761   0.691   7.346 -0.4115 -1.7843 -1.5489
  192POPC   C3722222   2.925   0.774   7.457  0.9248  0.6904  0.1173
  192POPC   H7X22223   2.927   0.881   7.430 -1.0262  0.2088 -2.3967
  192POPC   H7Y22224   3.026   0.736   7.482 -0.1118 -1.6197  1.1651
  192POPC   C3822225   2.852   0.777   7.588  0.2057 -0.2396 -0.1430
  192POPC   H8X22226   2.849   0.671   7.622  1.3615 -0.4482 -0.6694
  192POPC   H8Y22227   2.746   0.811   7.578  0.0081  0.3684  2.8167
  192POPC   C3922228   2.920   0.864   7.689 -0.2881 -0.7567 -0.5691
  192POPC   H9X22229   2.941   0.967   7.651 -0.4653 -0.0547  1.1332
  192POPC   H9Y22230   3.025   0.828   7.696 -0.4059 -0.9861  0.0652
  192POPC  C31022231   2.856   0.866   7.830  0.6767  0.1382  0.0262
  192POPC  H10X22232   2.838   0.759   7.855 -3.0505  0.4116 -0.9060
  192POPC  H10Y22233   2.768   0.934   7.838  0.9678  0.3149  2.1207
  192POPC  C31122234   2.938   0.924   7.943 -0.7644  0.3823 -0.7598
  192POPC  H11X22235   2.949   1.033   7.924  0.2486  0.3853 -0.2276
  192POPC  H11Y22236   3.040   0.879   7.941 -0.1060  1.8386 -1.3036
  192POPC  C31222237   2.888   0.900   8.091  0.0851 -0.4552  0.2040
  192POPC  H12X22238   2.781   0.925   8.104 -0.1322 -1.2051 -0.1065
  192POPC  H12Y22239   2.954   0.963   8.155 -1.1622  0.5276  0.5582
  192POPC  C31322240   2.895   0.754   8.134 -0.9123 -0.9390  0.0900
  192POPC  H13X22241   2.864   0.690   8.049  0.6158 -1.7202  0.0820
  192POPC  H13Y22242   2.832   0.737   8.224 -1.5856 -0.5592 -0.3069
  192POPC  C31422243   3.034   0.709   8.177 -0.6773 -0.0855  0.1603
  192POPC  H14X22244   3.068   0.756   8.272  0.0361 -0.9924  0.3665
  192POPC  H14Y22245   3.107   0.727   8.095 -0.2426 -1.0617  0.3112
  192POPC  C31522246   3.029   0.549   8.189 -0.2957 -0.4532  0.0965
  192POPC  H15X22247   3.008   0.513   8.086  3.1577 -0.4259 -0.7362
  192POPC  H15Y22248   2.952   0.513   8.261  0.3389  1.0138  1.5819
  192POPC  C31622249   3.163   0.490   8.217  0.1631 -0.2156 -0.0788
  192POPC  H16X22250   3.149   0.391   8.263 -1.2301  0.0852  0.1769
  192POPC  H16Y22251   3.213   0.561   8.286 -1.6837  1.5355 -0.4573
  192POPC  H16Z22252   3.226   0.476   8.126  0.0529 -0.5120 -0.1103
  193SOD    SOD22253   3.549   2.992  15.460  0.1988 -0.2683 -0.0667
  194SOD    SOD22254   1.009   2.777  11.475  0.0802 -0.0533 -0.1381
  195SOD    SOD22255   0.317   3.039   3.543  0.0311 -0.4780  0.2747
  196SOD    SOD22256   2.795   4.637  13.311 -0.3924 -0.0061  0.0113
  197SOD    SOD22257   0.999   0.079   1.789  0.3053  0.1103  0.2899
  198SOD    SOD22258   0.233   6.359  11.454  0.0367 -0.4982  0.0948
  199SOD    SOD22259   5.464   0.707   2.128  0.0605  0.0711 -0.5338
  200SOD    SOD22260   4.502   0.595  11.884  0.2552  0.3750  0.1615
  201SOD    SOD22261   5.161   2.533   6.353 -0.3393  0.4341  0.3218
  202SOD    SOD22262   1.022   3.686  11.746  0.8041  0.2462 -0.1079
  203SOD    SOD22263   4.229   2.210   4.522  0.0396  0.0356 -0.3285
  204SOD    SOD22264   5.685   6.778  14.219 -0.4101 -0.0181 -0.1468
  205SOD    SOD22265   1.221   3.754  13.447  0.2879  0.1404 -0.5160
  206SOD    SOD22266   4.452   2.444   6.225  0.1717  0.4065  0.5632
  207SOD    SOD22267   4.296   6.676  12.591  0.0573 -0.0052 -0.0199
  208SOD    SOD22268   0.613   1.465  15.641 -0.2909  0.2659  0.4056
  209SOD    SOD22269   1.201   1.905  16.868  0.0952  0.1428  0.0856
  210SOD    SOD22270   0.064   3.374  13.118  0.5172  0.2795  0.3613
  211SOD    SOD22271   6.007   4.803   1.074  0.1115  0.5866  0.0173
  212SOD    SOD22272   1.869   0.376   6.236  0.1958  0.4491 -0.1172
  213SOD    SOD22273   1.827   3.700  16.321  0.1934 -0.2494  0.2801
  214SOD    SOD22274   3.951   5.183   2.177 -0.1582 -0.1093  0.4522
  215SOD    SOD22275   2.137   0.603   4.783 -0.2739  0.2635  0.0205
  216SOD    SOD22276   0.871   2.231  10.605 -0.3473  0.2150  0.0913
  217SOD    SOD22277   5.199   3.255   5.635  0.2331  0.0714  0.0552
  218SOD    SOD22278   4.278   4.746   0.409  0.1275  0.0652 -0.2555
  219SOD    SOD22279   6.757   2.343  11.596 -0.5446 -0.1265 -0.2798
  220SOD    SOD22280   5.013   5.286  16.732  0.0412 -0.0785 -0.6379
  221SOD    SOD22281   2.141   2.660   6.225  0.2579  0.0888 -0.0215
  222SOD    SOD22282   6.763   3.061   5.059 -0.1595  0.3649 -0.6121
  223SOD    SOD22283   2.183   3.020   1.956 -0.0122 -0.1341  0.3936
  224SOD    SOD22284   5.770   6.588  10.485 -0.3460 -0.7565 -0.2751
  225SOD    SOD22285   5.249   6.804   4.499 -0.6588 -0.0649  0.1714
  226SOD    SOD22286   3.035   3.060   5.771 -0.0805  0.0825 -0.5114
  227SOD    SOD22287   6.113   6.610   6.327  0.1686  0.2847  0.0029
  228SOD    SOD22288   3.034   2.029   5.523 -0.3565  0.2035 -0.4264
  229SOD    SOD22289   6.736   1.376  15.421  0.0931  0.0545 -0.3881
  230SOD    SOD22290   5.586   3.910  11.409  0.3594  0.0692  0.7978
  231SOD    SOD22291   5.036   2.219   4.190 -0.3802  0.8034 -0.5797
  232SOD    SOD22292   3.957   5.978  13.345  0.4149 -0.2555  0.5590
  233SOD    SOD22293   5.465   4.043   0.538  0.1345 -0.7039  0.0757
  234SOD    SOD22294   6.728   6.344  14.264  0.1866  0.2047  0.3366
  235SOD    SOD22295   1.560   5.790   3.502  0.3821 -0.2528  0.0291
  236SOD    SOD22296   0.687   1.341   1.195 -0.3279 -0.1163 -0.1476
  237SOD    SOD22297   3.309   3.935   4.170  0.9862  0.4927  0.1132
  238SOD    SOD22298   2.218   0.889  14.476 -0.1105  0.0087 -0.3845
  239SOD    SOD22299   1.735   3.950   1.185  0.1245  0.1147  0.4903
  240SOD    SOD22300   2.328   2.355   0.368  0.3064  0.5716  0.1195
  241SOD    SOD22301   2.689   0.491  16.098  0.5360 -0.2569  0.1522
  242SOD    SOD22302   0.916   5.910  16.086  0.0162  0.8546  0.0776
  243SOD    SOD22303   3.642   1.423   0.774  0.4605  0.3011  0.1223
  244SOD    SOD22304   0.008   4.778   4.310 -0.0599 -0.3123  0.3216
  245SOD    SOD22305   1.381   6.540   2.027 -0.0591  0.0488 -0.0008
  246SOD    SOD22306   6.205   4.156   2.528 -0.0819 -0.1755  0.3510
  247SOD    SOD22307   6.099   5.968  12.187 -0.0036  0.1310 -0.1022
  248SOD    SOD22308   1.919   4.546  11.357 -0.0250 -0.2412  0.2731
  249SOD    SOD22309   6.172   4.780   5.621 -0.2065  0.2807 -0.1050
  250SOD    SOD22310   4.788   5.548   3.322  0.1068  0.2475 -0.2848
  251SOD    SOD22311   3.553   1.918  11.638 -0.2334  0.0500  0.1065
  252SOD    SOD22312   2.552   0.847  10.557 -0.0959 -0.1306  0.4561
  253SOD    SOD22313   3.701   6.697  11.140 -0.0529 -0.1766  0.3737
  254SOD    SOD22314   6.430   3.618  14.989 -0.6138 -0.2599  0.5426
  255SOD    SOD22315   3.237   1.545  13.093  0.1381 -0.2495 -0.3845
  256SOD    SOD22316   1.619   5.216   4.944 -0.0665 -0.5323  0.1679
  257SOD    SOD22317   6.348   4.014  12.197  0.0817  0.2432  0.1180
  258SOD    SOD22318   6.278   4.799   6.575  0.3507 -0.5104  0.3470
  259SOD    SOD22319   6.748   6.647   3.693 -0.2308 -0.1419 -0.3205
  260SOD    SOD22320   4.713   3.599   2.638 -0.5138 -0.1167  0.2598
  261SOD    SOD22321   5.967   6.531   5.573  0.2042 -0.1186  0.6953
  262SOD    SOD22322   6.734   2.783  15.780  0.5508  0.0389  0.0131
  263SOD    SOD22323   1.153   2.317   2.373  0.4931 -0.1424 -0.0667
  264SOD    SOD22324   3.949   0.694  16.688 -0.0828  0.0082  0.3504
  265SOD    SOD22325   6.467   3.518   1.848 -0.3090  0.3928  0.1229
  266SOD    SOD22326   3.413   3.936  10.737 -0.5615 -0.1244 -0.2514
  267SOD    SOD22327   6.452   6.600   0.584  0.3050  0.1419 -0.2699
  268SOD    SOD22328   2.264   3.480   0.634 -0.2087  0.3017  0.4894
  269SOD    SOD22329   2.448   0.414   1.814 -0.5662 -0.0699 -0.4896
  270CLA    CLA22330   2.578   0.916   1.775  0.0371 -0.2605 -0.0840
  271CLA    CLA22331   1.066   6.160   2.856 -0.1460  0.2977  0.5377
  272CLA    CLA22332   5.674   3.570   4.150 -0.1363  0.0267 -0.0078
  273CLA    CLA22333   1.108   6.515   2.021  0.2331 -0.1605 -0.6966
  274CLA    CLA22334   2.985   5.946  15.753  0.0363  0.1638  0.0022
  275CLA    CLA22335   4.211   5.305   3.033 -0.0689 -0.0576  0.4294
  276CLA    CLA22336   2.779   2.076   0.286  0.3280 -0.0935  0.0107
  277CLA    CLA22337   0.624   2.780  12.972 -0.0060 -0.1234 -0.3037
  278CLA    CLA22338   0.396   4.936   0.568 -0.2881  0.3058 -0.4431
  279CLA    CLA22339   6.105   5.698  13.570 -0.0869 -0.0737  0.0523
  280CLA    CLA22340   5.652   1.358   5.352 -0.1555 -0.4404  0.0779
  281CLA    CLA22341   2.705   3.333   0.835 -0.4613  0.4189  0.0610
  282CLA    CLA22342   0.582   3.697  12.062  0.0234 -0.0162  0.2234
  283CLA    CLA22343   0.431   1.294  14.727 -0.0302 -0.2035 -0.1312
  284CLA    CLA22344   5.213   5.693   1.936  0.6438 -0.0981 -0.0068
  285CLA    CLA22345   2.934   0.345   0.372 -0.2354 -0.3107  0.1904
  286CLA    CLA22346   0.254   5.191  13.103 -0.2559  0.1551  0.0787
  287CLA    CLA22347   6.627   3.649  16.098  0.2483  0.1633  0.2880
  288CLA    CLA22348   4.848   5.841  15.234 -0.2730  0.2736 -0.3149
  289CLA    CLA22349   2.765   2.773   2.501 -0.1510  0.3661 -0.1565
  290CLA    CLA22350   4.019   5.398   0.835  0.0731 -0.0552  0.1729
  291CLA    CLA22351   0.790   1.770   1.026 -0.1183 -0.1051 -0.2003
  292CLA    CLA22352   4.215   2.735  15.722 -0.2347 -0.3413 -0.3221
  293CLA    CLA22353   6.415   4.012   1.668 -0.0475  0.3429 -0.0258
  294CLA    CLA22354   6.045   1.628  14.058  0.0552 -0.2858  0.1943
  295CLA    CLA22355   2.726   3.416  14.752 -0.0554 -0.1192  0.3872
  296CLA    CLA22356   3.066   5.729  16.780 -0.3217  0.1964  0.1350
  297CLA    CLA22357   4.233   1.350  11.804 -0.2762 -0.4331 -0.0316
  298CLA    CLA22358   1.056   0.560   1.917 -0.0618  0.0076 -0.4748
  299CLA    CLA22359   6.044   4.654  12.240  0.2184 -0.0141 -0.2312
  300CLA    CLA22360   4.546   0.036   5.291 -0.0557 -0.1227 -0.1846
  301CLA    CLA22361   2.476   0.456   5.196  0.0588  0.4450  0.2538
  302CLA    CLA22362   0.230   6.158   4.721 -0.3204  0.2442 -0.2397
  303CLA    CLA22363   5.554   2.410  11.599 -0.6155 -0.4810  0.2335
  304CLA    CLA22364   4.433   5.411  13.432  0.0678  0.1122 -0.0866
  305CLA    CLA22365   4.666   1.353   1.476  0.0384  0.1140 -0.0190
  306CLA    CLA22366   6.031   5.444   1.477  0.2026  0.7993  0.1385
  307CLA    CLA22367   5.327   3.578   3.026  0.3478 -0.2150  0.0706
  308CLA    CLA22368   5.170   5.112   4.628  0.5452 -0.2579 -0.2024
  309CLA    CLA22369   0.250   6.383  15.802  0.1416 -0.1027  0.1391
  310CLA    CLA22370   6.054   1.377   2.186 -0.0032 -0.1565  0.2558
  311CLA    CLA22371   0.935   5.460   1.838  0.2380 -0.3576 -0.1586
  312CLA    CLA22372   3.456   2.419   0.487 -0.3867  0.1184 -0.3833
  313CLA    CLA22373   6.350   4.261  15.884 -0.2293  0.2516  0.4929
  314CLA    CLA22374   3.482   3.189   0.403  0.0580 -0.0151 -0.6157
  315CLA    CLA22375   6.225   1.662   0.208 -0.3438 -0.1482  0.0248
  316CLA    CLA22376   2.466   2.525  13.611  0.1433  0.2312 -0.2849
  317CLA    CLA22377   3.691   6.626  14.733  0.1381 -0.0748  0.5430
  318CLA    CLA22378   0.448   0.931   2.611  0.1461 -0.2969 -0.1793
  319CLA    CLA22379   2.509   0.334   3.007 -0.2391  0.0143 -0.0458
  320CLA    CLA22380   0.248   2.919  13.246 -0.0727  0.0897 -0.3675
  321CLA    CLA22381   3.248   1.897  12.557 -0.1852  0.1599 -0.1961
  322CLA    CLA22382   4.134   4.486   4.350  0.1566 -0.6148 -0.3325
  323TIP3   OH222383   3.804   2.149  13.435 -0.3360 -0.4517  0.4319
  323TIP3    H122384   3.867   2.123  13.502  0.2511 -0.0340  0.0463
  323TIP3    H222385   3.740   2.203  13.482  0.2034  0.0354  0.6185
  324TIP3   OH222386   4.043   2.445  16.149 -0.4053 -0.1377  0.0659
  324TIP3    H122387   3.966   2.484  16.189 -0.0117 -1.1574  1.9360
  324TIP3    H222388   4.096   2.520  16.122 -1.0436  0.5944  0.7713
  325TIP3   OH222389   1.558   4.643  11.293  0.2503  0.1099  0.4186
  325TIP3    H122390   1.503   4.608  11.363  0.2892  1.5320  1.2014
  325TIP3    H222391   1.523   4.731  11.276 -0.2717 -0.4861 -1.9452
  326TIP3   OH222392   0.287   4.138  15.743  0.0079 -0.3097 -0.2632
  326TIP3    H122393   0.284   4.045  15.769  0.9348 -0.1860  0.3446
  326TIP3    H222394   0.216   4.179  15.792 -0.0695 -0.6098 -0.1223
  327TIP3   OH222395   1.113   2.756   4.717 -0.6196 -0.1579  0.4809
  327TIP3    H122396   1.071   2.829   4.764 -0.5986  0.9901 -1.1980
  327TIP3    H222397   1.205   2.780   4.713 -0.4815 -0.6647  0.5752
  328TIP3   OH222398   4.425   1.893   2.970 -0.0045  0.9580  0.2006
  328TIP3    H122399   4.425   1.882   3.065  1.2565  2.3055  0.3952
  328TIP3    H222400   4.464   1.812   2.937  1.6607  1.3736  1.0122
  329TIP3   OH222401   0.932   1.126   2.311  1.0761  0.2548  0.3278
  329TIP3    H122402   0.871   1.153   2.242 -0.4679 -0.5532  1.3379
  329TIP3    H222403   0.877   1.086   2.378  2.5173  1.1183  2.1077
  330TIP3   OH222404   5.599   6.318  14.646 -0.2093  0.0567 -0.2038
  330TIP3    H122405   5.651   6.396  14.629 -0.7174  0.1026 -1.6633
  330TIP3    H222406   5.641   6.276  14.721  1.2883  0.6490 -0.6918
  331TIP3   OH222407   1.296   4.596  13.458 -0.1636  0.2021  0.3327
  331TIP3    H122408   1.343   4.556  13.531 -0.0992 -1.4423 -0.5554
  331TIP3    H222409   1.204   4.583  13.478 -0.1421 -1.0517 -0.2438
  332TIP3   OH222410   3.185   5.227  16.027  0.5635  0.1056 -0.0381
  332TIP3    H122411   3.205   5.274  15.945  1.6302 -0.6244 -0.2154
  332TIP3    H222412   3.228   5.280  16.095  0.3319  0.2946 -0.0375
  333TIP3   OH222413   0.102   2.384   0.433 -0.0016  0.0913  0.2735
  333TIP3    H122414   0.121   2.295   0.403 -1.7912  0.1291 -1.1184
  333TIP3    H222415   0.171   2.438   0.394  0.9305 -0.6214  0.8960
  334TIP3   OH222416   6.593   1.196  16.176 -0.2653  0.1108 -0.3661
  334TIP3    H122417   6.575   1.133  16.247  2.1792  0.9851  1.1593
  334TIP3    H222418   6.683   1.177  16.150 -1.1057 -0.2151 -3.3959
  335TIP3   OH222419   0.062   1.412  16.216  0.1852  0.0242 -0.5895
  335TIP3    H122420   0.083   1.505  16.213  0.6456 -0.1054 -1.6507
  335TIP3    H222421   0.028   1.398  16.304  0.4213  1.1292 -0.3134
  336TIP3   OH222422   6.613   0.687  15.965 -0.1474 -0.1869  0.0181
  336TIP3    H122423   6.551   0.758  15.977  0.6404  0.3294  1.3500
  336TIP3    H222424   6.609   0.637  16.047  1.5392  0.1836  0.3746
  337TIP3   OH222425   1.722   3.866   6.014 -0.6588  0.3438  0.7115
  337TIP3    H122426   1.647   3.919   6.041 -0.3786  1.3468 -0.3698
  337TIP3    H222427   1.690   3.816   5.939 -0.4900  0.1145  0.7914
  338TIP3   OH222428   4.070   1.921  16.947  0.4093 -0.3617 -0.1971
  338TIP3    H122429   4.066   1.843  16.892  0.2233 -1.2155  0.9807
  338TIP3    H222430   4.080   1.993  16.886  1.3351 -1.3719 -1.2925
  339TIP3   OH222431   4.540   1.874  14.733  0.6063  0.0971 -0.5556
  339TIP3    H122432   4.595   1.908  14.804  1.1140 -2.3216  0.2995
  339TIP3    H222433   4.583   1.907  14.654  0.3661  2.3623  0.1767
  340TIP3   OH222434   2.419   6.716  14.419 -0.4851 -0.4954  0.3204
  340TIP3    H122435   2.458   6.804  14.412 -2.0640  0.1218 -2.6110
  340TIP3    H222436   2.370   6.718  14.501  1.3549  0.5018  1.4675
  341TIP3   OH222437   5.007   0.923   5.445  1.1714 -0.7472  0.2713
  341TIP3    H122438   5.062   0.998   5.470  0.1537 -0.0232  0.4148
  341TIP3    H222439   4.995   0.874   5.526 -0.3944  0.4481  0.8036
  342TIP3   OH222440   5.469   3.623   0.462  0.2174  0.4463  0.1182
  342TIP3    H122441   5.408   3.588   0.527 -1.2931 -0.4111 -1.6887
  342TIP3    H222442   5.552   3.579   0.481 -0.1809  0.2309  1.4551
  343TIP3   OH222443   4.501   1.283  16.018  0.8044 -0.5210 -0.1366
  343TIP3    H122444   4.555   1.284  16.098 -0.3085 -4.2558  0.8607
  343TIP3    H222445   4.411   1.289  16.050  0.3824 -0.9280 -1.2024
  344TIP3   OH222446   6.362   5.352  12.260  0.0028 -0.0515 -0.3012
  344TIP3    H122447   6.333   5.305  12.338 -0.4083  1.1444  0.2864
  344TIP3    H222448   6.342   5.444  12.278  0.1907  0.2862 -1.6882
  345TIP3   OH222449   3.946   2.899   4.757  0.2536 -0.6175  0.7140
  345TIP3    H122450   4.039   2.901   4.780  0.6597  0.5231 -0.8755
  345TIP3    H222451   3.940   2.839   4.683  0.3943  2.0406 -1.6000
  346TIP3   OH222452   5.090   5.338  14.604  0.5163 -0.0254  0.3199
  346TIP3    H122453   5.065   5.429  14.587  0.5706 -0.0551  0.0864
  346TIP3    H222454   5.185   5.341  14.613  0.6943 -0.3143 -1.2863
  347TIP3   OH222455   5.226   3.050   1.023  0.2530  0.2972  0.1071
  347TIP3    H122456   5.167   3.026   0.952  2.3436 -0.3968 -1.5118
  347TIP3    H222457   5.312   3.057   0.981  1.3537  1.2296  2.3407
  348TIP3   OH222458   2.957   5.134   3.977 -0.2186  0.1854  0.4478
  348TIP3    H122459   3.018   5.147   4.050  0.8807  2.6650 -0.8048
  348TIP3    H222460   2.876   5.176   4.005 -0.3774 -0.3778  0.8701
  349TIP3   OH222461   0.731   0.920   3.479  0.6835  0.5756  0.0247
  349TIP3    H122462   0.661   0.980   3.456  0.4617  0.7781  1.1672
  349TIP3    H222463   0.807   0.952   3.432  0.5019  1.5974  0.3985
  350TIP3   OH222464   3.637   4.477   6.209  0.4087 -0.5921  0.2343
  350TIP3    H122465   3.612   4.565   6.237 -0.8700 -0.6364 -0.7042
  350TIP3    H222466   3.627   4.423   6.288  0.0853 -0.1218  0.5199
  351TIP3   OH222467   5.036   0.662   3.468 -0.0949 -0.3400 -0.2399
  351TIP3    H122468   5.108   0.694   3.414 -2.1014 -0.9233 -3.5696
  351TIP3    H222469   4.968   0.729   3.459 -0.8126 -0.8937  0.8828
  352TIP3   OH222470   2.014   0.026   4.997  0.1041 -0.1142  0.0716
  352TIP3    H122471   2.035  -0.020   4.916  2.8086 -2.2417  1.8012
  352TIP3    H222472   2.005   0.118   4.971  1.0840 -0.6959 -2.5904
  353TIP3   OH222473   5.685   4.718  13.698  0.0404  0.5228  0.7540
  353TIP3    H122474   5.774   4.744  13.722 -0.0595  1.4457  0.1525
  353TIP3    H222475   5.630   4.755  13.768 -0.1714  2.5821 -0.4280
  354TIP3   OH222476   4.984   3.027  15.310 -0.1513  0.3280  0.5115
  354TIP3    H122477   5.054   3.084  15.278  0.8778 -1.2008 -0.1121
  354TIP3    H222478   4.933   3.006  15.232  0.0495 -0.3298  0.5478
  355TIP3   OH222479   0.697   4.079  10.948 -0.0695  0.0910 -0.4173
  355TIP3    H122480   0.683   4.144  10.880 -0.5946 -0.7675 -1.1475
  355TIP3    H222481   0.704   3.996  10.902 -0.5814 -0.5344  0.5822
  356TIP3   OH222482   3.114   4.629   1.714  0.4817  0.4329  0.1439
  356TIP3    H122483   3.174   4.590   1.650 -1.5512 -0.9182 -1.0520
  356TIP3    H222484   3.112   4.567   1.787 -1.2655 -0.8393 -0.9089
  357TIP3   OH222485   5.080   5.723   0.985 -0.7400  0.0795 -0.2000
  357TIP3    H122486   4.993   5.762   0.990 -0.1353  1.3330  1.8456
  357TIP3    H222487   5.081   5.657   1.055  0.3756  1.1465  0.8678
  358TIP3   OH222488   2.278   2.955  13.473  0.1353 -0.1628 -0.1848
  358TIP3    H122489   2.246   2.881  13.524 -0.6876 -0.5327 -1.1952
  358TIP3    H222490   2.324   2.914  13.399 -0.3336  0.3239 -0.7533
  359TIP3   OH222491   5.221   6.240  15.149  0.3493  0.2850 -0.1982
  359TIP3    H122492   5.239   6.149  15.174  0.9138  0.4492  0.0021
  359TIP3    H222493   5.161   6.233  15.075  0.8038 -0.2621 -0.5230
  360TIP3   OH222494   1.542   3.997   4.563 -0.0340  0.5935 -0.2515
  360TIP3    H122495   1.573   4.055   4.633 -0.0952  0.8385 -0.4250
  360TIP3    H222496   1.524   4.056   4.490 -3.1070  0.8328  0.5495
  361TIP3   OH222497   6.197   3.085  15.447  0.0963  0.2919  0.1045
  361TIP3    H122498   6.145   3.117  15.521  0.2349 -0.0953  0.3702
  361TIP3    H222499   6.147   3.012  15.412  1.7444 -1.9466  2.0978
  362TIP3   OH222500   1.023   0.213  13.888  0.1802 -0.3468 -0.3011
  362TIP3    H122501   0.962   0.199  13.961  0.4903  1.2696  0.3142
  362TIP3    H222502   0.966   0.230  13.813 -0.1428 -2.0202 -0.4751
  363TIP3   OH222503   4.137   3.185  13.684  0.3470 -0.3672 -0.0684
  363TIP3    H122504   4.146   3.097  13.648 -0.6902 -0.9168  0.9518
  363TIP3    H222505   4.219   3.200  13.731  0.5302 -0.7877 -0.2523
  364TIP3   OH222506   0.763   5.564   0.605  0.0341 -0.0657  0.3377
  364TIP3    H122507   0.797   5.592   0.690  0.3026  0.8739 -0.0507
  364TIP3    H222508   0.770   5.469   0.606  1.0290 -0.0081  0.9689
  365TIP3   OH222509   3.670   5.417  12.817  0.5635  0.1748 -0.5173
  365TIP3    H122510   3.622   5.413  12.735 -0.0233 -0.1636 -0.1584
  365TIP3    H222511   3.623   5.359  12.876 -0.6300  2.4120  0.8881
  366TIP3   OH222512   3.450   3.044  13.050  0.2194 -0.1985  0.2235
  366TIP3    H122513   3.523   3.105  13.038 -0.3132  0.1401 -1.8136
  366TIP3    H222514   3.407   3.073  13.130 -0.2693  2.4656 -0.8688
  367TIP3   OH222515   3.494   1.230  13.041 -0.4716 -0.4023  0.5655
  367TIP3    H122516   3.568   1.259  13.096 -0.7956  2.6231 -0.4006
  367TIP3    H222517   3.534   1.205  12.958 -0.4761  2.0714 -0.2656
  368TIP3   OH222518   5.548   0.362   4.371 -0.6487  0.5248  0.5580
  368TIP3    H122519   5.509   0.410   4.445 -2.3042  2.9901 -1.7281
  368TIP3    H222520   5.635   0.399   4.362 -0.1645 -0.2819  1.6183
  369TIP3   OH222521   6.789   0.289   3.909  0.3531  0.3073 -0.6114
  369TIP3    H122522   6.777   0.381   3.932 -0.1594  0.2133 -0.4950
  369TIP3    H222523   6.746   0.240   3.979  0.2134 -0.0099 -0.9112
  370TIP3   OH222524   3.867   6.300  14.704 -0.5513  0.7962  0.0118
  370TIP3    H122525   3.802   6.332  14.767 -1.8616 -1.4985 -0.0937
  370TIP3    H222526   3.951   6.330  14.739 -1.2946  0.1623  2.5100
  371TIP3   OH222527   1.167   0.201   4.053 -0.5356  0.4698  0.8405
  371TIP3    H122528   1.193   0.259   3.982 -0.1434 -1.9985 -1.1628
  371TIP3    H222529   1.250   0.165   4.086 -0.8301  0.1389  1.2282
  372TIP3   OH222530   2.056   1.235  13.443 -0.2159 -0.0811 -0.3446
  372TIP3    H122531   1.983   1.211  13.499 -1.7314  1.0855 -1.6920
  372TIP3    H222532   2.055   1.171  13.372  1.0668 -0.9680  0.4070
  373TIP3   OH222533   3.719   1.351   1.884  0.1383  0.1162  0.0897
  373TIP3    H122534   3.797   1.297   1.892  0.6526  0.5911 -1.3650
  373TIP3    H222535   3.744   1.421   1.823 -1.5331  0.0662 -0.7120
  374TIP3   OH222536   2.939   4.419   4.462 -0.2525 -0.5611  0.2442
  374TIP3    H122537   3.004   4.461   4.519  2.1202  1.8692 -3.7735
  374TIP3    H222538   2.855   4.454   4.492  0.9974  1.6655  1.4425
  375TIP3   OH222539   6.760   5.095   1.781  0.4836 -0.6209  0.0132
  375TIP3    H122540   6.668   5.076   1.760 -0.6869  2.1775  2.0754
  375TIP3    H222541   6.797   5.126   1.698 -0.8873 -0.2192 -0.4852
  376TIP3   OH222542   1.360   2.183   3.864 -0.1522 -0.5572  0.4213
  376TIP3    H122543   1.390   2.097   3.892 -1.7680 -1.4851 -0.5680
  376TIP3    H222544   1.411   2.202   3.785  1.0880 -0.0174  1.3226
  377TIP3   OH222545   2.420   5.914  17.177  0.0549  0.7809 -0.5892
  377TIP3    H122546   2.378   5.829  17.185  1.5823  0.0759  0.2872
  377TIP3    H222547   2.422   5.949  17.266  2.3727  0.2223 -0.3491
  378TIP3   OH222548   1.863   4.829  14.638  0.1969  0.2310  0.8187
  378TIP3    H122549   1.954   4.852  14.620 -0.4408  0.8192 -2.1382
  378TIP3    H222550   1.860   4.734  14.627  0.8102 -0.0975  3.0370
  379TIP3   OH222551   2.351   5.576   1.188  0.4295 -0.2590 -0.0797
  379TIP3    H122552   2.373   5.501   1.243 -0.5379  0.4444  1.3259
  379TIP3    H222553   2.357   5.543   1.099 -1.7103 -2.5345  0.5133
  380TIP3   OH222554   1.290   3.281  14.361 -0.3968  0.1828  0.2526
  380TIP3    H122555   1.294   3.369  14.399 -0.2765 -0.4948  1.8696
  380TIP3    H222556   1.220   3.287  14.296  0.1428  1.6718 -0.2431
  381TIP3   OH222557   6.117   2.524   5.293 -0.2808 -0.3641  0.5455
  381TIP3    H122558   6.193   2.491   5.342 -0.2029 -0.8354  0.1253
  381TIP3    H222559   6.150   2.534   5.203 -0.1623  1.3709  0.7597
  382TIP3   OH222560   1.917   2.777  15.979  0.3684  0.0431 -0.1901
  382TIP3    H122561   1.838   2.747  15.935 -1.3018  2.6398  0.7715
  382TIP3    H222562   1.979   2.705  15.970 -1.7691 -1.7219 -1.8231
  383TIP3   OH222563   4.870   6.079  16.615  0.4570  0.7048 -0.9068
  383TIP3    H122564   4.777   6.099  16.608  0.2529 -0.7328 -3.4115
  383TIP3    H222565   4.911   6.129  16.546  0.9805 -1.3205 -2.1557
  384TIP3   OH222566   3.508   3.637   2.030 -0.1101  0.4305  0.1697
  384TIP3    H122567   3.576   3.705   2.033 -0.4698  0.8639 -1.0330
  384TIP3    H222568   3.449   3.665   1.961 -0.6545 -0.7628  0.1299
  385TIP3   OH222569   2.831   1.190  11.693 -0.3307 -0.3902  0.0754
  385TIP3    H122570   2.791   1.276  11.703  1.0255  0.3019 -0.3565
  385TIP3    H222571   2.756   1.130  11.692 -1.3865  0.8793 -0.8651
  386TIP3   OH222572   2.102   2.652   5.980  0.0338  0.2527 -0.3230
  386TIP3    H122573   2.083   2.564   5.947 -2.3260  1.0324 -1.2287
  386TIP3    H222574   2.111   2.705   5.901 -1.8553  1.4216  0.1840
  387TIP3   OH222575   4.757   2.095  13.023  0.1417 -0.0335  0.4221
  387TIP3    H122576   4.783   2.050  13.103 -2.1800 -2.3117  0.0566
  387TIP3    H222577   4.683   2.150  13.049  0.0545  0.0450  0.0220
  388TIP3   OH222578   6.228   5.284   0.454 -0.8703  0.4323 -0.8447
  388TIP3    H122579   6.284   5.343   0.404 -0.0611 -0.1885 -0.6943
  388TIP3    H222580   6.183   5.231   0.388  1.3378 -1.4379 -0.9668
  389TIP3   OH222581   5.498   3.571  11.669 -0.2029 -0.3831 -0.6346
  389TIP3    H122582   5.460   3.498  11.718  1.1297  0.6063  2.1113
  389TIP3    H222583   5.585   3.582  11.707  0.9154  0.5413 -3.2882
  390TIP3   OH222584   4.355   5.473  13.738  0.4150 -0.7676  0.1014
  390TIP3    H122585   4.364   5.465  13.644 -0.8674 -1.4925  0.0070
  390TIP3    H222586   4.311   5.391  13.765  1.2496 -0.8251  1.3932
  391TIP3   OH222587   4.896   5.620  12.874  0.0721 -0.1088 -0.1660
  391TIP3    H122588   4.834   5.631  12.802  0.4589  0.7062 -0.3800
  391TIP3    H222589   4.903   5.707  12.913  0.2933 -0.4260  0.5097
  392TIP3   OH222590   5.399   2.230   2.411 -0.3972 -0.1379 -0.8325
  392TIP3    H122591   5.413   2.320   2.441 -1.6416  0.5207 -2.0929
  392TIP3    H222592   5.394   2.237   2.316  1.6045 -1.8834 -1.1326
  393TIP3   OH222593   0.098   2.595   3.612 -0.0119  0.0976  0.1827
  393TIP3    H122594   0.157   2.630   3.545 -0.9358  1.6635  0.1424
  393TIP3    H222595   0.110   2.500   3.606  1.4480  0.2999 -0.7774
  394TIP3   OH222596   1.081   3.253   2.744  0.0326 -0.0953 -0.0774
  394TIP3    H122597   1.126   3.334   2.768 -0.9866  0.7948 -1.0676
  394TIP3    H222598   1.009   3.246   2.806 -1.5692  1.3035 -1.6342
  395TIP3   OH222599   4.549   5.348  15.789 -0.2921  0.4861  0.3539
  395TIP3    H122600   4.501   5.274  15.754 -0.5133  0.8087 -0.0243
  395TIP3    H222601   4.498   5.425  15.764  0.2554  0.8118  0.2055
  396TIP3   OH222602   4.889   3.854  13.450  0.1473  0.3859  0.2524
  396TIP3    H122603   4.909   3.947  13.460  1.1338  0.2170  0.0123
  396TIP3    H222604   4.824   3.835  13.517  0.9562  0.9546  1.2249
  397TIP3   OH222605   3.338   6.597  13.708 -0.1808 -0.2759 -0.0273
  397TIP3    H122606   3.386   6.523  13.670 -0.4100 -1.0095  1.0633
  397TIP3    H222607   3.295   6.638  13.633 -1.4201 -2.2728 -0.4978
  398TIP3   OH222608   4.237   0.395  14.257  0.1389 -0.1031  0.3814
  398TIP3    H122609   4.323   0.362  14.233  0.5724  1.5411 -0.4996
  398TIP3    H222610   4.186   0.317  14.279  2.2041 -1.0590  2.2310
  399TIP3   OH222611   2.450   5.183   2.915 -0.0334 -0.4766 -0.1100
  399TIP3    H122612   2.473   5.144   2.831  0.0757  0.4967 -0.5504
  399TIP3    H222613   2.382   5.126   2.951  0.9225 -1.6951 -0.1949
  400TIP3   OH222614   5.149   1.850   5.340 -0.2222  0.5556  0.0362
  400TIP3    H122615   5.183   1.866   5.427 -0.9278 -1.7122  0.7986
  400TIP3    H222616   5.086   1.921   5.325  0.8187  1.6685  0.8273
  401TIP3   OH222617   6.312   1.051  12.586  0.3192  0.4329  0.1774
  401TIP3    H122618   6.229   1.097  12.591 -0.7537 -1.1165 -1.8685
  401TIP3    H222619   6.355   1.087  12.508  1.2411  0.6515  0.7631
  402TIP3   OH222620   3.001   5.202  17.009  0.5074  0.3200  0.6225
  402TIP3    H122621   3.055   5.202  16.930 -1.3266  0.7147 -0.7252
  402TIP3    H222622   2.983   5.295  17.025 -0.2773  0.1777  0.6289
  403TIP3   OH222623   0.258   0.078   1.702 -0.0981 -0.0017 -0.5084
  403TIP3    H122624   0.347   0.050   1.678 -0.3294 -0.6444 -0.6300
  403TIP3    H222625   0.222   0.003   1.750 -1.0284 -0.2567 -1.5723
  404TIP3   OH222626   0.904   2.711   4.551 -0.3663  0.0889  0.1569
  404TIP3    H122627   0.975   2.725   4.613 -0.7067  1.1273  0.3440
  404TIP3    H222628   0.938   2.744   4.468  0.6328 -2.6363 -0.6267
  405TIP3   OH222629   2.259   4.217   1.994 -0.0085  0.3373  0.2102
  405TIP3    H122630   2.260   4.123   1.979  0.0320  0.5588 -1.4399
  405TIP3    H222631   2.350   4.240   2.013  0.0457  0.0907  0.2449
  406TIP3   OH222632   4.084   2.937   6.092 -0.1551  0.2280  0.1675
  406TIP3    H122633   4.149   2.867   6.084 -0.4971 -0.1264  0.4502
  406TIP3    H222634   3.999   2.892   6.092 -0.3666  0.6167  0.6378
  407TIP3   OH222635   0.442   4.443   3.802  0.0951 -0.7508  0.6649
  407TIP3    H122636   0.402   4.528   3.786 -0.9937 -1.3858 -0.0908
  407TIP3    H222637   0.488   4.454   3.886  2.8598  1.5560 -0.9684
  408TIP3   OH222638   2.490   0.133  14.811 -0.3124 -0.3592 -0.8068
  408TIP3    H122639   2.477   0.089  14.727 -1.3999 -1.2062 -0.2108
  408TIP3    H222640   2.546   0.073  14.861 -0.1623 -0.1337 -0.7029
  409TIP3   OH222641   5.619   6.150   0.743  0.4730  0.3095 -0.1710
  409TIP3    H122642   5.694   6.182   0.692  0.7317 -0.5324 -0.3375
  409TIP3    H222643   5.658   6.090   0.806  0.6529  3.6279  3.2843
  410TIP3   OH222644   4.336   1.922  14.976 -0.1459 -0.5296 -0.3486
  410TIP3    H122645   4.389   1.875  14.911 -0.1561 -0.5588 -0.3364
  410TIP3    H222646   4.377   2.008  14.983 -1.1211  0.0549 -1.5910
  411TIP3   OH222647   2.261   5.902  11.276 -0.2941  0.6482  0.4278
  411TIP3    H122648   2.249   5.843  11.350 -0.4456  0.2457  0.0879
  411TIP3    H222649   2.204   5.866  11.208  1.1514 -0.0168 -0.4756
  412TIP3   OH222650   3.372   4.967  13.674 -0.2073 -0.1870  0.7220
  412TIP3    H122651   3.379   5.012  13.759  1.0629  1.1257 -0.0299
  412TIP3    H222652   3.345   4.878  13.697  0.2167  0.0932  2.5311
  413TIP3   OH222653   3.307   4.881  14.614 -0.0736  0.0220 -0.5447
  413TIP3    H122654   3.258   4.963  14.619  0.2556  0.3341 -1.9618
  413TIP3    H222655   3.263   4.823  14.675 -1.3026  0.7567 -0.7077
  414TIP3   OH222656   4.082   5.093   3.533 -0.5498  0.3890  0.1388
  414TIP3    H122657   4.113   5.166   3.480 -0.6771  0.6220  0.3865
  414TIP3    H222658   4.086   5.018   3.474  0.3937  0.4269  0.1399
  415TIP3   OH222659   4.320   5.158   4.251 -0.4194 -0.4127 -0.6447
  415TIP3    H122660   4.318   5.079   4.197  1.0264 -1.2244  0.3898
  415TIP3    H222661   4.414   5.175   4.265 -0.6477 -1.2475  2.9059
  416TIP3   OH222662   6.128   2.723   3.846  0.5429 -0.3490  0.1399
  416TIP3    H122663   6.100   2.682   3.928 -0.6744  1.2699  0.5762
  416TIP3    H222664   6.081   2.806   3.843  3.2554  1.2676 -0.4932
  417TIP3   OH222665   6.624   0.139  13.901 -0.2533 -0.5353  0.3248
  417TIP3    H122666   6.583   0.083  13.834 -2.1643  2.0718 -0.8739
  417TIP3    H222667   6.698   0.180  13.856  0.3432 -1.0607  0.8025
  418TIP3   OH222668   1.298   0.981  16.106  0.8175 -0.0763 -0.6101
  418TIP3    H122669   1.213   0.988  16.061 -0.7329  0.3351  2.1897
  418TIP3    H222670   1.360   1.021  16.044 -0.5852 -2.1413 -3.6040
  419TIP3   OH222671   0.815   4.777   0.752 -0.1505  0.2649  0.3243
  419TIP3    H122672   0.890   4.821   0.712 -1.4962  1.1875 -1.3558
  419TIP3    H222673   0.840   4.763   0.843  2.1176  0.3391 -0.2356
  420TIP3   OH222674   6.721   4.743   4.900  0.1904 -0.0780 -0.2970
  420TIP3    H122675   6.681   4.743   4.813  1.1114  0.5573 -0.7292
  420TIP3    H222676   6.650   4.766   4.959 -0.4617 -0.5846 -0.8696
  421TIP3   OH222677   6.650   2.204   5.401  0.2024 -0.0180  0.1048
  421TIP3    H122678   6.683   2.135   5.344  0.3302  0.1772 -0.0590
  421TIP3    H222679   6.647   2.164   5.488  2.3536  0.3885  0.4316
  422TIP3   OH222680   2.763   5.731  12.244 -0.4002 -0.2869  0.1346
  422TIP3    H122681   2.851   5.694  12.238 -0.7072 -1.1001  0.4762
  422TIP3    H222682   2.721   5.709  12.160 -0.1745  0.3922 -0.1617
  423TIP3   OH222683   6.352   3.355   2.855 -0.2269  0.3888  0.0695
  423TIP3    H122684   6.395   3.323   2.934 -1.7048 -2.5710 -0.1606
  423TIP3    H222685   6.411   3.421   2.820  2.0372 -0.5058  1.9405
  424TIP3   OH222686   2.104   3.460   2.669 -0.0296 -0.2304 -0.0529
  424TIP3    H122687   2.039   3.410   2.619  0.7290  0.6748 -2.0509
  424TIP3    H222688   2.054   3.526   2.716 -0.8771 -1.7836  1.3180
  425TIP3   OH222689   5.369   6.160  12.772 -0.0986 -0.0088 -0.6985
  425TIP3    H122690   5.441   6.215  12.803  0.8761 -1.1266 -0.8824
  425TIP3    H222691   5.316   6.144  12.849  0.0075  0.5867 -0.4935
  426TIP3   OH222692   2.604   1.095   2.648  0.2613  0.0563 -0.4276
  426TIP3    H122693   2.652   1.162   2.599  3.0151 -1.0514  0.5817
  426TIP3    H222694   2.553   1.049   2.582  2.1624  0.0051 -1.9406
  427TIP3   OH222695   3.856   5.626  15.008 -1.0389 -0.1031 -0.1121
  427TIP3    H122696   3.815   5.545  15.039 -1.6398 -0.2603 -1.2465
  427TIP3    H222697   3.782   5.685  14.991 -0.6237  0.5831  0.4026
  428TIP3   OH222698   4.623   2.043   1.741 -0.1025 -0.6853 -0.0765
  428TIP3    H122699   4.560   2.041   1.813 -1.7320 -1.3952 -1.4555
  428TIP3    H222700   4.642   1.951   1.724 -1.1317 -0.6336 -1.6866
  429TIP3   OH222701   5.446   1.447   4.623 -0.3455  0.3645 -0.1022
  429TIP3    H122702   5.495   1.367   4.640 -0.2017  0.3531 -0.5602
  429TIP3    H222703   5.370   1.419   4.572 -0.7820  0.3966  0.5203
  430TIP3   OH222704   2.546   5.029   4.045  0.1904 -0.2030 -0.0420
  430TIP3    H122705   2.514   4.997   4.129 -0.2448  0.5089  0.0655
  430TIP3    H222706   2.502   5.112   4.032  0.4577 -0.1774 -0.8537
  431TIP3   OH222707   1.823   4.474  13.481 -0.0224 -0.0186  0.0179
  431TIP3    H122708   1.797   4.565  13.492  1.2209  0.9074 -3.4503
  431TIP3    H222709   1.915   4.471  13.510 -0.3297 -0.4357  0.9975
  432TIP3   OH222710   2.138   0.087  13.508  0.4305  0.5868  0.3654
  432TIP3    H122711   2.061   0.059  13.557  0.8219 -1.7922 -0.2414
  432TIP3    H222712   2.108   0.095  13.418  0.9439 -0.8477  0.0368
  433TIP3   OH222713   3.772   4.798  16.915  0.3612 -0.1522  0.0407
  433TIP3    H122714   3.781   4.817  16.822 -2.8582 -0.5575 -0.4893
  433TIP3    H222715   3.807   4.876  16.959  0.2650  0.8587 -1.5814
  434TIP3   OH222716   1.182   2.369   3.738 -0.4770 -0.1775  0.2865
  434TIP3    H122717   1.205   2.362   3.645 -2.5736  0.3960 -0.3145
  434TIP3    H222718   1.244   2.311   3.782 -0.1946 -1.3963 -1.6008
  435TIP3   OH222719   6.762   2.448   6.735 -0.9724 -0.0212  0.0123
  435TIP3    H122720   6.798   2.474   6.820 -2.4424 -1.0385  0.9846
  435TIP3    H222721   6.827   2.478   6.671  0.4788  0.1950  1.5323
  436TIP3   OH222722   6.239   0.441  11.192  0.4280  0.1637  0.5344
  436TIP3    H122723   6.209   0.531  11.179  0.6748  0.0753 -0.7748
  436TIP3    H222724   6.322   0.450  11.238  0.5327  0.6036  0.2648
  437TIP3   OH222725   4.093   5.591  12.188  0.0752 -0.7550  0.7902
  437TIP3    H122726   4.176   5.615  12.230 -0.0705 -1.8165  1.7693
  437TIP3    H222727   4.091   5.495  12.193 -0.1829 -0.8999 -1.2729
  438TIP3   OH222728   0.358   2.215  17.050  0.1278  0.2933 -0.1506
  438TIP3    H122729   0.371   2.280  17.119 -1.4137 -0.4107  0.8541
  438TIP3    H222730   0.267   2.227  17.022  0.5560  0.1730 -1.6638
  439TIP3   OH222731   3.719   3.339   0.195  0.5621  0.2075  0.1895
  439TIP3    H122732   3.666   3.290   0.257  1.7294 -1.5404 -0.1321
  439TIP3    H222733   3.808   3.307   0.208  0.6419 -1.6825 -3.6084
  440TIP3   OH222734   4.339   1.563   2.338  0.8834  0.2650  0.2910
  440TIP3    H122735   4.421   1.569   2.388  1.7338  0.8131 -1.1076
  440TIP3    H222736   4.343   1.636   2.277  0.0787 -0.6121 -0.8572
  441TIP3   OH222737   1.669   5.476   1.421  0.3503 -0.2251  0.3974
  441TIP3    H122738   1.671   5.571   1.433 -0.5675 -0.2650  0.9784
  441TIP3    H222739   1.588   5.448   1.464 -0.1727 -1.0903 -1.0944
  442TIP3   OH222740   4.112   0.935  10.687  0.0267  0.0631 -0.3474
  442TIP3    H122741   4.078   1.007  10.741 -0.8711 -1.4863  1.2775
  442TIP3    H222742   4.203   0.927  10.713  0.1625  0.6705 -0.6191
  443TIP3   OH222743   0.756   0.462  15.187  0.6668  0.1071 -0.3669
  443TIP3    H122744   0.739   0.469  15.093  5.8059  0.8028 -1.4996
  443TIP3    H222745   0.727   0.546  15.223 -2.1757 -0.4921 -0.9896
  444TIP3   OH222746   2.757   6.228  10.573 -0.1053  0.1127 -0.1817
  444TIP3    H122747   2.710   6.312  10.571  0.9123  0.7026 -2.0727
  444TIP3    H222748   2.849   6.252  10.573  0.2042 -1.0001 -0.5495
  445TIP3   OH222749   1.564   3.376  11.805 -0.2000 -0.7235 -0.1599
  445TIP3    H122750   1.550   3.298  11.858  0.4659  0.5608  2.0509
  445TIP3    H222751   1.476   3.400  11.773 -0.9040 -0.6805  1.7039
  446TIP3   OH222752   6.208   1.849  11.557 -0.2289 -0.2845 -0.7039
  446TIP3    H122753   6.214   1.922  11.619  0.3240 -0.0516 -1.0266
  446TIP3    H222754   6.163   1.780  11.606  1.1837 -0.5098  0.3453
  447TIP3   OH222755   3.108   0.375   1.402 -0.0346  0.5711  0.7897
  447TIP3    H122756   3.170   0.362   1.473  0.6300 -1.0265 -0.0496
  447TIP3    H222757   3.150   0.441   1.346  1.1013 -0.7537  0.0413
  448TIP3   OH222758   6.175   5.241   3.833 -0.1044  0.0107  0.1585
  448TIP3    H122759   6.113   5.178   3.796  1.2008 -0.8091 -0.6710
  448TIP3    H222760   6.181   5.310   3.767  1.3283 -0.8772 -0.6862
  449TIP3   OH222761   4.293   4.677  15.427 -0.5357 -0.1761  0.1062
  449TIP3    H122762   4.381   4.678  15.464 -0.4155 -0.7066 -0.1569
  449TIP3    H222763   4.278   4.585  15.404 -0.4677  0.1899 -1.4733
  450TIP3   OH222764   1.304   3.339   6.089  0.5405 -0.1970  0.3944
  450TIP3    H122765   1.242   3.290   6.143  0.3519  0.7256  1.0533
  450TIP3    H222766   1.250   3.398   6.037  0.7929 -0.3017  0.0053
  451TIP3   OH222767   2.038   3.449  11.865  0.2457 -0.1706  0.9854
  451TIP3    H122768   2.050   3.355  11.879 -1.2922 -0.6849 -0.7725
  451TIP3    H222769   1.946   3.465  11.885  0.1109  0.6342 -0.2033
  452TIP3   OH222770   1.639   1.249  13.911  0.0699  0.1846 -1.0275
  452TIP3    H122771   1.574   1.318  13.899 -0.4006 -0.1299 -0.3759
  452TIP3    H222772   1.594   1.182  13.963  1.3444  0.6153  0.7447
  453TIP3   OH222773   1.508   6.544  15.020 -0.2037 -0.1681 -0.2156
  453TIP3    H122774   1.464   6.496  15.090  1.4262  0.4663  1.3166
  453TIP3    H222775   1.444   6.609  14.991 -1.3133 -1.2038 -0.1528
  454TIP3   OH222776   5.381   5.555   0.278 -0.1041  0.1661 -0.6117
  454TIP3    H122777   5.442   5.609   0.328  0.5093 -0.9901 -0.0749
  454TIP3    H222778   5.316   5.527   0.342  1.4964 -2.5296 -0.0428
  455TIP3   OH222779   1.137   4.610  16.317  0.3264  0.0677  0.1628
  455TIP3    H122780   1.057   4.602  16.265  0.1665 -1.1472  0.5619
  455TIP3    H222781   1.204   4.634  16.254 -0.4336  1.7314 -0.0887
  456TIP3   OH222782   2.115   5.066  16.205 -0.2734  0.0697  0.7962
  456TIP3    H122783   2.119   5.129  16.277  1.0900  1.0349 -0.0609
  456TIP3    H222784   2.144   4.983  16.244  1.7946  0.8728  1.1339
  457TIP3   OH222785   3.026   6.276  16.223  0.3509 -0.1262 -0.2934
  457TIP3    H122786   3.050   6.185  16.206 -0.4827 -0.1704 -1.3312
  457TIP3    H222787   2.932   6.280  16.204  0.3027  0.8683  0.1049
  458TIP3   OH222788   6.203   1.091  11.602 -0.2163 -0.3153 -0.1448
  458TIP3    H122789   6.234   1.140  11.526 -1.2135  0.0179 -0.3419
  458TIP3    H222790   6.230   1.001  11.585 -2.6061 -0.7363 -2.1263
  459TIP3   OH222791   2.024   6.689  10.393  0.0018 -0.1583  0.4965
  459TIP3    H122792   2.046   6.740  10.470 -1.3341  0.2378  0.6374
  459TIP3    H222793   1.949   6.734  10.354 -0.8255 -1.6424  0.2860
  460TIP3   OH222794   0.100   5.147  13.360 -0.6335  1.1612  0.1031
  460TIP3    H122795   0.157   5.153  13.437 -0.5159  1.1205  0.0186
  460TIP3    H222796   0.158   5.164  13.286 -0.0829 -1.8745 -0.2550
  461TIP3   OH222797   6.372   5.338   4.216 -0.5022 -0.0310  0.6700
  461TIP3    H122798   6.394   5.245   4.223  0.1203  0.0681  0.1178
  461TIP3    H222799   6.287   5.339   4.172  0.6120 -0.2847 -1.6019
  462TIP3   OH222800   0.919   6.475   6.134 -0.0917 -0.0178 -0.7046
  462TIP3    H122801   0.955   6.564   6.136  2.4497 -0.9650 -0.4571
  462TIP3    H222802   0.884   6.462   6.222  0.9049  0.2377 -0.2568
  463TIP3   OH222803   0.791   6.631   5.580  0.1742 -0.1047  1.0977
  463TIP3    H122804   0.866   6.689   5.570  1.0756 -1.5919 -2.2219
  463TIP3    H222805   0.716   6.683   5.550  0.9156 -0.4173 -1.5180
  464TIP3   OH222806   5.571   6.199  16.232 -0.1607 -0.7111  0.1000
  464TIP3    H122807   5.482   6.169  16.213  0.1801 -1.7330  0.0361
  464TIP3    H222808   5.619   6.185  16.150 -0.0398  0.2380  0.0015
  465TIP3   OH222809   6.307   6.598  13.485  0.3081  0.5222 -0.0273
  465TIP3    H122810   6.352   6.660  13.427  1.1168 -0.3425 -0.3511
  465TIP3    H222811   6.214   6.620  13.477  0.6706  2.6333  0.9814
  466TIP3   OH222812   5.728   1.941   1.114 -0.1757 -0.0603 -0.1053
  466TIP3    H122813   5.711   1.934   1.020 -0.5461  1.4267 -0.1748
  466TIP3    H222814   5.657   1.997   1.147  1.9212  2.4910  0.3938
  467TIP3   OH222815   1.312   0.498  13.328 -0.5308  0.1055  0.3191
  467TIP3    H122816   1.236   0.451  13.294  0.1188  0.2090 -1.3557
  467TIP3    H222817   1.278   0.585  13.352 -1.6622 -0.9903  3.1211
  468TIP3   OH222818   1.704   5.461   4.531 -0.2354 -0.6934  0.0347
  468TIP3    H122819   1.688   5.556   4.525 -2.0748 -0.7897  2.2606
  468TIP3    H222820   1.799   5.453   4.525  0.1666  1.5267  1.8853
  469TIP3   OH222821   0.952   4.577  16.859 -0.0494 -0.2428 -0.9142
  469TIP3    H122822   0.881   4.629  16.821  0.5948  0.6578 -0.9302
  469TIP3    H222823   1.016   4.569  16.789  0.8373  0.8383 -0.2591
  470TIP3   OH222824   1.152   4.002  16.722  0.1968 -0.0372  0.1142
  470TIP3    H122825   1.192   4.081  16.685  1.3732 -0.3218  0.7439
  470TIP3    H222826   1.063   4.028  16.744  0.4312  0.9848 -0.1084
  471TIP3   OH222827   3.046   2.443  12.072  0.2624 -0.0103  0.3260
  471TIP3    H122828   3.082   2.523  12.033 -0.2056 -0.2206 -0.5575
  471TIP3    H222829   3.096   2.372  12.032 -0.9935 -0.2984 -0.8027
  472TIP3   OH222830   0.323   5.305  14.586  0.4608  0.1452  0.0611
  472TIP3    H122831   0.339   5.244  14.658 -2.3645  0.0892  0.7584
  472TIP3    H222832   0.283   5.251  14.518  0.3495  0.7489 -0.3611
  473TIP3   OH222833   3.481   0.120  13.060 -0.1652  0.0918  0.0208
  473TIP3    H122834   3.429   0.094  12.983  1.0279  1.0882 -1.1647
  473TIP3    H222835   3.453   0.060  13.129  0.7732 -2.8476 -1.9453
  474TIP3   OH222836   5.533   3.291  15.566  0.1203 -0.6389  0.5711
  474TIP3    H122837   5.439   3.306  15.578  0.0271 -1.0341  0.3815
  474TIP3    H222838   5.545   3.294  15.471 -0.1352 -2.9103  0.3974
  475TIP3   OH222839   2.932   5.588   2.112 -0.1210  0.0530 -0.1711
  475TIP3    H122840   2.876   5.571   2.188  1.5114  0.7401  1.2511
  475TIP3    H222841   2.898   5.670   2.075 -0.6059 -0.0092  0.1189
  476TIP3   OH222842   3.794   3.302   6.510 -0.3645  0.4901  0.4379
  476TIP3    H122843   3.782   3.292   6.605  1.3259 -1.4999  0.5192
  476TIP3    H222844   3.731   3.241   6.471  0.2284 -0.1078  0.3872
  477TIP3   OH222845   3.098   2.628   2.230 -1.1034  0.8474 -0.6160
  477TIP3    H122846   3.007   2.656   2.229 -0.6539  2.4526 -0.0489
  477TIP3    H222847   3.128   2.642   2.140 -1.2692  0.8111 -0.6779
  478TIP3   OH222848   2.311   5.239  15.948 -0.0680  0.6241  0.6980
  478TIP3    H122849   2.355   5.221  16.031 -2.8140 -0.8151  2.0014
  478TIP3    H222850   2.229   5.189  15.954 -0.6023  0.8875 -2.6910
  479TIP3   OH222851   5.249   2.727   5.612  0.8583 -0.4478  0.0586
  479TIP3    H122852   5.187   2.776   5.558  0.3729  0.7997  1.6721
  479TIP3    H222853   5.325   2.785   5.620  1.4638 -1.1671 -0.3110
  480TIP3   OH222854   4.826   0.426  15.567  0.0928  0.3133  0.2161
  480TIP3    H122855   4.857   0.385  15.648  0.3293 -1.2321 -0.6184
  480TIP3    H222856   4.772   0.499  15.597  1.2928  0.6249  1.7396
  481TIP3   OH222857   5.447   1.178  14.396  0.4705  0.1640  0.3414
  481TIP3    H122858   5.426   1.237  14.468  2.6975 -0.3764  1.5309
  481TIP3    H222859   5.422   1.091  14.428  0.6890  0.0171  0.1186
  482TIP3   OH222860   0.430   3.714  14.218 -0.1481  0.3060  0.6263
  482TIP3    H122861   0.466   3.626  14.228 -1.3639 -0.2753  0.0689
  482TIP3    H222862   0.364   3.706  14.149 -0.7954  1.4934  1.0720
  483TIP3   OH222863   3.524   4.342  11.549 -0.5343  0.1754 -0.1001
  483TIP3    H122864   3.563   4.390  11.476  0.2500  0.0167  0.2098
  483TIP3    H222865   3.587   4.273  11.569 -1.1745 -0.3486  0.1340
  484TIP3   OH222866   2.986   0.573  12.208  0.2331 -0.2277  0.2134
  484TIP3    H122867   3.026   0.623  12.136  1.2695 -2.7271 -1.0707
  484TIP3    H222868   2.911   0.626  12.235  1.8207  2.4668 -0.3329
  485TIP3   OH222869   4.555   3.862   4.036 -0.3201 -0.6727 -0.0402
  485TIP3    H122870   4.487   3.834   4.097  0.7142  0.0622  1.5148
  485TIP3    H222871   4.596   3.781   4.006  0.4023 -1.0083  1.7535
  486TIP3   OH222872   4.747   5.978   0.326  0.4370 -0.3051 -0.3464
  486TIP3    H122873   4.824   5.987   0.383  0.1145  0.3972 -0.0079
  486TIP3    H222874   4.675   5.957   0.386  0.4279 -1.3704 -0.7064
  487TIP3   OH222875   4.846   2.962   6.459 -0.7576  0.1176  0.1420
  487TIP3    H122876   4.806   2.876   6.449  0.9645 -0.7130  0.1022
  487TIP3    H222877   4.935   2.944   6.489 -0.6450  1.9238  1.0359
  488TIP3   OH222878   5.942   4.154   1.589  0.1380  0.2552 -0.7740
  488TIP3    H122879   6.018   4.096   1.597 -0.1005  0.0028 -0.2568
  488TIP3    H222880   5.973   4.239   1.621 -0.0934 -0.1205  0.4897
  489TIP3   OH222881   3.471   3.549   6.844  0.3190 -0.2516 -0.6424
  489TIP3    H122882   3.441   3.632   6.805 -0.2077  0.4581  1.1605
  489TIP3    H222883   3.403   3.527   6.908  2.4975  0.2348  2.0223
  490TIP3   OH222884   4.781   1.197  13.027 -0.3698  0.0185  0.2939
  490TIP3    H122885   4.817   1.283  13.003 -1.2921 -0.2099 -2.1875
  490TIP3    H222886   4.857   1.140  13.034  0.1299  0.6851  0.4039
  491TIP3   OH222887   4.062   0.913  12.794  0.2812  0.1594 -0.2308
  491TIP3    H122888   3.972   0.936  12.817 -0.1212 -1.0532 -0.5060
  491TIP3    H222889   4.106   0.997  12.778 -0.7982  0.7601 -0.0887
  492TIP3   OH222890   2.988   6.419   5.440  0.5335 -0.1501  0.3051
  492TIP3    H122891   3.019   6.421   5.350  1.7622  1.2665  0.7242
  492TIP3    H222892   2.892   6.413   5.432  0.6045  0.2894 -1.0958
  493TIP3   OH222893   0.217   0.527   2.623 -0.4518  0.1623 -0.0196
  493TIP3    H122894   0.280   0.561   2.559  0.8910  1.4426  1.8882
  493TIP3    H222895   0.251   0.441   2.647  1.3819  1.3614  1.9419
  494TIP3   OH222896   4.615   4.273  11.538 -0.6504 -0.6097  0.2027
  494TIP3    H122897   4.594   4.188  11.501 -0.2856 -0.1898 -1.0586
  494TIP3    H222898   4.553   4.333  11.496  0.0424 -0.0591 -0.0647
  495TIP3   OH222899   0.479   5.168   2.903  0.6187 -0.1715 -0.0792
  495TIP3    H122900   0.547   5.100   2.903  0.0416 -0.8429  2.1273
  495TIP3    H222901   0.504   5.226   2.975  0.6421  1.5186 -1.4005
  496TIP3   OH222902   4.841   0.142  14.825  0.0727 -0.2741  0.2847
  496TIP3    H122903   4.770   0.179  14.878  0.6595 -0.8108  1.4757
  496TIP3    H222904   4.916   0.199  14.840  0.1659 -0.2596 -0.2092
  497TIP3   OH222905   3.000   2.140  15.934  0.0624 -0.4571 -0.1594
  497TIP3    H122906   3.054   2.217  15.953  0.6605 -0.5946 -1.2136
  497TIP3    H222907   2.915   2.160  15.973 -0.0834  1.1611 -1.2230
  498TIP3   OH222908   5.815   6.460  13.263  0.1105  0.5472  0.1829
  498TIP3    H122909   5.795   6.549  13.233  0.0542  1.3192  2.3194
  498TIP3    H222910   5.855   6.473  13.349  0.5227 -1.4889  0.3333
  499TIP3   OH222911   4.101   3.964   5.620  0.8971  0.3804  0.0976
  499TIP3    H122912   4.085   3.988   5.711 -2.0885 -1.0985  0.0479
  499TIP3    H222913   4.166   3.893   5.625 -0.1043 -0.4949  1.1931
  500TIP3   OH222914   0.100   3.225  16.317 -0.2929  0.3229 -0.1149
  500TIP3    H122915   0.109   3.317  16.292 -0.5811  0.1419 -0.9299
  500TIP3    H222916   0.099   3.178  16.233  2.1157 -0.6373  0.3042
  501TIP3   OH222917   2.430   5.426   1.433  0.5455  0.0877 -0.0950
  501TIP3    H122918   2.454   5.471   1.514  1.8034  0.9973 -0.9391
  501TIP3    H222919   2.342   5.392   1.449  0.4864  0.8850  1.3858
  502TIP3   OH222920   6.550   5.876  11.253  0.3009  0.2616  0.0035
  502TIP3    H122921   6.461   5.911  11.262  0.2488  0.6331 -1.7456
  502TIP3    H222922   6.537   5.785  11.225  0.4889  0.0622  0.5347
  503TIP3   OH222923   1.160   6.632  13.746 -0.1678  0.4253  0.0888
  503TIP3    H122924   1.213   6.657  13.823  0.3578 -0.9857  0.2203
  503TIP3    H222925   1.223   6.590  13.687 -0.9107 -0.0950 -0.3388
  504TIP3   OH222926   5.633   5.689   5.448  0.2571  0.3566 -0.3667
  504TIP3    H122927   5.694   5.714   5.517  0.9150 -1.3732 -0.2476
  504TIP3    H222928   5.687   5.689   5.368  0.0140  0.4169 -0.5304
  505TIP3   OH222929   5.838   4.931   5.810 -0.5514 -0.2435 -0.2701
  505TIP3    H122930   5.772   5.000   5.804 -0.6926 -0.2182  1.3800
  505TIP3    H222931   5.900   4.962   5.875  0.1589 -1.0537 -0.5397
  506TIP3   OH222932   2.951   5.322   2.727 -0.1115  0.5232 -0.5909
  506TIP3    H122933   2.994   5.383   2.785 -0.2883 -1.5487  1.9000
  506TIP3    H222934   2.997   5.239   2.740 -0.4946 -0.1820 -3.0815
  507TIP3   OH222935   4.690   5.860  11.339 -0.3320 -0.3295 -0.3986
  507TIP3    H122936   4.619   5.922  11.322  1.2758  1.3368 -1.4171
  507TIP3    H222937   4.705   5.866  11.434 -0.5804  0.4581 -0.3992
  508TIP3   OH222938   1.970   3.739   4.544  0.4606 -0.2548  0.2845
  508TIP3    H122939   1.899   3.759   4.604 -0.6986  0.0863 -1.1576
  508TIP3    H222940   1.934   3.672   4.486  0.3292  1.8349 -2.1807
  509TIP3   OH222941   3.255   6.190   4.595  0.1413  0.8420 -0.1402
  509TIP3    H122942   3.300   6.257   4.647  0.6399  1.1720 -0.9708
  509TIP3    H222943   3.306   6.110   4.609  0.0495  0.8361  0.1734
  510TIP3   OH222944   4.437   3.930  13.217 -0.3517  0.0674 -0.6512
  510TIP3    H122945   4.359   3.917  13.271 -0.1750 -0.7371 -0.5816
  510TIP3    H222946   4.494   3.857  13.239  0.2264  0.3914 -1.0518
  511TIP3   OH222947   3.811   5.486  15.881 -0.0712  0.7130  1.0189
  511TIP3    H122948   3.884   5.442  15.926  0.5299  0.0700 -0.5315
  511TIP3    H222949   3.824   5.579  15.900  1.6945  0.7026  0.0528
  512TIP3   OH222950   3.179   4.859  11.135 -0.5781  1.2140 -0.5780
  512TIP3    H122951   3.273   4.868  11.120 -0.7164  0.3452 -2.1722
  512TIP3    H222952   3.141   4.857  11.048 -1.6626 -2.2031 -0.1667
  513TIP3   OH222953   3.481   6.423  17.124  0.0630  0.5843 -0.5327
  513TIP3    H122954   3.527   6.406  17.042  1.1477  0.5808  0.0661
  513TIP3    H222955   3.550   6.444  17.187 -0.7359  0.3755  0.4400
  514TIP3   OH222956   5.137   5.602   5.696 -0.1435 -0.0642  0.1438
  514TIP3    H122957   5.216   5.553   5.718 -0.9010 -1.7245 -0.6986
  514TIP3    H222958   5.080   5.591   5.772 -0.5770 -1.0909 -0.3171
  515TIP3   OH222959   0.923   2.056  13.123 -0.3128  0.0055 -0.6512
  515TIP3    H122960   0.850   2.117  13.110  0.2397  0.7484 -0.3308
  515TIP3    H222961   0.882   1.970  13.124 -1.2037  0.4202 -0.3676
  516TIP3   OH222962   2.929   4.837   0.062 -0.2423 -0.4111  0.2370
  516TIP3    H122963   2.954   4.929   0.060  1.0673 -0.7499 -0.5238
  516TIP3    H222964   3.011   4.790   0.046 -0.7573 -1.7425  1.3494
  517TIP3   OH222965   6.586   4.655  11.295  0.0448 -0.1441 -0.5189
  517TIP3    H122966   6.659   4.714  11.314  0.4556 -0.9303  0.4652
  517TIP3    H222967   6.625   4.589  11.237  0.2206 -0.7388  0.2556
  518TIP3   OH222968   6.354   6.290  11.504  0.1562  0.0909 -0.0057
  518TIP3    H122969   6.336   6.373  11.459 -0.6531 -0.3500 -0.5399
  518TIP3    H222970   6.427   6.252  11.456  0.6936  0.5959  0.3944
  519TIP3   OH222971   3.973   4.898   4.996  0.2455  0.2456  0.1239
  519TIP3    H122972   4.037   4.958   4.959  0.4167 -0.0927 -0.1370
  519TIP3    H222973   4.025   4.825   5.030  0.0706  0.4353  0.8081
  520TIP3   OH222974   6.366   4.817  14.254  0.6566  0.2954 -0.2242
  520TIP3    H122975   6.337   4.897  14.296 -2.1147 -1.0955  0.7289
  520TIP3    H222976   6.307   4.806  14.180  1.4055 -0.5649 -0.7118
  521TIP3   OH222977   5.726   6.457  10.688 -0.2035 -0.3910  0.2321
  521TIP3    H122978   5.759   6.367  10.685 -0.0083 -0.2912 -0.9086
  521TIP3    H222979   5.749   6.488  10.775 -1.1674 -1.7821  1.0334
  522TIP3   OH222980   0.581   4.175  15.927 -0.3986  0.1125  0.0413
  522TIP3    H122981   0.645   4.219  15.871  2.7781 -0.1206  3.1466
  522TIP3    H222982   0.522   4.245  15.955 -0.4080  0.7162 -1.4041
  523TIP3   OH222983   5.989   5.785   5.587  0.3341  0.4231 -0.4183
  523TIP3    H122984   5.982   5.814   5.679  2.0422 -1.4579  0.3781
  523TIP3    H222985   6.018   5.863   5.540  0.5676  1.1283  0.8547
  524TIP3   OH222986   6.457   3.326  11.348 -0.1303  0.2112  0.8859
  524TIP3    H122987   6.484   3.405  11.395  0.0768 -0.8936  2.6878
  524TIP3    H222988   6.504   3.255  11.391  0.4484 -0.8233 -1.3330
  525TIP3   OH222989   1.255   6.176   4.737  0.0800 -0.3085  0.0087
  525TIP3    H122990   1.345   6.145   4.749 -0.9772 -3.9798 -0.3591
  525TIP3    H222991   1.235   6.223   4.818  2.6463  1.8573 -0.4352
  526TIP3   OH222992   1.148   2.288  12.294 -0.6321  0.1416  0.5628
  526TIP3    H122993   1.208   2.273  12.221 -0.4335  1.7953  0.3455
  526TIP3    H222994   1.102   2.369  12.271 -3.1186 -1.1572  0.6498
  527TIP3   OH222995   4.939   3.936   2.925 -0.8540 -0.2492 -0.3360
  527TIP3    H122996   5.013   3.921   2.867  0.4307  0.9680  0.9242
  527TIP3    H222997   4.909   4.025   2.903 -0.7147  0.0026  0.4585
  528TIP3   OH222998   1.159   4.208  13.359  0.0280  0.2816 -0.0655
  528TIP3    H122999   1.237   4.159  13.331 -1.3238 -1.6522 -0.6596
  528TIP3    H223000   1.180   4.235  13.449  1.0810 -0.9268  0.0989
  529TIP3   OH223001   1.854   2.731  16.882  0.3833  0.4241 -0.0959
  529TIP3    H123002   1.923   2.721  16.948  0.6741  0.8517 -0.3283
  529TIP3    H223003   1.864   2.822  16.851 -0.1357  0.4148 -0.2937
  530TIP3   OH223004   2.863   5.713   1.772  0.2151  0.2934  0.2483
  530TIP3    H123005   2.914   5.645   1.816  0.0175  0.6522  1.0428
  530TIP3    H223006   2.857   5.683   1.681  0.5841 -0.4805  0.4700
  531TIP3   OH223007   3.950   2.473  12.986 -0.0504 -0.4329 -0.7119
  531TIP3    H123008   3.881   2.490  12.922  0.0015 -1.2790 -1.0031
  531TIP3    H223009   4.024   2.444  12.933  0.9241  1.5077 -0.5133
  532TIP3   OH223010   6.413   3.790  14.021  0.6268  0.4872 -0.0923
  532TIP3    H123011   6.488   3.730  14.022  0.1388 -0.1413 -0.0683
  532TIP3    H223012   6.349   3.748  14.078 -0.3536  0.1933 -1.3579
  533TIP3   OH223013   3.645   1.998   5.651 -0.5414  0.5428  0.2019
  533TIP3    H123014   3.684   1.918   5.686 -2.9285 -0.4953  0.7324
  533TIP3    H223015   3.668   2.065   5.715  1.1356  0.2031 -0.0188
  534TIP3   OH223016   5.374   5.138  16.679 -0.6358 -0.2764  0.2347
  534TIP3    H123017   5.310   5.088  16.630  0.2333 -0.0367 -1.2009
  534TIP3    H223018   5.323   5.208  16.720 -1.3705 -0.4144 -0.4205
  535TIP3   OH223019   1.325   3.472  10.340 -0.5806  0.1278  0.6956
  535TIP3    H123020   1.343   3.390  10.293 -1.4614 -0.9526  2.1505
  535TIP3    H223021   1.358   3.455  10.429 -0.1249  1.6343  0.8300
  536TIP3   OH223022   6.254   2.049   3.674 -0.0136 -0.1348  0.4011
  536TIP3    H123023   6.290   2.040   3.586 -1.8538 -0.3393 -0.3889
  536TIP3    H223024   6.274   1.967   3.717  1.1689  0.0851  0.2910
  537TIP3   OH223025   0.791   4.172  13.472  0.0386  0.2156 -0.0858
  537TIP3    H123026   0.804   4.266  13.483 -2.2887  0.5249  0.5260
  537TIP3    H223027   0.790   4.137  13.561 -2.2414  0.1532 -0.0704
  538TIP3   OH223028   2.051   3.990   4.462  0.1539  0.2620  0.1364
  538TIP3    H123029   2.026   3.906   4.501  0.8507 -0.1591 -0.3096
  538TIP3    H223030   2.113   4.028   4.524 -1.4372  1.2719  1.2037
  539TIP3   OH223031   5.568   6.411   4.055  0.1107 -0.6435 -0.1255
  539TIP3    H123032   5.625   6.383   3.984  2.4561  1.4250  0.7848
  539TIP3    H223033   5.486   6.364   4.040  0.9993 -1.4512 -3.2838
  540TIP3   OH223034   0.224   1.329  12.566 -0.0118  0.4168 -0.4602
  540TIP3    H123035   0.317   1.309  12.559 -0.0712 -1.6477  2.6170
  540TIP3    H223036   0.184   1.283  12.493  1.2009 -0.3969 -0.6422
  541TIP3   OH223037   1.060   4.424  15.964  0.0056  0.0453 -0.2249
  541TIP3    H123038   1.025   4.461  16.045  2.7716 -0.8965  1.5311
  541TIP3    H223039   1.083   4.499  15.910 -3.6361  0.7010 -1.1109
  542TIP3   OH223040   3.233   1.370   4.137  0.1730  0.2288 -0.7924
  542TIP3    H123041   3.277   1.323   4.066 -0.7967 -1.9977 -0.0010
  542TIP3    H223042   3.240   1.311   4.212 -2.0272  0.8826 -0.0246
  543TIP3   OH223043   2.188   3.370   3.698 -0.5399 -0.6000  0.4449
  543TIP3    H123044   2.144   3.303   3.750  1.2043 -2.4355 -0.2860
  543TIP3    H223045   2.226   3.429   3.762  1.6973 -2.9058  1.4219
  544TIP3   OH223046   3.350   6.415  13.463 -0.1412  0.4503  0.5249
  544TIP3    H123047   3.262   6.379  13.471  0.4196 -0.8798  0.9274
  544TIP3    H223048   3.369   6.414  13.369 -1.0354  2.0017  0.2922
  545TIP3   OH223049   4.084   1.449  13.161 -0.4928  0.3693  0.2535
  545TIP3    H123050   4.158   1.436  13.220  1.6893  1.7406 -1.9833
  545TIP3    H223051   4.059   1.540  13.173 -0.9621  0.2724  0.0550
  546TIP3   OH223052   3.737   3.163  16.025 -0.2089  0.1946  0.2735
  546TIP3    H123053   3.655   3.124  15.996  1.0397 -2.1909 -0.2751
  546TIP3    H223054   3.791   3.089  16.053  0.5483  1.8903  4.0463
  547TIP3   OH223055   0.747   2.499  11.804  0.2955 -0.1920  0.1357
  547TIP3    H123056   0.707   2.575  11.846  0.2611  0.0618 -0.3485
  547TIP3    H223057   0.739   2.517  11.710  1.0723 -0.3827  0.0272
  548TIP3   OH223058   5.044   1.557  15.925  0.1672 -0.0759 -0.0519
  548TIP3    H123059   5.005   1.486  15.975 -2.4232  0.3150 -1.3425
  548TIP3    H223060   5.016   1.637  15.969  0.2838  0.2036 -0.4695
  549TIP3   OH223061   1.008   3.513  11.037 -0.1487 -0.1993  0.2192
  549TIP3    H123062   0.935   3.542  10.983 -0.1695 -0.8750 -0.1141
  549TIP3    H223063   1.078   3.493  10.975  0.1747  0.0169  0.5091
  550TIP3   OH223064   2.962   5.311   2.443  0.2358 -0.0527 -0.3713
  550TIP3    H123065   2.943   5.282   2.532  1.8775 -2.7053 -0.7641
  550TIP3    H223066   2.887   5.282   2.392  0.4354 -0.8563 -0.2265
  551TIP3   OH223067   0.430   6.285  16.020  0.1613  0.3513  0.0513
  551TIP3    H123068   0.365   6.298  15.952  1.0033  1.9361 -0.4954
  551TIP3    H223069   0.513   6.277  15.973  0.4074 -1.8941  0.7137
  552TIP3   OH223070   1.180   0.269  16.387  0.0915 -0.1621 -0.0481
  552TIP3    H123071   1.127   0.232  16.458  1.1372  2.4933  2.3346
  552TIP3    H223072   1.132   0.347  16.360  0.2829 -0.5303 -1.5208
  553TIP3   OH223073   6.686   3.333  16.008  0.2477 -0.7069 -0.2119
  553TIP3    H123074   6.661   3.413  16.054  0.4063 -0.2176 -0.9480
  553TIP3    H223075   6.672   3.354  15.916 -1.1995 -2.0535 -0.3485
  554TIP3   OH223076   0.084   5.269  15.680  0.2413 -0.1384 -0.0734
  554TIP3    H123077   0.163   5.214  15.687  0.1380 -0.2171  0.5327
  554TIP3    H223078   0.080   5.293  15.588  2.3041  1.8134  0.2293
  555TIP3   OH223079   1.277   3.578   1.976 -0.5351 -0.2891 -1.0372
  555TIP3    H123080   1.328   3.625   2.042 -0.8540 -1.1986 -0.1193
  555TIP3    H223081   1.304   3.617   1.893  0.4084  0.3939 -0.4301
  556TIP3   OH223082   1.006   0.521   2.234 -0.0716 -0.1776  0.1839
  556TIP3    H123083   1.040   0.538   2.146 -2.1744  1.3143 -0.4243
  556TIP3    H223084   0.964   0.604   2.259  1.0210 -0.3450  2.8881
  557TIP3   OH223085   5.888   1.320  10.999 -0.2261 -0.1722  0.5804
  557TIP3    H123086   5.792   1.322  11.003 -0.3573 -1.2712 -1.1328
  557TIP3    H223087   5.908   1.299  10.908  1.5917 -2.7398  1.4744
  558TIP3   OH223088   5.483   4.691  16.469 -0.0688  0.0234 -0.4113
  558TIP3    H123089   5.509   4.627  16.535  1.3488 -0.5008 -1.4475
  558TIP3    H223090   5.544   4.764  16.481 -1.2454  0.9345  0.3159
  559TIP3   OH223091   1.035   3.665  13.840  0.1004  0.1536  0.1373
  559TIP3    H123092   1.024   3.689  13.749 -0.5876  1.9351  0.6512
  559TIP3    H223093   1.005   3.741  13.889  1.7561 -0.1999  1.8352
  560TIP3   OH223094   2.897   6.127   3.084 -0.4583 -0.2444 -0.4637
  560TIP3    H123095   2.838   6.118   3.009  0.0215 -0.0444 -0.8684
  560TIP3    H223096   2.840   6.154   3.156 -1.2824 -2.3825 -0.2371
  561TIP3   OH223097   1.685   4.232  15.045  0.2830  0.3640 -0.1205
  561TIP3    H123098   1.718   4.315  15.077 -1.0924  0.7314  0.4332
  561TIP3    H223099   1.653   4.252  14.956 -1.5854  0.8862  0.6159
  562TIP3   OH223100   5.751   0.808   0.221  0.1866  0.3070 -0.7751
  562TIP3    H123101   5.703   0.820   0.139  1.3682 -0.5407 -1.6210
  562TIP3    H223102   5.840   0.836   0.201  0.3303  0.7563  0.4331
  563TIP3   OH223103   1.937   2.175  16.531 -0.0869 -0.6710 -0.5455
  563TIP3    H123104   1.914   2.181  16.439 -0.0324 -1.3525 -0.6076
  563TIP3    H223105   1.990   2.252  16.548 -2.1249  0.8044 -0.4682
  564TIP3   OH223106   5.813   2.155  12.039  0.2038 -0.8253 -0.3457
  564TIP3    H123107   5.748   2.186  11.975 -1.7924 -1.8042  1.0819
  564TIP3    H223108   5.807   2.059  12.035  1.3633 -0.9312  0.0589
  565TIP3   OH223109   1.966   4.119   2.663  0.1238 -0.1542  0.1961
  565TIP3    H123110   1.892   4.069   2.699 -0.4174  0.9230  0.6050
  565TIP3    H223111   1.926   4.187   2.610  0.8292  0.3461  0.2931
  566TIP3   OH223112   0.391   0.458   2.893  0.1654 -0.0714 -0.1339
  566TIP3    H123113   0.346   0.464   2.977  1.2950  1.4672  0.3954
  566TIP3    H223114   0.456   0.528   2.895 -0.7052  0.9479 -2.8435
  567TIP3   OH223115   1.811   4.286   3.415 -0.0497  0.4344 -0.3463
  567TIP3    H123116   1.872   4.305   3.486 -0.0609 -0.6708 -0.0197
  567TIP3    H223117   1.743   4.353   3.423 -0.0387  0.3379  0.6789
  568TIP3   OH223118   0.238   0.799   5.168  0.1339  0.6993  0.3169
  568TIP3    H123119   0.273   0.779   5.081  0.1315 -2.2125  0.9179
  568TIP3    H223120   0.302   0.762   5.229 -1.7048 -0.6668  1.4870
  569TIP3   OH223121   2.606   6.438   5.603  0.8245  0.2235 -0.1066
  569TIP3    H123122   2.686   6.426   5.553  0.7702  0.3982 -0.2374
  569TIP3    H223123   2.535   6.425   5.539  0.7632  1.2544 -0.2691
  570TIP3   OH223124   2.182   2.499  11.674  0.8982 -0.5317  0.1541
  570TIP3    H123125   2.251   2.493  11.740 -1.1409 -0.1372  2.4539
  570TIP3    H223126   2.157   2.408  11.657  1.2695 -0.6247  0.1072
  571TIP3   OH223127   5.274   2.677  13.051 -0.1649  0.2840 -0.1729
  571TIP3    H123128   5.270   2.625  12.971 -0.3505 -0.8047  0.5206
  571TIP3    H223129   5.221   2.755  13.031 -1.1378 -0.4961 -0.7384
  572TIP3   OH223130   2.550   3.691   3.241  0.4254 -0.4869  0.4017
  572TIP3    H123131   2.476   3.631   3.231  0.7916 -0.8254 -0.4853
  572TIP3    H223132   2.627   3.633   3.248  0.6697 -0.1347  0.6777
  573TIP3   OH223133   4.193   0.287   4.245 -0.2978  0.7410  0.7200
  573TIP3    H123134   4.137   0.344   4.296 -1.1900 -0.1064  0.7250
  573TIP3    H223135   4.220   0.218   4.306 -3.0299 -1.4567 -0.2916
  574TIP3   OH223136   4.377   2.785  15.972  0.0061 -0.0089  0.5402
  574TIP3    H123137   4.442   2.842  15.931  1.7139 -1.1293  1.6099
  574TIP3    H223138   4.328   2.748  15.898  2.3538 -1.2094 -0.5123
  575TIP3   OH223139   2.610   5.114  15.519 -0.3360  0.5231 -0.2588
  575TIP3    H123140   2.532   5.139  15.470 -0.7876 -1.2231 -0.4826
  575TIP3    H223141   2.578   5.094  15.607 -0.1653 -0.2081 -0.3541
  576TIP3   OH223142   5.853   5.883  15.086  0.1081  0.3235  0.0182
  576TIP3    H123143   5.817   5.796  15.103  0.6190  0.2447  0.7896
  576TIP3    H223144   5.939   5.866  15.048  0.2015  0.4913  0.1551
  577TIP3   OH223145   4.154   5.825   0.149 -0.0735  0.7824 -0.1622
  577TIP3    H123146   4.233   5.833   0.203 -0.1578  0.5648 -0.0044
  577TIP3    H223147   4.083   5.816   0.212  0.0257 -1.3477 -0.2880
  578TIP3   OH223148   2.813   2.462   2.581 -0.0262 -0.4534 -0.1049
  578TIP3    H123149   2.739   2.519   2.559 -1.0743 -1.4439  0.7470
  578TIP3    H223150   2.879   2.482   2.515 -1.4738 -0.3369 -1.5664
  579TIP3   OH223151   6.373   4.135   1.957 -0.4814 -0.1237 -0.5451
  579TIP3    H123152   6.346   4.051   1.995 -0.0997  0.5037  1.2147
  579TIP3    H223153   6.382   4.117   1.864 -2.0012 -1.6268 -0.4641
  580TIP3   OH223154   4.978   3.539   1.088 -0.3839 -0.1643  0.3834
  580TIP3    H123155   5.025   3.571   1.011 -0.5038  0.2234  0.4673
  580TIP3    H223156   5.047   3.510   1.148 -0.3370 -2.5902 -0.7511
  581TIP3   OH223157   3.498   2.991   2.153  0.4773  0.1113  0.2516
  581TIP3    H123158   3.412   2.948   2.150  1.0711 -1.1142 -0.2696
  581TIP3    H223159   3.544   2.947   2.224  0.7530  0.6126  0.3866
  582TIP3   OH223160   0.678   6.438   3.837  0.4008 -0.5003  0.2707
  582TIP3    H123161   0.684   6.355   3.884  2.0147  0.2552  1.5287
  582TIP3    H223162   0.596   6.432   3.787 -0.5819 -2.0068  1.9358
  583TIP3   OH223163   3.923   2.761   0.843 -0.0461 -0.1670 -0.1444
  583TIP3    H123164   3.959   2.849   0.854 -1.6120  0.5998 -0.7874
  583TIP3    H223165   3.998   2.703   0.851  0.8320  1.1337  1.5932
  584TIP3   OH223166   2.810   3.367  13.196  0.6362 -0.1836 -0.1038
  584TIP3    H123167   2.785   3.298  13.135 -2.5198  0.9874 -0.3439
  584TIP3    H223168   2.906   3.371  13.192  0.6600 -1.5998 -3.3066
  585TIP3   OH223169   0.631   1.673  13.989  0.1552 -0.3941 -0.4710
  585TIP3    H123170   0.712   1.673  14.039  1.4697  3.2325 -2.2341
  585TIP3    H223171   0.656   1.640  13.903 -0.1412  0.8395 -1.0549
  586TIP3   OH223172   4.319   4.946   3.018  0.5255  0.9349 -0.2796
  586TIP3    H123173   4.404   4.913   2.986  0.4913 -1.0015  1.4292
  586TIP3    H223174   4.257   4.922   2.949  0.9547 -0.1810 -0.3019
  587TIP3   OH223175   5.679   3.090   3.835 -0.3138 -0.0870  0.1524
  587TIP3    H123176   5.595   3.132   3.850  0.5456  0.7993  3.0210
  587TIP3    H223177   5.740   3.138   3.891  1.9940 -1.1105 -1.3489
  588TIP3   OH223178   4.097   6.313  16.470  0.3676 -0.2641 -0.4249
  588TIP3    H123179   4.023   6.263  16.506  2.5895 -2.9839  0.8017
  588TIP3    H223180   4.090   6.301  16.376 -1.3739  0.5600 -0.4411
  589TIP3   OH223181   4.657   2.979  13.240 -0.0455  0.0789 -0.0270
  589TIP3    H123182   4.596   2.949  13.308  0.6343 -1.8688 -0.2170
  589TIP3    H223183   4.683   2.899  13.195 -1.2982  1.3892 -3.3326
  590TIP3   OH223184   0.914   3.350   0.132 -0.6553  0.8868 -0.4530
  590TIP3    H123185   0.881   3.271   0.090 -0.2921  0.5996 -0.2023
  590TIP3    H223186   0.910   3.330   0.226  1.8792  0.1555 -0.4283
  591TIP3   OH223187   3.450   0.499  15.207 -0.3432  0.4634  0.0899
  591TIP3    H123188   3.399   0.450  15.272 -0.6013 -1.0927 -1.2359
  591TIP3    H223189   3.405   0.484  15.124  1.2133  0.5894 -0.8115
  592TIP3   OH223190   0.449   5.733  15.346  0.6033  0.0841 -0.3284
  592TIP3    H123191   0.434   5.809  15.402  0.3325  0.2655 -0.6463
  592TIP3    H223192   0.454   5.659  15.407 -0.9055  0.1051 -0.1362
  593TIP3   OH223193   2.456   5.161  16.152  0.4097 -0.0550 -0.2321
  593TIP3    H123194   2.436   5.148  16.245  0.7197  0.8423 -0.0283
  593TIP3    H223195   2.548   5.136  16.144  0.4254  0.0127 -0.2624
  594TIP3   OH223196   4.086   4.624  13.803 -0.4047  0.5499  0.2316
  594TIP3    H123197   4.117   4.711  13.777 -0.2408  0.0475 -1.3870
  594TIP3    H223198   4.165   4.570  13.806 -0.4890  0.4562  1.3583
  595TIP3   OH223199   5.578   1.913  15.951  0.4513  0.0567 -0.4908
  595TIP3    H123200   5.527   1.973  15.897  0.2320  0.7615  0.4632
  595TIP3    H223201   5.653   1.965  15.980  1.5394 -0.8538 -1.5651
  596TIP3   OH223202   3.780   0.006   1.538 -0.0683 -0.0301  0.3416
  596TIP3    H123203   3.714   0.033   1.475 -0.8362  2.3227  1.9747
  596TIP3    H223204   3.810   0.088   1.578  0.8450 -1.3251  2.5439
  597TIP3   OH223205   1.909   2.757   0.292 -0.2982 -0.1967 -0.2364
  597TIP3    H123206   1.846   2.791   0.356 -0.5085 -0.5817 -0.2391
  597TIP3    H223207   1.898   2.662   0.295  0.9361 -0.3459  0.4427
  598TIP3   OH223208   4.142   6.498   1.322 -0.0542 -0.5749  0.2489
  598TIP3    H123209   4.113   6.564   1.384 -0.4011 -0.5454  0.0578
  598TIP3    H223210   4.220   6.535   1.281 -1.4364  0.6670 -1.4050
  599TIP3   OH223211   2.572   3.023   5.746 -0.1298  0.9990 -0.6566
  599TIP3    H123212   2.500   2.976   5.703  0.7413 -2.5201  1.3584
  599TIP3    H223213   2.534   3.056   5.828 -0.0658  1.4671 -0.8110
  600TIP3   OH223214   0.695   6.206  15.898 -0.4223 -0.9220 -0.7439
  600TIP3    H123215   0.780   6.206  15.853 -0.7579 -1.0896 -1.3934
  600TIP3    H223216   0.639   6.150  15.844 -1.2749  0.1142 -0.9720
  601TIP3   OH223217   3.741   1.571  13.267  0.6268  0.8583 -0.5177
  601TIP3    H123218   3.674   1.562  13.333  0.8894  1.2815 -0.1869
  601TIP3    H223219   3.823   1.579  13.316  0.7155  2.1788 -0.8479
  602TIP3   OH223220   0.417   3.067   4.498 -0.5951 -0.2048 -0.0512
  602TIP3    H123221   0.490   3.006   4.509 -0.8006 -0.6313 -0.9850
  602TIP3    H223222   0.347   3.014   4.460 -1.0609  0.4264 -0.0802
  603TIP3   OH223223   3.274   5.684   3.484 -0.4854  0.0489  0.4282
  603TIP3    H123224   3.332   5.753   3.516 -0.4761  0.2471 -0.0212
  603TIP3    H223225   3.235   5.719   3.404  0.0974 -0.7490 -0.2209
  604TIP3   OH223226   1.887   6.751   5.522 -0.1475  0.1975  0.5081
  604TIP3    H123227   1.918   6.835   5.489 -2.1249  1.0178  0.6250
  604TIP3    H223228   1.800   6.769   5.557 -1.4199 -2.2255 -1.1031
  605TIP3   OH223229   0.494   4.982  13.056 -0.4600 -0.1307  0.0981
  605TIP3    H123230   0.443   4.906  13.086  0.5102 -1.3142 -1.1008
  605TIP3    H223231   0.441   5.058  13.079 -0.6111 -1.0173  3.0854
  606TIP3   OH223232   5.956   1.942   0.041  0.1320  0.1889 -0.3465
  606TIP3    H123233   6.048   1.920   0.054 -0.2683 -1.0882  0.6097
  606TIP3    H223234   5.957   2.013  -0.022  1.8010  0.6023  0.0862
  607TIP3   OH223235   2.481   6.371  13.954  0.2213  0.1751 -0.4252
  607TIP3    H123236   2.540   6.323  14.012 -0.0520 -1.7689 -1.6633
  607TIP3    H223237   2.453   6.446  14.005  1.1587 -0.6575  1.4002
  608TIP3   OH223238   0.048   2.064  11.967 -0.5928  0.0147 -0.1088
  608TIP3    H123239   0.023   1.981  11.926  1.3659 -0.9581  0.5201
  608TIP3    H223240   0.052   2.127  11.895 -2.4794 -0.2928 -0.5435
  609TIP3   OH223241   0.916   3.119  11.620  0.7636  0.0705 -0.5830
  609TIP3    H123242   0.859   3.148  11.549  0.4524 -1.1350 -0.8431
  609TIP3    H223243   0.889   3.173  11.695 -0.4617 -0.2022 -0.8034
  610TIP3   OH223244   3.940   3.969  10.932  0.2790  0.2449 -0.3057
  610TIP3    H123245   3.884   3.933  11.000  0.4303 -1.3817 -1.0121
  610TIP3    H223246   3.965   3.894  10.878  2.8994  0.9461 -0.1995
  611TIP3   OH223247   6.019   2.183   3.888  0.1248  0.2464  0.4482
  611TIP3    H123248   5.990   2.259   3.837  1.7475  0.2240 -0.5676
  611TIP3    H223249   6.115   2.187   3.885  0.2414 -1.1626  1.4246
  612TIP3   OH223250   4.428   4.941   1.722 -0.0982  0.1592  0.3656
  612TIP3    H123251   4.394   5.012   1.776  0.1941  0.3267  0.3362
  612TIP3    H223252   4.521   4.937   1.744  0.0558  0.3278 -0.2324
  613TIP3   OH223253   3.719   1.592   5.597 -0.0767 -0.3195 -0.2340
  613TIP3    H123254   3.631   1.628   5.588 -0.5231 -1.1032  0.8306
  613TIP3    H223255   3.707   1.498   5.605  1.0014 -0.6360 -1.8170
  614TIP3   OH223256   1.867   0.048   0.102 -0.4181 -0.4998  0.0123
  614TIP3    H123257   1.923   0.125   0.090 -0.8861 -0.3925 -1.8375
  614TIP3    H223258   1.908  -0.002   0.172  1.4267  0.0958 -0.5963
  615TIP3   OH223259   6.057   2.883   0.732 -0.5936  0.4947 -0.2927
  615TIP3    H123260   6.044   2.976   0.711  0.9279  0.7430 -0.2009
  615TIP3    H223261   6.124   2.853   0.671 -0.7722 -0.4475 -0.0436
  616TIP3   OH223262   0.934   1.737   1.510  0.1899 -0.1445 -0.2313
  616TIP3    H123263   0.847   1.762   1.480  0.5308 -0.1396 -1.2202
  616TIP3    H223264   0.991   1.809   1.483  0.5509 -0.2614  0.2008
  617TIP3   OH223265   0.976   3.316  15.940  0.7344  0.3201  0.2883
  617TIP3    H123266   1.020   3.313  16.025  1.2263 -0.7703  0.0238
  617TIP3    H223267   1.028   3.257  15.885 -0.7588 -0.6084 -0.1847
  618TIP3   OH223268   0.840   3.820   0.866 -0.0472  0.5228  0.2674
  618TIP3    H123269   0.862   3.735   0.828  0.7264  0.2160  1.3219
  618TIP3    H223270   0.825   3.878   0.791 -1.2609 -0.6995 -0.4633
  619TIP3   OH223271   4.112   2.167  12.957 -0.0849  0.4064 -0.3483
  619TIP3    H123272   4.078   2.080  12.935  0.8212  0.2625 -1.2167
  619TIP3    H223273   4.052   2.199  13.025 -0.0229 -1.1641  0.4829
  620TIP3   OH223274   3.507   3.020   4.382 -0.5766 -0.6411  0.0910
  620TIP3    H123275   3.523   3.090   4.445 -0.7964 -1.4483  1.0791
  620TIP3    H223276   3.532   3.057   4.297 -0.0792  0.4014  0.6768
  621TIP3   OH223277   4.742   6.777   0.169  0.3094  0.3174 -0.2106
  621TIP3    H123278   4.737   6.735   0.083  1.6234  1.1994 -0.7522
  621TIP3    H223279   4.803   6.850   0.156  0.6564  0.3640  1.5146
  622TIP3   OH223280   2.366   6.756  13.346 -0.5778 -0.4027  0.0691
  622TIP3    H123281   2.448   6.792  13.379 -0.1988 -3.3182  2.7726
  622TIP3    H223282   2.303   6.826  13.358  0.8640  0.8027  1.1054
  623TIP3   OH223283   2.258   1.712  14.127 -0.3887  0.9285 -0.3133
  623TIP3    H123284   2.325   1.781  14.134  0.3638  0.0722  1.4822
  623TIP3    H223285   2.189   1.739  14.188  1.3495 -1.3559  2.9490
  624TIP3   OH223286   0.547   5.053  11.188 -0.4473  0.0370 -0.2196
  624TIP3    H123287   0.491   5.131  11.183 -0.9405 -0.2754  0.2606
  624TIP3    H223288   0.589   5.049  11.102  0.8644  1.7526  0.2870
  625TIP3   OH223289   5.648   4.459   0.406 -0.0589 -0.1258  0.0592
  625TIP3    H123290   5.729   4.438   0.360 -0.3701 -0.3261 -0.3969
  625TIP3    H223291   5.601   4.519   0.348 -0.1871  0.0869  0.3747
  626TIP3   OH223292   0.655   5.351  16.890 -0.3319 -0.3640 -0.3034
  626TIP3    H123293   0.563   5.374  16.873 -0.5570 -1.0714 -0.0720
  626TIP3    H223294   0.703   5.433  16.876 -0.8210 -0.2959 -1.7975
  627TIP3   OH223295   4.984   3.334   3.618  0.5244 -1.0524  0.2365
  627TIP3    H123296   5.058   3.340   3.678  2.3227 -1.4499 -1.8223
  627TIP3    H223297   4.967   3.240   3.609 -1.2582 -0.9503  1.7748
  628TIP3   OH223298   0.559   3.936  11.646 -0.5410  0.1441  0.3267
  628TIP3    H123299   0.502   3.934  11.569 -0.7660  2.4920  0.3666
  628TIP3    H223300   0.628   3.998  11.624  0.0342  0.0007  1.6127
  629TIP3   OH223301   1.352   4.520  12.708  0.0912  0.3358 -0.3142
  629TIP3    H123302   1.264   4.516  12.673  0.1256 -0.5432 -0.3319
  629TIP3    H223303   1.360   4.441  12.762  0.4766  0.9873  0.6185
  630TIP3   OH223304   4.623   5.500   1.090 -0.9791  0.2519 -0.5812
  630TIP3    H123305   4.615   5.548   1.007  0.2351  0.2375 -0.7313
  630TIP3    H223306   4.553   5.435   1.088 -1.0261  0.3228 -1.5536
  631TIP3   OH223307   2.698   0.491   3.177 -0.0459  0.4764 -0.2596
  631TIP3    H123308   2.634   0.555   3.205 -2.4382 -2.2754  1.0757
  631TIP3    H223309   2.658   0.449   3.100  1.5298  0.6496 -1.2194
  632TIP3   OH223310   5.772   5.908   3.036 -0.1054 -0.4918  0.0691
  632TIP3    H123311   5.762   5.921   2.942  0.1454  0.3820  0.1538
  632TIP3    H223312   5.730   5.985   3.075  0.5637 -0.4132  0.6459
  633TIP3   OH223313   5.940   1.032   5.190  0.3292  0.5772  0.2656
  633TIP3    H123314   5.881   0.978   5.242  0.6918  0.1093  0.1917
  633TIP3    H223315   5.981   1.091   5.254 -0.2886  0.9823  0.3043
  634TIP3   OH223316   4.255   5.532   2.318 -0.0463 -0.5534 -1.1820
  634TIP3    H123317   4.201   5.492   2.251 -0.1661 -1.5648 -0.5116
  634TIP3    H223318   4.235   5.483   2.398  1.7404 -0.8632 -0.8814
  635TIP3   OH223319   4.670   5.015   5.368 -0.4016  0.0430  0.3024
  635TIP3    H123320   4.729   5.058   5.305 -1.5471  0.0029 -0.8338
  635TIP3    H223321   4.637   4.938   5.321 -1.9584  0.4840  0.6278
  636TIP3   OH223322   5.993   5.490   2.366  0.1563  0.3686 -0.6487
  636TIP3    H123323   6.005   5.412   2.421  0.3329  0.2499 -0.8556
  636TIP3    H223324   6.081   5.514   2.339  0.3208  1.7375  0.9147
  637TIP3   OH223325   4.279   0.616  13.637  0.4313 -0.5948  0.0512
  637TIP3    H123326   4.255   0.686  13.577 -0.2852 -0.6315  0.2839
  637TIP3    H223327   4.374   0.623  13.646  0.6340 -0.9755 -1.5522
  638TIP3   OH223328   5.438   3.956   4.376  0.4908  0.2176  0.0903
  638TIP3    H123329   5.367   4.012   4.344 -0.2349 -1.0641 -0.6420
  638TIP3    H223330   5.437   3.968   4.471  0.0224  1.0521 -0.0087
  639TIP3   OH223331   3.111   4.148   5.198 -0.1298  0.3248 -0.1534
  639TIP3    H123332   3.128   4.063   5.157  4.0215  0.1739  1.4370
  639TIP3    H223333   3.033   4.180   5.153 -0.1837 -2.9776 -2.8964
  640TIP3   OH223334   3.569   6.647  16.256  0.1894  0.0362 -0.3123
  640TIP3    H123335   3.590   6.554  16.264  0.1066 -0.0108 -0.6185
  640TIP3    H223336   3.520   6.668  16.336 -0.1849 -0.2919 -0.4536
  641TIP3   OH223337   4.661   4.584   4.956  0.2151  0.2074 -0.1857
  641TIP3    H123338   4.659   4.620   5.044 -2.4882  2.2382 -0.9435
  641TIP3    H223339   4.619   4.498   4.965 -0.5837  0.6446  0.4611
  642TIP3   OH223340   1.631   4.972   5.863  0.1710 -0.2279  0.0523
  642TIP3    H123341   1.649   5.061   5.894  1.5179 -0.4178 -0.1624
  642TIP3    H223342   1.546   4.951   5.903 -0.5339  1.4140 -0.4791
  643TIP3   OH223343   3.851   4.012   2.602  0.0026  0.0004 -0.5300
  643TIP3    H123344   3.876   4.073   2.533 -1.1663  1.5357  0.3316
  643TIP3    H223345   3.822   4.068   2.674 -2.0382 -1.5563 -0.0362
  644TIP3   OH223346   4.086   1.123   2.398  0.1845 -0.4286 -0.1290
  644TIP3    H123347   4.035   1.198   2.428  0.4647  0.3033 -1.4058
  644TIP3    H223348   4.177   1.154   2.400  0.2618 -0.5759 -1.0732
  645TIP3   OH223349   1.082   0.099  15.439  0.6565 -0.1355 -0.0044
  645TIP3    H123350   1.142   0.141  15.376  0.5979 -0.8946 -0.5737
  645TIP3    H223351   0.995   0.125  15.409  0.5074 -2.0696 -1.4553
  646TIP3   OH223352   4.717   2.615   0.390  0.0429  0.0173 -0.6682
  646TIP3    H123353   4.669   2.696   0.370  0.0371  0.2776  0.3201
  646TIP3    H223354   4.798   2.645   0.432  1.2935 -0.4017 -2.6618
  647TIP3   OH223355   3.591   1.304   2.482 -0.3699 -0.4600 -0.3651
  647TIP3    H123356   3.636   1.285   2.399 -4.4132  0.1808 -2.9589
  647TIP3    H223357   3.553   1.220   2.508  0.4208 -0.5308  0.6395
  648TIP3   OH223358   4.816   1.570   0.462  0.0183  0.0786  0.0116
  648TIP3    H123359   4.860   1.485   0.471 -1.2643 -0.6533 -0.2999
  648TIP3    H223360   4.861   1.612   0.389  1.4072  0.1723  0.8796
  649TIP3   OH223361   5.637   6.058  13.616  0.2844  0.3883 -0.2633
  649TIP3    H123362   5.695   5.984  13.599  1.1832  1.1043 -0.4043
  649TIP3    H223363   5.583   6.029  13.690  0.3358 -0.5551 -0.5803
  650TIP3   OH223364   4.821   5.769   0.930 -0.2821  0.1640  0.9170
  650TIP3    H123365   4.728   5.787   0.918 -0.1035 -0.1055 -1.3898
  650TIP3    H223366   4.861   5.795   0.847  1.4237 -1.4295  1.1693
  651TIP3   OH223367   1.172   3.438  13.069  1.0188 -0.9473 -0.1852
  651TIP3    H123368   1.194   3.532  13.069  0.9908 -0.9419 -0.5204
  651TIP3    H223369   1.155   3.418  13.161 -0.1407 -0.3539 -0.2565
  652TIP3   OH223370   3.810   0.436  14.448  0.0291 -0.0960 -0.2093
  652TIP3    H123371   3.876   0.488  14.403  1.0101 -1.7618 -0.7881
  652TIP3    H223372   3.756   0.398  14.378  0.6246 -1.4892  0.0470
  653TIP3   OH223373   1.702   1.005  12.024  0.4850 -0.5584  0.1672
  653TIP3    H123374   1.683   1.098  12.037 -0.7207 -0.5867 -1.2065
  653TIP3    H223375   1.738   0.976  12.108 -2.4745  0.3165  1.8660
  654TIP3   OH223376   6.385   1.400  13.209  0.2598 -0.6198 -0.1784
  654TIP3    H123377   6.446   1.326  13.202  0.8355 -0.4219  1.9574
  654TIP3    H223378   6.373   1.430  13.119  3.1744 -0.7792 -0.7134
  655TIP3   OH223379   6.264   1.784  12.036  0.9413 -0.0884 -0.4514
  655TIP3    H123380   6.183   1.824  12.003  0.7629  0.2299  0.3395
  655TIP3    H223381   6.247   1.690  12.034  1.2747 -0.1592 -2.1050
  656TIP3   OH223382   6.504   5.452  13.618 -0.5595 -0.4545  0.9732
  656TIP3    H123383   6.557   5.374  13.601 -0.8805 -0.9560  2.1487
  656TIP3    H223384   6.530   5.479  13.706 -0.1882  1.0034  0.4506
  657TIP3   OH223385   2.537   5.002   3.759  0.0182  0.0790  0.0444
  657TIP3    H123386   2.583   4.926   3.726 -0.6331  0.0446 -0.8261
  657TIP3    H223387   2.545   4.997   3.854  2.0909  0.2749 -0.0894
  658TIP3   OH223388   5.506   0.522   2.002 -0.0111  0.2172 -0.2107
  658TIP3    H123389   5.455   0.479   1.933  2.1797 -0.6563 -1.4061
  658TIP3    H223390   5.575   0.459   2.024  0.6926  1.3998  1.1705
  659TIP3   OH223391   4.235   5.071  15.281 -0.2797 -0.1410 -0.2854
  659TIP3    H123392   4.172   5.134  15.247  2.8135  4.5049  1.5932
  659TIP3    H223393   4.195   5.036  15.360 -1.0714  1.5750  0.0917
  660TIP3   OH223394   2.887   4.420   2.113 -0.1118  0.0716 -0.1646
  660TIP3    H123395   2.856   4.335   2.146  0.7108 -0.1399  0.0977
  660TIP3    H223396   2.888   4.410   2.018  1.5363 -0.8108 -0.0950
  661TIP3   OH223397   4.225   0.025   6.204 -0.2386 -0.0996  0.9624
  661TIP3    H123398   4.147   0.076   6.224  0.6322  0.8413  2.1387
  661TIP3    H223399   4.286   0.047   6.275  0.1221 -2.9532  1.6306
  662TIP3   OH223400   3.423   5.603  16.038 -0.9071 -0.0250 -0.4336
  662TIP3    H123401   3.417   5.677  15.978 -0.5098  0.1553 -0.2528
  662TIP3    H223402   3.479   5.633  16.109 -0.5078 -0.5941 -0.4990
  663TIP3   OH223403   1.666   2.073  11.271  0.2814  0.4786 -0.4587
  663TIP3    H123404   1.685   2.101  11.181  0.2432 -0.1662 -0.6730
  663TIP3    H223405   1.730   2.005  11.289  0.1140  0.4185 -0.0911
  664TIP3   OH223406   3.634   1.715  11.531 -0.2066 -0.2793 -0.2225
  664TIP3    H123407   3.684   1.638  11.557 -0.9392 -0.6902 -0.0070
  664TIP3    H223408   3.596   1.692  11.447 -1.7243 -0.7832  0.5643
  665TIP3   OH223409   2.817   5.093   6.152 -0.0274 -1.0188 -0.2668
  665TIP3    H123410   2.812   5.036   6.228  0.9263  0.1005  0.6681
  665TIP3    H223411   2.745   5.156   6.164  0.9205 -0.0317  0.4279
  666TIP3   OH223412   5.954   4.531  13.927  0.6072  0.0384 -0.5422
  666TIP3    H123413   5.980   4.440  13.910  0.5329  0.0886 -0.9551
  666TIP3    H223414   5.987   4.579  13.852  1.8470  0.5963  0.3454
  667TIP3   OH223415   1.111   5.010  15.526  0.2219  0.0835 -0.1819
  667TIP3    H123416   1.047   4.941  15.541  1.8158 -1.7937 -1.5912
  667TIP3    H223417   1.156   5.020  15.610  0.4529 -1.1400 -0.1440
  668TIP3   OH223418   6.148   5.104   3.429  0.2904 -0.1861  0.0309
  668TIP3    H123419   6.182   5.036   3.371 -0.2111 -0.5876  0.2016
  668TIP3    H223420   6.166   5.186   3.383  0.8959 -0.4308 -0.1795
  669TIP3   OH223421   5.594   2.546  15.538  0.2860 -0.4909 -0.0626
  669TIP3    H123422   5.562   2.464  15.575  2.0706 -0.1337  2.4782
  669TIP3    H223423   5.683   2.527  15.510  0.6557  0.5102  0.3787
  670TIP3   OH223424   4.387   1.532  13.781  0.3516 -0.0887  0.3896
  670TIP3    H123425   4.480   1.552  13.771  0.7878 -0.7261  2.5972
  670TIP3    H223426   4.379   1.498  13.871 -1.6746 -1.9781 -0.4041
  671TIP3   OH223427   2.271   6.348  16.817  0.6094  0.0358 -0.3430
  671TIP3    H123428   2.186   6.393  16.822  0.6979  0.1590  0.0984
  671TIP3    H223429   2.248   6.255  16.813  0.4118  0.1303 -1.7582
  672TIP3   OH223430   6.653   2.322   0.111 -0.6611 -0.3688  0.6932
  672TIP3    H123431   6.642   2.287   0.023  1.4226 -1.6883  0.9006
  672TIP3    H223432   6.611   2.258   0.168 -0.7473 -0.2497  0.7640
  673TIP3   OH223433   0.013   2.628  14.475 -0.1630 -0.0781  0.1052
  673TIP3    H123434  -0.063   2.583  14.511  0.1082 -1.3506 -0.8387
  673TIP3    H223435  -0.021   2.712  14.443 -1.0083 -0.3086  0.3716
  674TIP3   OH223436   2.719   2.786   0.999  0.1582 -0.3023  0.0894
  674TIP3    H123437   2.695   2.796   1.091 -0.0165 -0.2415  0.0376
  674TIP3    H223438   2.812   2.763   1.001 -0.3694 -2.6528  0.4176
  675TIP3   OH223439   3.818   0.304  15.774 -0.5737  0.3478  0.7300
  675TIP3    H123440   3.894   0.252  15.749  0.5365  1.5856  1.4134
  675TIP3    H223441   3.793   0.351  15.694 -0.4628  0.1525  0.5791
  676TIP3   OH223442   5.381   4.810  13.366 -0.2548 -0.0309 -0.1600
  676TIP3    H123443   5.475   4.830  13.373 -0.2433 -0.3263  0.8237
  676TIP3    H223444   5.344   4.842  13.448 -1.0357  0.1682 -0.5853
  677TIP3   OH223445   4.118   5.962   3.061  0.2950 -0.0309 -0.2480
  677TIP3    H123446   4.024   5.944   3.061  0.4319 -0.7649 -0.6326
  677TIP3    H223447   4.124   6.057   3.053 -0.4055 -0.1241 -3.0947
  678TIP3   OH223448   2.319   4.176   3.059  0.0690  0.4632  0.4861
  678TIP3    H123449   2.369   4.151   3.137  1.6678 -0.3788 -0.7480
  678TIP3    H223450   2.309   4.271   3.066  0.7884  0.4900  1.3699
  679TIP3   OH223451   1.967   5.296  16.138 -0.2435  0.3594 -0.4190
  679TIP3    H123452   1.964   5.292  16.042 -1.2928 -1.0196 -0.3716
  679TIP3    H223453   2.033   5.231  16.163 -0.9249 -0.2632 -0.1915
  680TIP3   OH223454   6.316   0.319   3.261  0.2087 -0.1468  0.8008
  680TIP3    H123455   6.365   0.246   3.224 -0.5703  0.3925 -1.4481
  680TIP3    H223456   6.243   0.279   3.307  0.2316 -0.8157  0.2679
  681TIP3   OH223457   6.349   1.006   2.714 -0.2018  0.0699 -0.5903
  681TIP3    H123458   6.425   0.961   2.752 -1.0365 -0.0236  1.0729
  681TIP3    H223459   6.274   0.953   2.740 -0.8902  0.4469 -1.7625
  682TIP3   OH223460   5.346   3.695  14.222 -0.3983  0.0409  0.1289
  682TIP3    H123461   5.281   3.762  14.244 -1.0519 -0.3992 -0.4290
  682TIP3    H223462   5.326   3.672  14.131 -0.1756 -0.9122  0.3179
  683TIP3   OH223463   3.918   5.411  13.383  0.2945 -0.4197 -0.9239
  683TIP3    H123464   3.939   5.347  13.451 -0.8303  0.5827  0.4174
  683TIP3    H223465   4.002   5.452  13.362  0.6645 -0.7927 -0.1989
  684TIP3   OH223466   6.019   5.724   3.469  0.9186 -0.1089  0.5956
  684TIP3    H123467   6.110   5.747   3.489  0.9628 -0.4567  0.8105
  684TIP3    H223468   6.014   5.728   3.374  0.7073  1.5588  0.6491
  685TIP3   OH223469   3.698   4.066  14.264  0.0857  0.1328 -0.2062
  685TIP3    H123470   3.709   3.971  14.275 -0.1575  0.1416  0.1320
  685TIP3    H223471   3.780   4.103  14.296  0.2274  0.0303 -0.4486
  686TIP3   OH223472   0.862   2.456   2.098 -0.0514  0.5645  0.4570
  686TIP3    H123473   0.772   2.425   2.087 -0.2845  0.9952  1.0693
  686TIP3    H223474   0.909   2.382   2.136 -0.2193  0.4311  0.4014
  687TIP3   OH223475   3.941   5.924  13.765 -0.3730  0.9762 -0.2459
  687TIP3    H123476   4.030   5.958  13.776  0.2188 -0.4523 -0.3644
  687TIP3    H223477   3.951   5.829  13.770 -2.1584  0.8226  1.6392
  688TIP3   OH223478   0.390   6.444   3.793 -0.8376  0.4669 -0.0809
  688TIP3    H123479   0.424   6.531   3.811  1.2118 -0.2113 -0.3882
  688TIP3    H223480   0.367   6.409   3.879 -0.6113  0.9067  0.1606
  689TIP3   OH223481   4.166   6.359  15.180 -0.6666  0.2595 -0.4069
  689TIP3    H123482   4.133   6.336  15.093 -0.2811 -0.9627 -0.2526
  689TIP3    H223483   4.261   6.359  15.171 -0.6362  0.6972 -0.1195
  690TIP3   OH223484   2.316   3.725  16.830 -0.1207 -0.2595  0.2728
  690TIP3    H123485   2.317   3.642  16.783 -1.7520 -0.3595  0.3417
  690TIP3    H223486   2.306   3.792  16.762  2.8217  0.0716  0.0661
  691TIP3   OH223487   2.554   4.132  14.200 -0.2252  0.6269  0.1015
  691TIP3    H123488   2.468   4.173  14.192 -0.3630  0.2687 -0.3076
  691TIP3    H223489   2.609   4.179  14.138 -0.0039  1.1599  0.6934
  692TIP3   OH223490   5.217   1.950  12.804 -0.1331 -0.1621 -0.0289
  692TIP3    H123491   5.165   2.029  12.819 -1.6807 -0.8468 -1.5029
  692TIP3    H223492   5.187   1.889  12.872  0.1207  0.0627  0.2908
  693TIP3   OH223493   2.839   4.027   2.533 -0.4965  0.1539  0.7788
  693TIP3    H123494   2.910   4.078   2.572 -1.0047  1.1705  0.4222
  693TIP3    H223495   2.760   4.075   2.557 -1.2395 -1.8085  2.5188
  694TIP3   OH223496   4.809   4.483  15.465 -0.3553 -0.2870 -0.3089
  694TIP3    H123497   4.839   4.572  15.445 -1.3854  0.5063  1.4091
  694TIP3    H223498   4.715   4.485  15.445 -0.3652 -1.0210 -0.3378
  695TIP3   OH223499   5.765   1.503   1.339 -0.1117  0.1276  0.0640
  695TIP3    H123500   5.825   1.548   1.280 -0.6441  3.0475  1.5850
  695TIP3    H223501   5.818   1.478   1.414 -0.0629 -0.8174 -0.2673
  696TIP3   OH223502   1.042   5.151  15.309  0.0181  0.0664 -0.1048
  696TIP3    H123503   1.048   5.237  15.351 -0.4147  0.4781 -0.8657
  696TIP3    H223504   1.057   5.088  15.380 -0.1109  0.7605  0.5458
  697TIP3   OH223505   6.454   3.704   1.713 -0.7176 -0.3561 -0.1379
  697TIP3    H123506   6.495   3.692   1.627 -1.4745 -0.7226 -0.4572
  697TIP3    H223507   6.426   3.795   1.714  1.8783  0.5051  0.8880
  698TIP3   OH223508   3.724   5.775  14.663 -0.1843 -0.0350  0.3194
  698TIP3    H123509   3.752   5.683  14.662  1.4391  0.4116 -0.8226
  698TIP3    H223510   3.635   5.774  14.629 -0.0027 -1.1572 -0.1638
  699TIP3   OH223511   2.635   0.297  11.897 -0.1033 -0.3677 -0.4891
  699TIP3    H123512   2.721   0.327  11.928 -0.7662 -1.3038  2.6096
  699TIP3    H223513   2.625   0.338  11.811  2.4473  1.6198  0.0378
  700TIP3   OH223514   5.271   1.640  12.641 -0.1337  0.0897  0.0823
  700TIP3    H123515   5.181   1.671  12.642 -0.2183  0.0076 -1.6855
  700TIP3    H223516   5.284   1.606  12.552  1.5862 -0.0433  0.3453
  701TIP3   OH223517   3.306   1.589  13.308 -1.1132 -0.2147  0.2073
  701TIP3    H123518   3.253   1.634  13.374 -0.8796  0.7234 -0.2181
  701TIP3    H223519   3.395   1.589  13.345 -0.5361  2.2149 -0.9407
  702TIP3   OH223520   0.119   2.248   3.224  0.2626 -0.3777  0.7721
  702TIP3    H123521   0.139   2.177   3.287  0.9462 -0.5891  0.3279
  702TIP3    H223522   0.078   2.316   3.278 -1.0628 -1.3778  1.0966
  703TIP3   OH223523   5.457   2.919  14.283 -0.0322 -0.8806  0.7227
  703TIP3    H123524   5.502   2.985  14.336  0.3998 -1.6928  1.3795
  703TIP3    H223525   5.364   2.934  14.301 -0.1088  0.9575 -0.8223
  704TIP3   OH223526   5.868   4.068  15.353 -0.6342  0.0810  0.0886
  704TIP3    H123527   5.933   4.010  15.314 -0.1300  0.1981  0.7326
  704TIP3    H223528   5.816   4.099  15.279  0.3585  0.3781 -0.5019
  705TIP3   OH223529   5.246   2.243  15.367 -0.4566 -0.5654 -0.3070
  705TIP3    H123530   5.297   2.313  15.327 -0.1377 -1.4754 -1.5561
  705TIP3    H223531   5.268   2.165  15.316 -2.9421 -1.0413 -0.7715
  706TIP3   OH223532   0.029   6.279   1.987  0.0913 -0.6889  0.0606
  706TIP3    H123533   0.002   6.187   1.994 -0.0016 -0.9538 -2.6857
  706TIP3    H223534   0.035   6.295   1.893 -1.8028  2.6854  0.3418
  707TIP3   OH223535   2.081   6.114   5.653  0.0501  0.3852  0.5228
  707TIP3    H123536   2.050   6.032   5.692 -0.8242 -0.2322 -1.3342
  707TIP3    H223537   2.052   6.182   5.714 -0.1955 -0.6060  1.5375
  708TIP3   OH223538   0.119   0.962   5.642  0.2438  0.6965 -0.0637
  708TIP3    H123539   0.069   0.888   5.677  2.7259 -1.1101 -0.1321
  708TIP3    H223540   0.118   1.027   5.713 -0.3223 -0.2063  0.7759
  709TIP3   OH223541   5.569   4.603   2.943  0.7623  0.0541 -0.2448
  709TIP3    H123542   5.533   4.690   2.960 -1.2716 -1.0613  1.6574
  709TIP3    H223543   5.637   4.592   3.009  0.9796  0.1574 -0.4484
  710TIP3   OH223544   6.275   0.799  15.126 -0.0929 -0.0407 -0.1830
  710TIP3    H123545   6.250   0.740  15.055  1.6571  0.6190 -1.4056
  710TIP3    H223546   6.195   0.810  15.178 -0.3565 -4.1142  0.6120
  711TIP3   OH223547   0.038   0.718  12.627  0.4629 -0.4988 -0.4751
  711TIP3    H123548   0.079   0.659  12.563  0.3534 -0.9311 -0.1516
  711TIP3    H223549   0.096   0.716  12.703  0.9281  0.5064 -0.7806
  712TIP3   OH223550   4.858   1.591   1.739  0.2852  0.4771  0.1444
  712TIP3    H123551   4.899   1.563   1.657  1.5609 -0.4219  1.0584
  712TIP3    H223552   4.911   1.665   1.769 -0.4869  1.1376 -0.0801
  713TIP3   OH223553   4.594   5.361  16.847 -0.0867 -0.3984 -0.0331
  713TIP3    H123554   4.548   5.286  16.811 -2.6224 -0.1340  2.3419
  713TIP3    H223555   4.586   5.351  16.941  1.6439  1.6310  0.4038
  714TIP3   OH223556   6.417   1.713   3.873  0.4941  0.2810 -0.0711
  714TIP3    H123557   6.352   1.731   3.805 -0.9129 -3.2836  0.0860
  714TIP3    H223558   6.387   1.765   3.949 -2.0198 -0.9079 -0.1458
  715TIP3   OH223559   0.025   0.868  16.737  0.2949 -0.1911  0.6690
  715TIP3    H123560   0.073   0.812  16.676  2.3045 -0.4739  2.3584
  715TIP3    H223561  -0.036   0.810  16.782 -0.1832 -0.2646 -0.0728
  716TIP3   OH223562   2.550   1.790  12.807  0.1314 -0.3388  0.3055
  716TIP3    H123563   2.624   1.788  12.746 -0.5186  0.6254 -0.5491
  716TIP3    H223564   2.566   1.716  12.866  0.9246 -1.1547 -0.8682
  717TIP3   OH223565   2.342   2.764   6.290  0.5171 -0.5268  0.5259
  717TIP3    H123566   2.377   2.681   6.323 -1.2586 -1.2778  0.6475
  717TIP3    H223567   2.364   2.828   6.357 -0.0351 -1.3555  1.5142
  718TIP3   OH223568   4.836   0.239   5.279  0.4287 -0.5529 -0.0686
  718TIP3    H123569   4.803   0.271   5.363 -0.6865  0.1875 -0.7691
  718TIP3    H223570   4.769   0.179   5.248  0.8357 -0.8211 -0.4477
  719TIP3   OH223571   4.137   3.738   3.565  0.8552  0.4125 -0.3471
  719TIP3    H123572   4.230   3.751   3.587  0.6903  1.1341 -0.0377
  719TIP3    H223573   4.121   3.645   3.582  1.3623  0.4228  0.2104
  720TIP3   OH223574   4.857   4.534  14.064  0.1602 -0.4889 -0.0821
  720TIP3    H123575   4.905   4.580  14.133 -0.2800  1.6427 -1.1037
  720TIP3    H223576   4.922   4.518  13.996 -0.2975  1.6174 -1.0943
  721TIP3   OH223577   2.635   2.303   3.449 -0.1893 -0.4305 -0.4303
  721TIP3    H123578   2.597   2.215   3.454  0.4806 -0.6811  0.4918
  721TIP3    H223579   2.689   2.311   3.528  0.1323  0.6371 -0.7350
  722TIP3   OH223580   4.936   2.695   0.558 -0.5419  0.1384  0.2257
  722TIP3    H123581   4.980   2.649   0.629  0.9257  2.3403  0.8412
  722TIP3    H223582   4.892   2.769   0.601 -0.3325  1.0202 -1.0208
  723TIP3   OH223583   5.266   6.769  13.991 -0.1507 -0.1737  0.1540
  723TIP3    H123584   5.261   6.781  14.086  0.1937  1.4835 -0.0216
  723TIP3    H223585   5.174   6.766  13.963 -0.2492  0.0475  0.4503
  724TIP3   OH223586   5.267   0.597  11.578  0.3227 -0.8493  0.3704
  724TIP3    H123587   5.249   0.539  11.504  3.2289  0.7125 -1.7727
  724TIP3    H223588   5.181   0.631  11.604 -0.8618 -1.8834 -1.9056
  725TIP3   OH223589   2.974   6.664  12.185 -0.0958 -0.3487  0.3704
  725TIP3    H123590   3.049   6.670  12.126  0.5859 -2.1737  0.9684
  725TIP3    H223591   2.899   6.648  12.129 -0.0472  1.2859 -0.2192
  726TIP3   OH223592   2.865   6.148   0.114 -0.1061  0.1721 -0.0139
  726TIP3    H123593   2.942   6.123   0.166  0.5752 -0.2856 -1.2071
  726TIP3    H223594   2.812   6.068   0.109  0.0244  0.1050 -0.3482
  727TIP3   OH223595   0.219   5.322  11.695  0.3470  0.1258  0.1263
  727TIP3    H123596   0.210   5.254  11.628 -1.5706  0.0193  0.4244
  727TIP3    H223597   0.306   5.308  11.732  0.8370 -0.7748 -1.3079
  728TIP3   OH223598   4.141   5.974   4.666 -0.0330  0.1842 -0.5858
  728TIP3    H123599   4.069   6.031   4.692 -0.5337 -1.3978  1.7890
  728TIP3    H223600   4.106   5.886   4.675  1.6264 -0.5868 -1.2793
  729TIP3   OH223601   4.133   1.391  12.632  0.0491  0.1801 -0.5464
  729TIP3    H123602   4.112   1.417  12.722 -0.6723 -2.7121  0.2098
  729TIP3    H223603   4.049   1.364  12.594  0.5465  0.1155 -1.6629
  730TIP3   OH223604   2.447   3.159   3.852  0.0541 -0.3032 -0.2420
  730TIP3    H123605   2.443   3.068   3.882  0.8344  0.1444  1.3198
  730TIP3    H223606   2.438   3.154   3.757  2.5709 -2.2296 -0.4693
  731TIP3   OH223607   3.849   0.736  12.287  0.3022 -0.1693  0.0767
  731TIP3    H123608   3.823   0.774  12.371 -0.0042 -0.7459  0.2460
  731TIP3    H223609   3.792   0.780  12.223  0.5210  0.2557  0.1701
  732TIP3   OH223610   1.487   5.709  13.160  0.0372 -0.3810  0.1397
  732TIP3    H123611   1.493   5.793  13.116 -2.0795  0.5118  1.4037
  732TIP3    H223612   1.459   5.648  13.092 -1.1023  0.5274 -0.2366
  733TIP3   OH223613   0.805   2.971   4.990  0.1392  0.7046 -0.0647
  733TIP3    H123614   0.851   2.934   5.065  0.7728  2.7406  0.6319
  733TIP3    H223615   0.713   2.972   5.016 -0.0382 -1.1618 -0.4862
  734TIP3   OH223616   6.488   2.820  10.718 -0.4216  0.2876 -0.4673
  734TIP3    H123617   6.422   2.883  10.689 -0.5533 -0.2459 -1.3510
  734TIP3    H223618   6.544   2.806  10.642 -0.4375 -0.7256 -0.3061
  735TIP3   OH223619   5.632   4.690   5.400 -0.3041  0.0556 -0.5623
  735TIP3    H123620   5.569   4.729   5.339 -0.5066  1.0202  0.2342
  735TIP3    H223621   5.640   4.754   5.470  0.3117 -0.8034  0.1762
  736TIP3   OH223622   0.921   0.077  15.075 -0.1783 -0.5184  0.2615
  736TIP3    H123623   1.008   0.115  15.080  1.0505 -3.1257  0.5489
  736TIP3    H223624   0.933  -0.014  15.104 -2.4977 -1.7033 -2.0454
  737TIP3   OH223625   5.534   4.870   3.986 -0.0443  0.8519 -0.4113
  737TIP3    H123626   5.510   4.884   4.077  0.3109 -1.1103  0.0228
  737TIP3    H223627   5.596   4.940   3.966  2.7327 -0.6998  2.0136
  738TIP3   OH223628   2.335   3.387   0.420  0.2838 -0.3649 -0.0628
  738TIP3    H123629   2.396   3.332   0.469 -1.4357 -0.8555  1.6850
  738TIP3    H223630   2.281   3.325   0.371 -0.2120 -0.1195  0.1572
  739TIP3   OH223631   0.322   6.315   3.567  0.6095  0.5276  0.0152
  739TIP3    H123632   0.235   6.279   3.583  1.1075 -0.3757  0.7784
  739TIP3    H223633   0.350   6.349   3.651  1.5374 -0.4242  0.1098
  740TIP3   OH223634   6.179   2.298  11.958  0.3040  0.2022  0.1258
  740TIP3    H123635   6.199   2.354  12.033 -1.2805 -0.5435  1.1459
  740TIP3    H223636   6.115   2.348  11.907  1.9421  1.0459 -1.2126
  741TIP3   OH223637   1.327   4.213  13.118 -0.0089  0.2308 -0.0258
  741TIP3    H123638   1.381   4.270  13.172  0.7750 -1.0516  0.5916
  741TIP3    H223639   1.381   4.195  13.041 -0.6999  1.1926 -0.7625
  742TIP3   OH223640   5.248   5.767   3.346  0.5460  0.6996 -0.0695
  742TIP3    H123641   5.293   5.772   3.261  0.0751  0.3009 -0.3453
  742TIP3    H223642   5.265   5.852   3.386 -1.9075  2.2043 -1.9315
  743TIP3   OH223643   5.792   0.996  11.688 -0.1177 -0.5358 -0.2509
  743TIP3    H123644   5.757   0.925  11.741  0.6420 -1.3966 -0.8758
  743TIP3    H223645   5.855   0.954  11.629  0.0321  0.5869 -0.9289
  744TIP3   OH223646   3.577   2.905  14.615  1.2245 -0.6094 -0.2599
  744TIP3    H123647   3.530   2.984  14.642 -0.1691 -1.0839 -1.2080
  744TIP3    H223648   3.651   2.938  14.564  1.3374  0.1140  0.3397
  745TIP3   OH223649   6.208   1.784   5.198  0.5658  0.1840 -0.2322
  745TIP3    H123650   6.275   1.720   5.173 -1.0497 -1.6715 -0.0255
  745TIP3    H223651   6.206   1.781   5.293 -0.9863 -1.1317 -0.2599
  746TIP3   OH223652   6.273   5.950  16.409 -0.6017  0.4936  0.6307
  746TIP3    H123653   6.263   5.991  16.495  1.2280  0.6699  0.7935
  746TIP3    H223654   6.277   5.856  16.427  3.8235  0.6133  1.3306
  747TIP3   OH223655   1.121   2.267   4.850 -0.5269 -0.4176  0.4971
  747TIP3    H123656   1.138   2.243   4.941  0.8351 -0.4191  0.2656
  747TIP3    H223657   1.159   2.195   4.799 -1.2240 -0.3875 -0.0765
  748TIP3   OH223658   2.498   2.192  12.997  0.2265  0.4148  0.0311
  748TIP3    H123659   2.512   2.098  12.991  0.4054  0.4974 -1.1842
  748TIP3    H223660   2.551   2.220  13.072 -0.9670 -0.6357  1.3160
  749TIP3   OH223661   4.270   3.475   3.737 -0.3519 -0.1636  0.3582
  749TIP3    H123662   4.360   3.444   3.724  0.5702  2.1857  0.7372
  749TIP3    H223663   4.216   3.406   3.698  1.6166 -1.3472 -0.4568
  750TIP3   OH223664   6.808   5.498  12.047  0.6573  0.7796 -0.6415
  750TIP3    H123665   6.782   5.484  12.138  0.6832  0.0563 -0.7358
  750TIP3    H223666   6.743   5.559  12.012 -0.2856 -0.1639 -0.5728
  751TIP3   OH223667   5.884   0.124   5.258  0.1928 -0.7317  0.0714
  751TIP3    H123668   5.825   0.090   5.325 -0.1423  0.3401  0.3506
  751TIP3    H223669   5.931   0.195   5.302 -0.2952  0.2347 -0.9264
  752TIP3   OH223670   3.511   5.737  13.148  0.5298  0.2060 -0.5845
  752TIP3    H123671   3.489   5.775  13.063  1.8891 -0.5369 -1.3196
  752TIP3    H223672   3.518   5.643  13.130  0.8247  0.0419  0.3499
  753TIP3   OH223673   5.200   3.021   4.474 -0.5945  0.4011 -0.0274
  753TIP3    H123674   5.154   3.003   4.556 -0.6206 -0.9597 -0.3296
  753TIP3    H223675   5.145   3.084   4.429 -0.9669  0.5747  0.6554
  754TIP3   OH223676   5.745   4.126   5.373 -0.0990  0.2825  0.2622
  754TIP3    H123677   5.818   4.065   5.386 -1.6077 -1.8039 -0.6918
  754TIP3    H223678   5.761   4.164   5.286  1.2291  1.9063  1.1482
  755TIP3   OH223679   2.202   3.696  15.560  0.2848  0.2252  0.1987
  755TIP3    H123680   2.126   3.724  15.508 -0.8656 -0.5716  1.3787
  755TIP3    H223681   2.254   3.643  15.500 -0.2205  0.5737 -0.5665
  756TIP3   OH223682   0.590   3.945   0.545  0.1053 -0.1741  0.1700
  756TIP3    H123683   0.619   4.036   0.532 -1.1316 -0.1002 -2.9850
  756TIP3    H223684   0.669   3.898   0.570  1.8986  0.9729 -2.7669
  757TIP3   OH223685   2.202   2.547   4.146  0.2697 -0.1725  0.7011
  757TIP3    H123686   2.267   2.603   4.188 -0.1779 -1.1096  2.8042
  757TIP3    H223687   2.118   2.584   4.172 -0.0444 -1.9604  2.4996
  758TIP3   OH223688   1.543   1.163   3.289  0.5226  0.0766  0.0208
  758TIP3    H123689   1.623   1.206   3.258  0.6392 -0.2944 -0.2032
  758TIP3    H223690   1.472   1.217   3.255  0.6687  2.2872  2.9230
  759TIP3   OH223691   6.274   1.325  15.665 -0.3055 -0.1536 -0.1846
  759TIP3    H123692   6.182   1.307  15.681  0.5130 -1.9584  3.7086
  759TIP3    H223693   6.305   1.252  15.611 -0.4361 -1.7911  1.8348
  760TIP3   OH223694   0.603   2.931  14.826 -0.3133  0.2895  0.5558
  760TIP3    H123695   0.638   2.942  14.737  0.6868  0.7043  0.9882
  760TIP3    H223696   0.523   2.984  14.826 -0.6972 -0.2582 -0.2924
  761TIP3   OH223697   4.326   6.803   3.499  0.3596 -0.6943 -0.1534
  761TIP3    H123698   4.250   6.796   3.556 -0.4111  0.1592 -1.0515
  761TIP3    H223699   4.371   6.718   3.508  1.0449 -0.1193  2.7593
  762TIP3   OH223700   0.736   5.350   3.798 -0.1418  0.4407 -0.4041
  762TIP3    H123701   0.694   5.307   3.873 -0.0946  1.2606  0.1055
  762TIP3    H223702   0.692   5.434   3.790 -0.9061 -0.0752 -2.0157
  763TIP3   OH223703   2.892   0.412  11.952  0.1981 -0.3361 -0.3079
  763TIP3    H123704   2.952   0.441  11.884  0.2808  0.4742  0.0905
  763TIP3    H223705   2.880   0.490  12.007 -0.7738 -0.6462 -0.0660
  764TIP3   OH223706   2.395   3.513   1.218 -0.1803  0.0634 -0.0611
  764TIP3    H123707   2.462   3.502   1.286  0.0062  0.8141 -0.1163
  764TIP3    H223708   2.365   3.424   1.199  0.1429 -0.1994  0.6268
  765TIP3   OH223709   4.684   2.573  11.161  0.1010 -0.1042  0.0830
  765TIP3    H123710   4.771   2.535  11.169 -0.2766 -0.7095  2.1700
  765TIP3    H223711   4.699   2.665  11.140  1.2375 -0.2708  0.1087
  766TIP3   OH223712   0.184   2.737  11.490  0.2315  0.2194 -0.4185
  766TIP3    H123713   0.257   2.790  11.522  0.8242 -0.4421 -0.6570
  766TIP3    H223714   0.168   2.771  11.402  1.5914 -0.9294 -1.1633
  767TIP3   OH223715   6.578   1.377  15.576  0.7678  0.6916  0.1267
  767TIP3    H123716   6.568   1.312  15.646  0.0604 -0.6543 -1.1578
  767TIP3    H223717   6.496   1.426  15.577  0.0785 -0.3918 -0.7479
  768TIP3   OH223718   3.009   2.905  14.907  0.2580  0.2207 -0.1006
  768TIP3    H123719   3.006   2.933  14.999  1.1047  0.1184 -0.0283
  768TIP3    H223720   2.920   2.919  14.874 -0.4828 -1.2200  1.1736
  769TIP3   OH223721   4.405   3.379  16.206  0.2374  0.4196  0.4693
  769TIP3    H123722   4.366   3.457  16.246 -1.5646  0.1955 -0.7103
  769TIP3    H223723   4.371   3.378  16.116 -1.0708 -2.5031  0.8589
  770TIP3   OH223724   0.774   0.179  14.697  0.1213 -0.4109 -0.2525
  770TIP3    H123725   0.716   0.163  14.623 -0.2518 -1.8466  0.3308
  770TIP3    H223726   0.745   0.118  14.765 -1.4319  2.7675  2.2155
  771TIP3   OH223727   1.275   1.753   2.989 -0.1323 -0.2983  0.8109
  771TIP3    H123728   1.264   1.679   3.048 -0.3876 -0.6433  0.3418
  771TIP3    H223729   1.205   1.742   2.924  1.3456 -1.0857 -0.7529
  772TIP3   OH223730   4.930   3.199   0.789  0.4994  0.6592  0.4531
  772TIP3    H123731   4.932   3.160   0.876 -1.1822  1.9988  1.1417
  772TIP3    H223732   4.875   3.277   0.798  1.1553  1.4353 -1.5711
  773TIP3   OH223733   0.131   3.168   3.626 -0.3952 -0.1457 -0.0096
  773TIP3    H123734   0.136   3.260   3.652 -2.1813  0.5156 -1.6875
  773TIP3    H223735   0.040   3.144   3.644 -0.1681 -1.3151 -0.3605
  774TIP3   OH223736   5.639   5.688   4.643 -0.2301 -0.1823 -0.2407
  774TIP3    H123737   5.595   5.608   4.615  0.5707 -1.0350  0.8485
  774TIP3    H223738   5.711   5.658   4.698 -0.2730  1.3044  0.6860
  775TIP3   OH223739   3.251   2.558   1.523  0.4557 -0.3476  0.4971
  775TIP3    H123740   3.174   2.530   1.572  0.0517 -0.5888 -0.2648
  775TIP3    H223741   3.306   2.480   1.517  0.3700 -0.3949  0.3184
  776TIP3   OH223742   6.310   4.991  13.200  0.1756 -0.1578 -0.6885
  776TIP3    H123743   6.299   5.042  13.119  1.9055  0.5798 -0.5004
  776TIP3    H223744   6.303   4.899  13.171  2.3834  0.0226 -2.0120
  777TIP3   OH223745   1.866   2.631  13.318  0.0303  0.2159 -0.2271
  777TIP3    H123746   1.904   2.710  13.357  0.2286  0.7112 -1.3674
  777TIP3    H223747   1.786   2.661  13.275  0.6595  0.0494 -1.6033
  778TIP3   OH223748   6.353   5.842  14.828 -0.3223  0.7873 -0.2596
  778TIP3    H123749   6.360   5.928  14.786  3.5538  1.0079  0.4625
  778TIP3    H223750   6.424   5.791  14.790  0.9083 -0.2737  3.1086
  779TIP3   OH223751   1.376   1.226  10.239  0.2581  0.6870 -0.2320
  779TIP3    H123752   1.425   1.266  10.311  2.6719  1.6877 -2.2418
  779TIP3    H223753   1.419   1.141  10.225 -2.0696 -0.8165  1.2728
  780TIP3   OH223754   4.871   1.950   4.730  0.1318  0.3914 -0.0733
  780TIP3    H123755   4.822   1.894   4.671 -0.2894  1.7156 -1.0313
  780TIP3    H223756   4.843   1.923   4.818 -0.5850 -0.4063 -0.5348
  781TIP3   OH223757   3.133   4.872  14.214  0.2233  0.1490  0.2905
  781TIP3    H123758   3.197   4.917  14.271 -0.1736  1.3054 -0.1534
  781TIP3    H223759   3.183   4.851  14.135  0.2157  0.5494  0.1728
  782TIP3   OH223760   4.666   5.724  14.575  0.7198 -0.1828 -0.0465
  782TIP3    H123761   4.619   5.641  14.584 -0.2486  0.3276 -0.2487
  782TIP3    H223762   4.606   5.780  14.527  1.4666  0.5631 -0.1327
  783TIP3   OH223763   4.775   4.037   1.593 -0.8019 -1.1378 -0.1887
  783TIP3    H123764   4.815   3.997   1.671  1.2166 -3.1628 -2.1028
  783TIP3    H223765   4.681   4.025   1.606 -0.6939  0.1738  2.6616
  784TIP3   OH223766   2.918   5.280  15.285 -0.1510  0.2711  0.0077
  784TIP3    H123767   2.878   5.359  15.248  0.0224  0.6114  0.5360
  784TIP3    H223768   3.008   5.281  15.252  0.1231  0.7855  0.7273
  785TIP3   OH223769   3.833   0.379   3.594 -0.2773 -0.0893  0.3261
  785TIP3    H123770   3.901   0.390   3.661  2.2348 -2.4080 -1.6197
  785TIP3    H223771   3.842   0.456   3.538 -0.6043  0.5725  1.1704
  786TIP3   OH223772   0.846   1.374  15.003  1.1188  0.5969  1.2628
  786TIP3    H123773   0.841   1.285  14.967 -0.2262  0.1171  2.4911
  786TIP3    H223774   0.906   1.366  15.077  2.2939  1.1126  0.3846
  787TIP3   OH223775   0.449   4.513   2.291 -0.0187  0.3335  0.1651
  787TIP3    H123776   0.402   4.464   2.224  1.2018  1.5090 -1.6520
  787TIP3    H223777   0.516   4.452   2.322 -0.4116 -0.1269  0.1209
  788TIP3   OH223778   3.368   2.842   4.235 -0.1765 -0.0909 -0.0926
  788TIP3    H123779   3.427   2.810   4.166  0.4226  0.3784  0.1833
  788TIP3    H223780   3.424   2.899   4.288 -0.8483  0.2228  0.2816
  789TIP3   OH223781   3.961   0.407   5.446 -0.0413 -0.4472 -0.4542
  789TIP3    H123782   3.983   0.486   5.396 -1.3382 -0.8568 -1.7256
  789TIP3    H223783   3.991   0.427   5.535  0.2988  1.2014 -0.8950
  790TIP3   OH223784   1.555   0.865   4.767  0.0703  0.5627 -0.1626
  790TIP3    H123785   1.581   0.838   4.855  0.0220  0.8605 -0.0557
  790TIP3    H223786   1.637   0.887   4.723  0.0159  1.4179  0.1460
  791TIP3   OH223787   3.358   2.484  14.777  0.0351 -0.3907  0.0341
  791TIP3    H123788   3.404   2.453  14.699 -0.7436 -0.5600 -0.3637
  791TIP3    H223789   3.412   2.557  14.808 -0.1612  0.3274 -1.2399
  792TIP3   OH223790   3.885   1.172  12.360  0.5375 -0.1368  0.3042
  792TIP3    H123791   3.809   1.151  12.414  0.2347  0.9750  0.3426
  792TIP3    H223792   3.900   1.265  12.376  1.0664 -0.0262 -0.7520
  793TIP3   OH223793   4.304   1.192   6.354  0.2979 -0.3021  0.2147
  793TIP3    H123794   4.392   1.156   6.346 -0.4105 -1.7098 -1.7377
  793TIP3    H223795   4.310   1.279   6.314  0.5196 -0.9323 -1.1722
  794TIP3   OH223796   5.106   1.295  13.168  0.1390  0.0185  0.0481
  794TIP3    H123797   5.070   1.211  13.141  1.4632 -0.7139  0.4922
  794TIP3    H223798   5.117   1.287  13.263 -1.3834  1.3616  0.3859
  795TIP3   OH223799   1.811   2.767   6.100 -0.4078  0.4306 -0.4094
  795TIP3    H123800   1.855   2.683   6.110 -0.7491  0.2495 -0.4096
  795TIP3    H223801   1.718   2.744   6.088 -0.3323  0.7367 -1.6945
  796TIP3   OH223802   1.595   1.871   5.026  0.3882  0.9840 -0.3061
  796TIP3    H123803   1.552   1.855   5.110  0.3655  0.7462 -0.3623
  796TIP3    H223804   1.688   1.874   5.046  0.3725  1.0891 -0.2477
  797TIP3   OH223805   2.293   1.089   4.974 -0.2169  0.1204 -0.4261
  797TIP3    H123806   2.369   1.122   5.022 -0.2249  0.2961 -0.5357
  797TIP3    H223807   2.302   0.993   4.980  0.1990  0.1376 -0.7328
  798TIP3   OH223808   4.818   0.732  11.383 -0.2672 -0.0321 -0.2392
  798TIP3    H123809   4.725   0.712  11.392 -0.3626 -1.3412 -3.1316
  798TIP3    H223810   4.821   0.827  11.371 -1.1147  0.1376  0.7694
  799TIP3   OH223811   4.770   6.327   0.525 -0.6927  0.9464 -0.0358
  799TIP3    H123812   4.800   6.386   0.456 -0.9300  1.2861  0.1477
  799TIP3    H223813   4.849   6.303   0.572 -0.0010 -1.8470 -2.3435
  800TIP3   OH223814   2.302   5.553   5.395 -0.1904  0.0098 -0.2466
  800TIP3    H123815   2.216   5.563   5.435 -0.6823 -0.2240 -1.2223
  800TIP3    H223816   2.298   5.607   5.316  0.0994 -1.0453 -0.9959
  801TIP3   OH223817   0.330   5.229   2.669  0.2051 -0.0247 -0.1409
  801TIP3    H123818   0.376   5.233   2.753  0.5931  1.8773 -0.3883
  801TIP3    H223819   0.358   5.309   2.623 -0.8237 -0.4889 -1.6437
  802TIP3   OH223820   2.883   1.054   3.476 -1.0143  0.0091  0.1691
  802TIP3    H123821   2.804   1.022   3.432 -0.0898 -0.5668 -1.1366
  802TIP3    H223822   2.931   1.103   3.409 -0.2517  0.3460  0.9326
  803TIP3   OH223823   0.636   1.443   2.819 -0.3413  0.3939 -0.0505
  803TIP3    H123824   0.583   1.378   2.775 -0.9318  0.5776  0.3719
  803TIP3    H223825   0.661   1.402   2.902 -1.4088  1.0010  0.5839
  804TIP3   OH223826   5.315   5.270   4.995  0.2717  0.4632  0.6803
  804TIP3    H123827   5.329   5.348   5.050 -1.4367  0.1279  1.6340
  804TIP3    H223828   5.221   5.258   4.993  0.4319 -0.8407 -0.5513
  805TIP3   OH223829   4.361   0.107  10.144  0.6582 -0.2926  0.0052
  805TIP3    H123830   4.429   0.078  10.205  1.0943 -0.9519 -0.7744
  805TIP3    H223831   4.327   0.026  10.106 -0.2114  0.0631  0.0071
  806TIP3   OH223832   1.014   3.230   1.964 -0.0706 -0.1471 -0.1741
  806TIP3    H123833   1.099   3.263   1.935  0.1394  0.6759  1.2819
  806TIP3    H223834   1.036   3.163   2.029 -0.5292 -0.4382 -0.3188
  807TIP3   OH223835   0.510   3.344   2.319 -0.1590  0.1977  0.0152
  807TIP3    H123836   0.489   3.321   2.228 -0.4474  0.8268 -0.0886
  807TIP3    H223837   0.586   3.291   2.341 -0.6796 -0.6962 -0.2648
  808TIP3   OH223838   4.660   1.940  14.493  0.7792  0.2083  0.0297
  808TIP3    H123839   4.652   1.935  14.398 -2.0460 -0.8298  0.2124
  808TIP3    H223840   4.719   1.869  14.516  0.9279  0.0162 -0.8954
  809TIP3   OH223841   5.821   5.366   1.890  0.0766 -0.0119  0.2661
  809TIP3    H123842   5.900   5.415   1.911 -0.2012 -0.4295  2.5617
  809TIP3    H223843   5.847   5.274   1.893  0.1293 -0.1171 -1.9571
  810TIP3   OH223844   3.087   5.811  14.643  0.2568  0.0730 -0.0519
  810TIP3    H123845   3.017   5.824  14.706  1.2831  1.1735  0.9102
  810TIP3    H223846   3.121   5.898  14.626  0.7263 -0.3332 -1.2913
  811TIP3   OH223847   2.753   3.837   3.362  0.1411  0.1238  0.4963
  811TIP3    H123848   2.696   3.768   3.330 -0.3895  1.3973 -1.5131
  811TIP3    H223849   2.694   3.901   3.402  0.2354  0.8540 -0.4708
  812TIP3   OH223850   3.953   5.411   1.155 -0.5839 -0.2654  0.1098
  812TIP3    H123851   4.007   5.474   1.202  0.6169 -2.3244  1.6761
  812TIP3    H223852   3.975   5.423   1.063 -1.4075  2.4305  0.1962
  813TIP3   OH223853   4.151   1.592   3.170  0.5359  0.2419  0.9833
  813TIP3    H123854   4.094   1.658   3.211 -0.0697  0.3450  0.0023
  813TIP3    H223855   4.099   1.558   3.098  1.5987  0.0746  0.2826
  814TIP3   OH223856   2.324   0.351  10.593  0.6150  0.3910  0.2531
  814TIP3    H123857   2.406   0.362  10.640  0.9663  0.0554 -0.2734
  814TIP3    H223858   2.345   0.293  10.520  0.1346  1.0895 -0.4546
  815TIP3   OH223859   5.527   1.288  12.589 -0.1659  0.6374 -0.5991
  815TIP3    H123860   5.510   1.250  12.675 -0.1145 -0.4054 -1.0331
  815TIP3    H223861   5.541   1.212  12.532  1.8363  1.3365 -1.1120
  816TIP3   OH223862   5.985   6.335  10.922 -0.1140 -0.1757  0.5087
  816TIP3    H123863   5.983   6.293  11.008 -1.2645 -0.1968  0.4946
  816TIP3    H223864   5.900   6.314  10.883 -0.6937  1.9800  0.4394
  817TIP3   OH223865   1.316   6.294   1.667  0.3518  1.0300  0.5829
  817TIP3    H123866   1.268   6.217   1.698 -1.6993  2.1009  0.2317
  817TIP3    H223867   1.252   6.365   1.668  2.0697  2.6619  0.4803
  818TIP3   OH223868   2.655   3.451   0.491  0.1203 -0.3032 -0.1489
  818TIP3    H123869   2.633   3.501   0.412  2.1827  0.5152 -0.2890
  818TIP3    H223870   2.615   3.501   0.562 -1.2555 -0.7178 -0.6103
  819TIP3   OH223871   4.025   4.251   0.023  0.1276  0.1584  0.0709
  819TIP3    H123872   4.037   4.160  -0.004 -1.3536  0.5790 -2.4232
  819TIP3    H223873   3.930   4.262   0.029  0.2328  1.7249 -0.5169
  820TIP3   OH223874   2.938   0.097  12.328 -0.1511 -0.4701 -0.2072
  820TIP3    H123875   2.846   0.100  12.303 -0.5023 -2.7599  0.5587
  820TIP3    H223876   2.967   0.009  12.302  1.0920 -0.7353  1.8789
  821TIP3   OH223877   0.148   3.569  11.126  0.1580 -0.4536  0.2083
  821TIP3    H123878   0.118   3.528  11.207  2.1933 -1.1427  0.6569
  821TIP3    H223879   0.092   3.647  11.118 -1.1941 -1.2392  1.3619
  822TIP3   OH223880   6.418   3.035   3.368 -0.5196 -0.0445  0.1949
  822TIP3    H123881   6.362   3.049   3.444 -1.6679 -0.1596 -0.6039
  822TIP3    H223882   6.431   3.122   3.330  0.6750  0.1179  0.9216
  823TIP3   OH223883   3.743   1.034  11.830  0.1874  0.1971 -0.5261
  823TIP3    H123884   3.782   1.092  11.896  0.8095 -0.0790 -0.6399
  823TIP3    H223885   3.761   1.077  11.747 -1.8757  1.2926 -0.4637
  824TIP3   OH223886   1.350   1.598  15.378  0.0387 -0.6118  0.2276
  824TIP3    H123887   1.286   1.578  15.309  0.5303 -2.9598  0.3561
  824TIP3    H223888   1.421   1.644  15.332 -1.1859  1.0138 -0.1179
  825TIP3   OH223889   5.678   1.200  12.913  0.1902 -0.1384 -0.1383
  825TIP3    H123890   5.604   1.258  12.936 -0.1278 -0.4497 -0.3686
  825TIP3    H223891   5.648   1.154  12.835 -0.0525 -1.5227  0.7460
  826TIP3   OH223892   4.774   3.905  15.923  0.1893 -0.0982 -0.6301
  826TIP3    H123893   4.782   3.855  16.004  0.0540  0.6454 -0.1400
  826TIP3    H223894   4.816   3.851  15.856 -1.4954 -1.6448 -0.4866
  827TIP3   OH223895   4.218   4.664   3.925  0.1037  0.0991  0.0087
  827TIP3    H123896   4.129   4.631   3.933 -0.8632  2.3607 -0.5250
  827TIP3    H223897   4.207   4.758   3.912  2.6055  0.5147  0.4535
  828TIP3   OH223898   1.845   3.885  16.159 -0.5845 -0.2547 -0.1792
  828TIP3    H123899   1.767   3.938  16.143  0.4955  0.8025 -2.2377
  828TIP3    H223900   1.911   3.919  16.099  0.8846 -2.4220  0.0852
  829TIP3   OH223901   6.265   5.600  11.622 -0.3478 -0.0770  0.0029
  829TIP3    H123902   6.262   5.695  11.619  1.8370  0.1583  2.1230
  829TIP3    H223903   6.201   5.571  11.557 -1.3173  2.8097 -0.4328
  830TIP3   OH223904   6.248   0.248  12.779 -0.0855 -0.0181 -0.4339
  830TIP3    H123905   6.230   0.266  12.871 -0.4804 -0.6952 -0.3685
  830TIP3    H223906   6.303   0.320  12.750 -2.5179  1.9698 -0.5050
  831TIP3   OH223907   5.724   1.807  15.688  0.7099  0.0032  0.8876
  831TIP3    H123908   5.688   1.789  15.775  1.4048 -0.5966  1.0539
  831TIP3    H223909   5.732   1.721  15.647 -1.3094  0.3722 -0.4763
  832TIP3   OH223910   6.330   2.700   5.890 -0.4156  0.0127 -0.3276
  832TIP3    H123911   6.397   2.720   5.956  0.0348  0.8959 -1.0280
  832TIP3    H223912   6.357   2.615   5.854 -0.9592 -0.7310  0.9722
  833TIP3   OH223913   2.995   3.918  16.985  0.3848  0.0388 -0.2031
  833TIP3    H123914   2.916   3.923  17.039  0.2392 -0.0405 -0.4064
  833TIP3    H223915   3.044   3.845  17.022 -0.2482 -0.7493 -0.8696
  834TIP3   OH223916   4.285   3.964  15.083 -0.2744 -0.2453  0.0179
  834TIP3    H123917   4.201   3.945  15.040 -0.9414  0.2628  1.0423
  834TIP3    H223918   4.264   3.964  15.177  0.1031  3.1726  0.2434
  835TIP3   OH223919   6.111   0.355   5.656  0.2108  0.9082 -0.7401
  835TIP3    H123920   6.080   0.417   5.722  2.1221  1.5471 -0.3860
  835TIP3    H223921   6.206   0.367   5.654  0.6551 -1.9429 -0.7567
  836TIP3   OH223922   6.413   5.755  13.454  0.0006 -0.2711  0.1612
  836TIP3    H123923   6.432   5.670  13.414 -1.0579 -0.8978  0.9604
  836TIP3    H223924   6.342   5.738  13.515 -0.0048  1.1341  0.5810
  837TIP3   OH223925   1.732   4.865  11.953 -0.3566 -0.1715  0.1329
  837TIP3    H123926   1.674   4.844  12.026 -1.0623  0.3287 -0.2692
  837TIP3    H223927   1.688   4.936  11.907 -0.2659 -0.9504 -1.1960
  838TIP3   OH223928   3.572   2.388  16.376  0.1025 -0.2410  0.5656
  838TIP3    H123929   3.564   2.484  16.382  0.2893 -0.2074  0.2688
  838TIP3    H223930   3.482   2.356  16.387 -0.0986  0.0166 -0.2654
  839TIP3   OH223931   0.951   1.916  14.859 -0.2796 -0.3706  0.3367
  839TIP3    H123932   0.915   1.832  14.830 -1.8947  0.4788 -0.1966
  839TIP3    H223933   1.040   1.918  14.822 -1.4418 -0.3267 -2.7071
  840TIP3   OH223934   3.173   1.206  16.470  0.8104  0.2445  0.4182
  840TIP3    H123935   3.169   1.255  16.388  0.0403  0.4228  0.5575
  840TIP3    H223936   3.176   1.114  16.443  0.4320  0.2962  0.1861
  841TIP3   OH223937   5.562   0.802  13.792  0.7202 -0.1505  0.3402
  841TIP3    H123938   5.631   0.791  13.727 -0.3667  0.7096 -1.0250
  841TIP3    H223939   5.568   0.894  13.819  0.8037 -0.3559  1.0399
  842TIP3   OH223940   2.015   0.480  14.479  0.1034 -0.4597  0.0115
  842TIP3    H123941   1.994   0.446  14.566  2.2186 -2.8075 -0.2838
  842TIP3    H223942   2.023   0.403  14.424 -0.3810  0.9212 -2.1376
  843TIP3   OH223943   0.843   6.658   3.958 -0.1541 -0.0692 -0.6840
  843TIP3    H123944   0.811   6.572   3.931  0.2003 -0.3987 -0.0828
  843TIP3    H223945   0.818   6.665   4.050  1.1781 -0.1965 -0.2895
  844TIP3   OH223946   3.601   1.281  15.217 -0.5672  0.2539 -0.5477
  844TIP3    H123947   3.513   1.245  15.205 -0.1469 -0.9556 -0.1734
  844TIP3    H223948   3.615   1.278  15.312  0.4963 -1.1814 -0.7073
  845TIP3   OH223949   0.424   3.279   6.184 -0.4016  0.5058 -0.3729
  845TIP3    H123950   0.420   3.334   6.262 -0.0900  0.3741 -0.2592
  845TIP3    H223951   0.379   3.198   6.209 -1.8005  1.0939 -0.8816
  846TIP3   OH223952   5.678   0.717   0.473  0.3978  0.1040 -0.0054
  846TIP3    H123953   5.689   0.744   0.381  0.8037  0.9086  0.2713
  846TIP3    H223954   5.745   0.766   0.520 -0.1394  0.0857  0.7949
  847TIP3   OH223955   2.085   1.366   0.915  0.1362  0.3256  0.4107
  847TIP3    H123956   2.040   1.292   0.873  0.3282 -0.5042  1.6131
  847TIP3    H223957   2.141   1.402   0.846 -1.6897  0.8357 -0.8540
  848TIP3   OH223958   3.866   0.338  14.968  0.3423 -0.3531 -0.4494
  848TIP3    H123959   3.906   0.252  14.954 -1.2861 -1.2076 -0.1303
  848TIP3    H223960   3.855   0.374  14.880 -1.8415 -1.9008 -0.9112
  849TIP3   OH223961   5.763   2.949   4.946 -0.2590 -0.0096  0.1405
  849TIP3    H123962   5.810   2.919   5.024  0.3051  0.0331 -0.1788
  849TIP3    H223963   5.762   3.044   4.953 -1.7606 -0.0442  0.9844
  850TIP3   OH223964   3.164   0.828   5.113 -0.1004  0.5084 -0.7253
  850TIP3    H123965   3.233   0.791   5.167 -1.6375  0.6836  1.5278
  850TIP3    H223966   3.130   0.755   5.063  0.2242 -0.0595 -0.1274
  851TIP3   OH223967   5.364   2.594   1.289  0.3494 -0.1920 -0.4984
  851TIP3    H123968   5.361   2.687   1.267  1.3774  0.0878  0.4514
  851TIP3    H223969   5.367   2.550   1.204 -0.9557  0.5836 -0.9735
  852TIP3   OH223970   3.264   1.137  13.740  0.2596  0.6639  0.0935
  852TIP3    H123971   3.227   1.107  13.657  0.0429  1.0429  0.0491
  852TIP3    H223972   3.358   1.139  13.725  0.4668 -1.6338  0.6348
  853TIP3   OH223973   0.605   0.339  14.196  0.5193  0.0499  0.2679
  853TIP3    H123974   0.581   0.266  14.139  1.8867 -0.8522  0.8168
  853TIP3    H223975   0.549   0.411  14.167 -1.0291 -1.2605 -0.1445
  854TIP3   OH223976   2.324   6.621   1.932  0.0182 -0.3401  0.4670
  854TIP3    H123977   2.279   6.555   1.985  0.8251 -1.9145 -0.7226
  854TIP3    H223978   2.389   6.659   1.992 -0.7888 -0.2398  1.3076
  855TIP3   OH223979   0.614   4.375   5.955  0.6286 -0.1560  1.0404
  855TIP3    H123980   0.610   4.354   6.048  3.4882 -1.2399  1.0193
  855TIP3    H223981   0.655   4.462   5.952  0.6601 -0.1772  0.8062
  856TIP3   OH223982   2.490   6.673  14.049  0.8301  0.1403  0.3541
  856TIP3    H123983   2.416   6.722  14.012  0.5046  0.4421  1.3441
  856TIP3    H223984   2.449   6.616  14.114  1.5083  0.7225  1.3213
  857TIP3   OH223985   4.972   0.158   6.024  0.2016 -0.8580  0.2775
  857TIP3    H123986   4.884   0.120   6.023 -1.1326  1.9423  0.8500
  857TIP3    H223987   4.974   0.212   6.103  0.6358  2.7873 -1.9896
  858TIP3   OH223988   0.580   5.614  10.407  0.8527 -0.3151  0.6016
  858TIP3    H123989   0.641   5.617  10.480  0.1666  1.7978  1.1814
  858TIP3    H223990   0.561   5.706  10.388  0.1097 -0.8252 -1.4929
  859TIP3   OH223991   4.008   3.427  15.163 -0.5181  0.3119 -0.9664
  859TIP3    H123992   4.048   3.500  15.115 -0.4230  0.6757 -0.3546
  859TIP3    H223993   3.991   3.361  15.097 -0.3357  0.7784 -1.4887
  860TIP3   OH223994   0.879   0.775   4.146 -0.6105  0.1302 -0.0467
  860TIP3    H123995   0.921   0.860   4.130  1.1961 -0.6327  0.3944
  860TIP3    H223996   0.796   0.797   4.187 -0.8372  1.7307 -1.2523
  861TIP3   OH223997   3.431   3.244  16.439 -0.1204 -0.8456 -0.0783
  861TIP3    H123998   3.339   3.220  16.435 -0.8721  1.6257  0.7244
  861TIP3    H223999   3.431   3.339  16.435  2.4326 -0.7873 -0.2520
  862TIP3   OH224000   3.274   2.332  15.628  0.2984 -0.0207 -0.4755
  862TIP3    H124001   3.180   2.316  15.614 -0.3862  2.3320  0.8263
  862TIP3    H224002   3.296   2.279  15.704  0.4583 -1.7842 -1.7038
  863TIP3   OH224003   1.457   1.273   2.813  0.2175  0.0168 -0.1112
  863TIP3    H124004   1.477   1.352   2.864  0.0666 -0.9521  1.4853
  863TIP3    H224005   1.496   1.201   2.863 -2.0769 -1.2452 -0.0191
  864TIP3   OH224006   4.192   3.357   2.784  0.2686 -0.3066 -0.3289
  864TIP3    H124007   4.167   3.430   2.841 -0.3009 -0.8927  0.1744
  864TIP3    H224008   4.284   3.375   2.762  0.9024 -0.7185  1.7661
  865TIP3   OH224009   1.521   3.119   3.480 -0.0614 -0.3510  0.2994
  865TIP3    H124010   1.521   3.213   3.493 -0.0219 -0.5345  1.8511
  865TIP3    H224011   1.601   3.088   3.523  0.8889 -0.9379 -1.7604
  866TIP3   OH224012   2.470   4.738  13.792 -0.6501 -0.3815 -0.2145
  866TIP3    H124013   2.538   4.781  13.740  0.4359 -1.9242 -0.1324
  866TIP3    H224014   2.415   4.810  13.824  0.1496  0.7975 -1.3792
  867TIP3   OH224015   5.353   0.350  12.011  0.5554  0.2009  0.1505
  867TIP3    H124016   5.374   0.308  12.095  1.9407 -1.3835 -0.9113
  867TIP3    H224017   5.417   0.421  12.003  0.1313  0.6382  0.6321
  868TIP3   OH224018   3.622   1.283  12.475 -0.1041 -0.1583 -0.0677
  868TIP3    H124019   3.701   1.336  12.488 -0.5527  1.0896 -2.0073
  868TIP3    H224020   3.567   1.305  12.550  0.8154  0.0158  0.5800
  869TIP3   OH224021   3.147   6.607   5.563 -0.6165  0.3559  0.3899
  869TIP3    H124022   3.074   6.553   5.533  1.0077 -0.2680 -2.8408
  869TIP3    H224023   3.105   6.686   5.596 -2.8310 -0.8409  0.6296
  870TIP3   OH224024   6.604   0.441  12.145  0.2737  0.2681 -0.6146
  870TIP3    H124025   6.548   0.382  12.196  0.2424  0.7622 -0.0698
  870TIP3    H224026   6.600   0.406  12.056 -0.6373  0.1008 -0.5221
  871TIP3   OH224027   2.183   2.347   3.964 -1.4086 -0.2307  0.0060
  871TIP3    H124028   2.092   2.344   3.937 -0.8103 -1.2748 -2.1223
  871TIP3    H224029   2.191   2.429   4.013 -2.9798  1.1182 -1.8285
  872TIP3   OH224030   0.476   6.509   6.384  0.6884 -0.0107 -0.3227
  872TIP3    H124031   0.493   6.475   6.472  0.6584  0.6915 -0.0394
  872TIP3    H224032   0.527   6.452   6.326  0.4774 -0.6593  0.1187
  873TIP3   OH224033   2.884   1.518   0.358 -0.2479 -0.7698  0.4934
  873TIP3    H124034   2.947   1.479   0.298 -0.6987 -1.6804  0.5934
  873TIP3    H224035   2.885   1.611   0.336  1.0890 -0.7682  0.4688
  874TIP3   OH224036   6.369   6.576  14.070 -0.1133 -0.2676 -0.3434
  874TIP3    H124037   6.457   6.550  14.040 -0.3453 -1.3323 -0.1359
  874TIP3    H224038   6.317   6.580  13.990 -0.3310 -1.5215 -0.2911
  875TIP3   OH224039   6.620   0.505   4.576 -0.3075  0.0013 -0.0092
  875TIP3    H124040   6.545   0.450   4.598 -1.2347  0.8026 -1.0617
  875TIP3    H224041   6.667   0.516   4.659 -0.5470 -1.6837  0.3821
  876TIP3   OH224042   2.273   4.918  11.840 -0.1571  0.3156 -0.1612
  876TIP3    H124043   2.245   4.845  11.895  1.0585 -0.0634 -0.0286
  876TIP3    H224044   2.222   4.907  11.759  1.6690 -2.1175 -1.1153
  877TIP3   OH224045   5.194   3.528   4.980 -0.2626  0.1881 -0.4562
  877TIP3    H124046   5.137   3.604   4.986 -0.1156  0.5246 -2.6285
  877TIP3    H224047   5.241   3.527   5.063 -1.4515  1.4804  0.2809
  878TIP3   OH224048   3.640   3.128   0.988  0.4741  0.1665  0.1208
  878TIP3    H124049   3.574   3.184   0.948  0.2623  0.3777  0.7508
  878TIP3    H224050   3.696   3.101   0.916 -0.8859 -0.8446 -0.6249
  879TIP3   OH224051   4.977   3.268   0.325 -0.2626  0.3568 -0.2010
  879TIP3    H124052   4.998   3.176   0.343  1.8883  1.2036  2.2446
  879TIP3    H224053   4.888   3.266   0.290  0.2378 -2.7394 -1.6515
  880TIP3   OH224054   6.572   2.010   3.836 -0.4701  0.0551 -0.1577
  880TIP3    H124055   6.600   1.961   3.913  0.7374  0.0308 -0.5962
  880TIP3    H224056   6.477   2.003   3.837 -0.4595 -0.1963  1.1584
  881TIP3   OH224057   0.969   0.139   2.499  0.4474  0.0961  0.2617
  881TIP3    H124058   1.019   0.175   2.425 -0.6316 -0.0714 -0.5731
  881TIP3    H224059   0.958   0.213   2.559  0.2902  0.5408 -0.3135
  882TIP3   OH224060   2.415   3.399   6.734  0.1684 -0.8017 -0.1376
  882TIP3    H124061   2.406   3.311   6.697  2.2408 -2.2753  2.4819
  882TIP3    H224062   2.417   3.385   6.829 -0.0353  2.1893  0.4118
  883TIP3   OH224063   2.193   5.890   3.762 -0.9358  0.0434 -0.0123
  883TIP3    H124064   2.186   5.805   3.718 -0.4857 -0.1131  0.2138
  883TIP3    H224065   2.158   5.953   3.698 -1.4224 -0.3253 -0.1181
  884TIP3   OH224066   3.454   6.155  14.269 -0.6383  0.3103  0.2376
  884TIP3    H124067   3.472   6.088  14.203 -1.7860 -0.5715  0.7866
  884TIP3    H224068   3.360   6.171  14.262 -1.1404 -0.9710  2.6728
  885TIP3   OH224069   6.509   5.585   2.066  0.1365 -0.0670 -0.0869
  885TIP3    H124070   6.511   5.680   2.081  2.4589 -0.2978  1.6992
  885TIP3    H224071   6.595   5.566   2.027 -0.7039 -1.3486 -1.4047
  886TIP3   OH224072   5.607   1.044   1.377 -0.4114  0.1220  0.4235
  886TIP3    H124073   5.561   0.977   1.328 -1.5046  2.3079 -1.7593
  886TIP3    H224074   5.686   1.062   1.325 -0.8471  1.4785  0.2045
  887TIP3   OH224075   0.882   0.419  12.520  0.7557 -0.6513 -0.1264
  887TIP3    H124076   0.903   0.490  12.580 -1.5753 -1.0110  1.2315
  887TIP3    H224077   0.795   0.439  12.487  0.1630 -2.6939  0.0400
  888TIP3   OH224078   0.490   2.614   2.903  0.2245  0.5295  0.6673
  888TIP3    H124079   0.583   2.609   2.882  0.3320 -0.9228  1.3553
  888TIP3    H224080   0.456   2.527   2.884 -0.2716  0.0067  3.4522
  889TIP3   OH224081   0.056   0.467  15.488 -0.3762  0.6510  0.1084
  889TIP3    H124082   0.034   0.444  15.398 -0.6876  1.5797 -0.0638
  889TIP3    H224083   0.041   0.387  15.538  0.9401 -0.2128 -0.8458
  890TIP3   OH224084   1.680   2.734  11.953  0.4606 -0.0028  0.0923
  890TIP3    H124085   1.679   2.695  11.865  1.7891  0.3860 -0.1206
  890TIP3    H224086   1.588   2.737  11.979  0.1188 -0.9643 -0.9087
  891TIP3   OH224087   2.268   2.877  14.527  0.6577 -0.4815 -0.7501
  891TIP3    H124088   2.329   2.835  14.587 -0.6778  0.1560  1.1254
  891TIP3    H224089   2.278   2.970  14.542 -1.1227 -0.3765 -0.0077
  892TIP3   OH224090   3.313   5.969  12.209  0.1878 -0.8052 -0.1092
  892TIP3    H124091   3.393   5.954  12.260 -0.7724 -3.0261  0.9072
  892TIP3    H224092   3.325   5.916  12.130  0.6392  0.6800 -1.0648
  893TIP3   OH224093   1.155   1.735  16.440 -0.0705 -0.1510 -0.1817
  893TIP3    H124094   1.248   1.736  16.462 -0.0812  2.1517  0.0359
  893TIP3    H224095   1.152   1.764  16.348 -0.5089 -1.6995 -0.6816
  894TIP3   OH224096   2.467   1.479   1.358 -0.0082 -0.9327  0.6829
  894TIP3    H124097   2.510   1.446   1.280 -2.6871 -1.7455 -0.5881
  894TIP3    H224098   2.483   1.574   1.356  0.1763 -0.9746 -0.7216
  895TIP3   OH224099   0.510   1.943  16.863 -0.8900  0.1983  0.1682
  895TIP3    H124100   0.461   1.958  16.782 -0.4850 -0.9654 -0.3254
  895TIP3    H224101   0.445   1.916  16.927 -1.3459  2.0297  0.5199
  896TIP3   OH224102   4.554   6.483  14.548  0.5410 -0.1117  0.1082
  896TIP3    H124103   4.615   6.556  14.539  1.0802 -0.7412 -1.8414
  896TIP3    H224104   4.504   6.503  14.627  2.4022  1.0570  1.0689
  897TIP3   OH224105   3.940   1.197   1.843 -0.5483 -0.1283  0.1100
  897TIP3    H124106   3.981   1.119   1.806  0.6278 -0.1528  1.3960
  897TIP3    H224107   3.976   1.204   1.931  0.3181  2.5235 -0.3451
  898TIP3   OH224108   6.508   5.427  16.832 -0.1627  0.0147  0.3132
  898TIP3    H124109   6.441   5.363  16.855 -0.0689  0.5060  2.0721
  898TIP3    H224110   6.567   5.380  16.772 -0.2462 -1.4681  1.3446
  899TIP3   OH224111   0.204   3.168  10.954 -0.4846 -0.3289 -0.8338
  899TIP3    H124112   0.174   3.150  10.865 -1.7058  0.3265 -0.5810
  899TIP3    H224113   0.124   3.187  11.002  0.3805  2.3340 -0.2982
  900TIP3   OH224114   2.617   0.629   5.528 -0.1754 -0.6718 -0.4068
  900TIP3    H124115   2.618   0.578   5.609  0.8809  1.0669  0.7375
  900TIP3    H224116   2.709   0.630   5.500  0.1194  1.7976  0.4412
  901TIP3   OH224117   0.880   3.782   2.926 -0.2893 -0.2673  0.5241
  901TIP3    H124118   0.812   3.791   2.860  0.4334 -2.4355 -0.6139
  901TIP3    H224119   0.864   3.697   2.966  1.3789 -0.5693  0.6375
  902TIP3   OH224120   0.475   1.519   4.785 -0.3358 -0.4456 -0.0781
  902TIP3    H124121   0.551   1.462   4.787  0.8257  0.9372 -1.8972
  902TIP3    H224122   0.505   1.602   4.822 -1.4883 -0.4068  0.8527
  903TIP3   OH224123   2.232   3.878   1.209 -0.0136  0.3992 -0.0013
  903TIP3    H124124   2.149   3.926   1.211  0.5301  1.5155 -1.6564
  903TIP3    H224125   2.208   3.788   1.189 -0.9182  0.3915  1.0631
  904TIP3   OH224126   6.230   4.692   0.142  0.1661  0.0799 -0.1395
  904TIP3    H124127   6.312   4.736   0.118  0.3913 -0.5792 -0.5965
  904TIP3    H224128   6.224   4.704   0.237  1.2857 -0.6791  0.0489
  905TIP3   OH224129   6.125   6.533   5.748 -0.1334 -0.3247 -0.2031
  905TIP3    H124130   6.189   6.604   5.740 -1.4950  0.9401 -0.4790
  905TIP3    H224131   6.159   6.477   5.817  0.9776  0.6293  0.0563
  906TIP3   OH224132   6.434   2.245  13.454 -0.0475 -0.3961 -0.2061
  906TIP3    H124133   6.403   2.261  13.364  0.5683  0.4404 -0.2874
  906TIP3    H224134   6.501   2.178  13.444 -0.8054 -1.1702 -0.2109
  907TIP3   OH224135   5.591   0.828   2.610 -0.4494  0.2752  0.5644
  907TIP3    H124136   5.645   0.752   2.588 -0.9963 -0.3404  1.2810
  907TIP3    H224137   5.638   0.902   2.573  1.1834 -0.1766  1.6099
  908TIP3   OH224138   5.920   1.163   4.962  0.1059 -0.7026 -0.7916
  908TIP3    H124139   5.944   1.109   5.037  2.9274 -0.4397 -1.4065
  908TIP3    H224140   5.850   1.114   4.919 -0.5413 -1.5820  1.1467
  909TIP3   OH224141   5.572   6.591   5.870 -0.3467 -0.0350 -0.7309
  909TIP3    H124142   5.506   6.638   5.818  0.0668 -0.9960 -2.1844
  909TIP3    H224143   5.606   6.657   5.930 -1.5323  0.8759 -1.0089
  910TIP3   OH224144   3.154   4.404   2.881 -0.3658  0.1710  0.4317
  910TIP3    H124145   3.126   4.317   2.852 -1.4561  0.8163 -0.5567
  910TIP3    H224146   3.072   4.450   2.901  0.1704  1.0982  0.5725
  911TIP3   OH224147   5.491   1.808   1.857  0.0731  0.5054  0.2178
  911TIP3    H124148   5.493   1.798   1.952  1.1155 -1.5342  0.0199
  911TIP3    H224149   5.578   1.780   1.827 -0.9530 -1.1187 -1.4997
  912TIP3   OH224150   4.073   2.112   4.105  0.6293  0.2990 -0.7012
  912TIP3    H124151   4.029   2.103   4.190  0.6089  0.5117 -0.6861
  912TIP3    H224152   4.031   2.188   4.065 -2.6943 -2.4331 -2.9425
  913TIP3   OH224153   1.981   6.386  12.595 -0.3993 -0.3589 -0.1588
  913TIP3    H124154   1.919   6.438  12.543 -0.5819 -0.2899  0.1218
  913TIP3    H224155   1.992   6.305  12.546 -0.7208 -0.3736 -0.2126
  914TIP3   OH224156   3.257   5.544  14.153  0.1041 -0.1763 -0.3098
  914TIP3    H124157   3.340   5.549  14.202  0.1365  0.7989 -0.4404
  914TIP3    H224158   3.283   5.517  14.065 -0.0309 -2.6975  0.3497
  915TIP3   OH224159   6.202   4.804  14.063  0.1707 -0.4954  0.2235
  915TIP3    H124160   6.257   4.823  13.988 -0.0297  1.2359  0.4625
  915TIP3    H224161   6.112   4.816  14.031  0.0629 -0.3290  0.5765
  916TIP3   OH224162   0.978   6.391   2.607  0.2610  0.0013 -0.3581
  916TIP3    H124163   0.910   6.443   2.649  0.4141 -0.7436  0.8560
  916TIP3    H224164   1.052   6.396   2.667  0.2291 -1.7147 -0.1355
  917TIP3   OH224165   3.384   2.357   5.511 -0.4578 -0.3019 -0.4555
  917TIP3    H124166   3.391   2.385   5.602 -1.6804 -2.0330  0.2180
  917TIP3    H224167   3.471   2.322   5.490 -0.6304 -1.4744  0.6419
  918TIP3   OH224168   3.769   2.471  12.785 -0.3670 -0.7919 -0.1698
  918TIP3    H124169   3.703   2.424  12.835  0.3914 -1.3265  0.3402
  918TIP3    H224170   3.831   2.404  12.758  0.6303 -0.1302  0.4118
  919TIP3   OH224171   6.295   5.710   4.197  0.1916  0.8120 -0.1093
  919TIP3    H124172   6.227   5.648   4.223 -1.5468  2.6573  0.0702
  919TIP3    H224173   6.364   5.657   4.158 -0.7133 -1.2815  1.0356
  920TIP3   OH224174   0.851   3.617  17.084  0.0472  0.7707  0.0138
  920TIP3    H124175   0.940   3.598  17.054  0.1441  1.6680 -0.2898
  920TIP3    H224176   0.799   3.621  17.003 -0.2451  0.3947  0.1795
  921TIP3   OH224177   3.380   5.464   4.168  0.3975 -0.1310 -0.0967
  921TIP3    H124178   3.425   5.420   4.096  2.7429 -0.8724  1.6879
  921TIP3    H224179   3.300   5.499   4.129  1.7643 -0.0923 -3.1474
  922TIP3   OH224180   0.087   4.123   4.872 -0.3172  0.2472  0.0803
  922TIP3    H124181   0.175   4.143   4.904  0.9232 -2.4909 -1.2495
  922TIP3    H224182   0.081   4.170   4.788 -0.6453  1.4130  0.7358
  923TIP3   OH224183   0.923   1.119   0.331  0.0933  0.2822  0.0546
  923TIP3    H124184   0.954   1.203   0.298 -0.9743  0.0255 -1.8041
  923TIP3    H224185   0.873   1.140   0.409  0.7425  1.2430  0.2265
  924TIP3   OH224186   2.270   0.882   1.656 -1.0080  0.6441 -0.1666
  924TIP3    H124187   2.265   0.961   1.603 -0.3017 -0.2251 -1.5839
  924TIP3    H224188   2.346   0.895   1.712 -1.6917  1.5156  0.6031
  925TIP3   OH224189   1.179   4.643   0.491 -0.1050  0.3154  0.4754
  925TIP3    H124190   1.245   4.628   0.558 -0.8540  2.5799  1.8390
  925TIP3    H224191   1.229   4.668   0.413  0.7205 -0.8902  0.5930
  926TIP3   OH224192   5.042   3.470   5.273  0.2007  0.4721 -0.6687
  926TIP3    H124193   5.017   3.559   5.247 -0.1238  0.3196 -0.8891
  926TIP3    H224194   4.964   3.417   5.253  0.9629 -0.1583 -2.1475
  927TIP3   OH224195   5.043   5.690  17.001 -0.1778 -0.4663  0.0714
  927TIP3    H124196   5.056   5.759  16.935 -1.6695  0.7034  0.9477
  927TIP3    H224197   5.116   5.700  17.061 -0.9618  1.1201  0.8051
  928TIP3   OH224198   5.539   1.039  12.739 -0.0518  0.3482  0.3109
  928TIP3    H124199   5.599   0.982  12.691  0.1982  0.9076 -0.0456
  928TIP3    H224200   5.452   1.002  12.723  0.1597 -0.2497  0.5320
  929TIP3   OH224201   1.581   0.776  10.912  0.0216 -0.4493  0.4126
  929TIP3    H124202   1.655   0.829  10.882  0.2239 -0.9420  0.0265
  929TIP3    H224203   1.583   0.699  10.856 -1.1397 -0.2031  0.0108
  930TIP3   OH224204   5.842   0.744  14.909 -0.4429 -0.2350 -0.1495
  930TIP3    H124205   5.865   0.830  14.944 -0.2864 -0.1887 -0.3630
  930TIP3    H224206   5.786   0.705  14.976 -1.6185  0.5624 -0.6226
  931TIP3   OH224207   4.578   5.726   5.443  0.1127  0.4505  0.2027
  931TIP3    H124208   4.615   5.806   5.407  0.1500  0.5836  0.5414
  931TIP3    H224209   4.637   5.657   5.414 -0.8146  0.3186 -1.5191
  932TIP3   OH224210   6.501   3.834   5.386 -0.1082  0.2021  0.2636
  932TIP3    H124211   6.435   3.796   5.329 -1.2407  3.5143 -0.9190
  932TIP3    H224212   6.584   3.796   5.357 -0.9215  0.0576 -2.0517
  933TIP3   OH224213   2.646   4.828   6.398  0.0544 -0.0812  0.5616
  933TIP3    H124214   2.616   4.737   6.398  1.2682 -0.4952  0.2490
  933TIP3    H224215   2.571   4.878   6.365 -0.4652 -1.0165  0.2906
  934TIP3   OH224216   2.614   1.606   0.341  0.1648 -0.1067 -0.0996
  934TIP3    H124217   2.693   1.555   0.359 -0.3186 -1.3725 -1.3330
  934TIP3    H224218   2.607   1.607   0.246 -0.6213  1.0810 -0.0459
  935TIP3   OH224219   1.909   0.001  12.042  0.2060 -0.2646 -0.0265
  935TIP3    H124220   1.949  -0.036  11.963 -1.1616 -0.5790 -0.5844
  935TIP3    H224221   1.834   0.051  12.011 -0.7623 -0.9607  1.1137
  936TIP3   OH224222   2.050   3.399   1.768  0.4126 -0.1484 -0.6700
  936TIP3    H124223   2.094   3.379   1.685  1.4569 -0.5333 -0.0494
  936TIP3    H224224   2.074   3.326   1.825  0.2887  0.4630  0.1782
  937TIP3   OH224225   3.756   5.295   2.254  0.5300 -0.3450 -0.3742
  937TIP3    H124226   3.699   5.354   2.204  1.3826  1.1567  0.3557
  937TIP3    H224227   3.699   5.262   2.324  1.0372  3.1877  1.9596
  938TIP3   OH224228   6.087   5.114  16.604 -0.1659 -0.4633 -0.2826
  938TIP3    H124229   6.122   5.034  16.645 -0.8879 -0.8692 -0.4429
  938TIP3    H224230   6.131   5.185  16.650 -1.8340 -0.8584  2.0641
  939TIP3   OH224231   4.709   0.979  16.345  0.0588  0.0165 -0.5297
  939TIP3    H124232   4.799   0.954  16.361  0.2579  0.8742 -0.2900
  939TIP3    H224233   4.685   0.931  16.265  1.3092  1.1518 -1.6348
  940TIP3   OH224234   1.615   0.954   4.281  0.2275  0.4250  0.3913
  940TIP3    H124235   1.553   0.909   4.224  0.3279  1.3099 -0.4536
  940TIP3    H224236   1.608   1.046   4.255  1.7785  0.5616  0.3714
  941TIP3   OH224237   0.025   0.309  13.005  0.1663  0.4232  0.0725
  941TIP3    H124238  -0.035   0.280  12.936 -0.5544  1.3251  0.2945
  941TIP3    H224239   0.079   0.377  12.964 -0.4055  1.1128  0.4238
  942TIP3   OH224240   3.009   3.844  14.502  0.0308  0.1694  0.1170
  942TIP3    H124241   3.008   3.806  14.590 -1.2566  0.1920  0.1304
  942TIP3    H224242   3.011   3.768  14.443 -1.1818  0.0945  0.1565
  943TIP3   OH224243   2.703   3.313  16.988  0.6770 -0.1945 -0.0218
  943TIP3    H124244   2.672   3.325  17.078  0.5863 -0.6444  0.0105
  943TIP3    H224245   2.707   3.218  16.977  1.7393 -0.1505 -0.1234
  944TIP3   OH224246   3.240   3.070   0.546  0.3837 -0.0631 -0.1662
  944TIP3    H124247   3.316   3.105   0.501  1.1036  0.9556  1.7184
  944TIP3    H224248   3.169   3.131   0.526  0.6378  0.2463 -0.1272
  945TIP3   OH224249   3.655   3.426  16.040 -0.2404  0.0476  0.4576
  945TIP3    H124250   3.677   3.333  16.052 -0.3453 -0.1673 -0.7811
  945TIP3    H224251   3.709   3.472  16.104  0.8688 -0.7765  0.1623
  946TIP3   OH224252   2.084   1.521  15.975  0.4926  0.1574 -0.2554
  946TIP3    H124253   2.177   1.543  15.966  1.1100 -1.1988  2.0581
  946TIP3    H224254   2.077   1.478  16.060 -2.4350  0.9861  0.0388
  947TIP3   OH224255   2.005   2.886   2.034  0.1427 -0.2005  0.1562
  947TIP3    H124256   1.913   2.910   2.036 -0.1106 -1.0714 -0.1829
  947TIP3    H224257   2.018   2.832   2.112  0.6199  0.7628  0.7472
  948TIP3   OH224258   3.230   6.535  11.987 -0.4335  0.0541 -0.1098
  948TIP3    H124259   3.171   6.556  11.915 -1.7270 -0.0932  0.8832
  948TIP3    H224260   3.260   6.446  11.969 -1.6994 -0.4370  0.1442
  949TIP3   OH224261   1.991   0.322  11.540 -0.3036  0.1362 -0.1832
  949TIP3    H124262   2.052   0.396  11.540 -1.6812  1.3077  0.6027
  949TIP3    H224263   1.927   0.343  11.608 -0.8897 -1.6624 -0.1178
  950TIP3   OH224264   2.206   3.490  14.041  0.1058 -0.0516 -0.6000
  950TIP3    H124265   2.221   3.507  13.948 -0.6901 -1.1034 -0.9458
  950TIP3    H224266   2.151   3.411  14.042  2.0935 -1.5044  0.8312
  951TIP3   OH224267   0.352   2.222   1.832  0.5899 -0.1566 -0.5134
  951TIP3    H124268   0.353   2.128   1.847 -0.5798 -0.3381 -1.4350
  951TIP3    H224269   0.272   2.238   1.783  1.3557  1.1676 -1.3996
  952TIP3   OH224270   1.261   2.651   3.613 -0.6532 -0.1553 -0.2298
  952TIP3    H124271   1.210   2.616   3.686 -3.1026  0.9074 -1.3148
  952TIP3    H224272   1.352   2.638   3.639 -1.3966  0.3945  3.1147
  953TIP3   OH224273   3.660   0.619   1.307  0.2557  0.2688  0.3491
  953TIP3    H124274   3.678   0.625   1.401 -2.0610  1.0169  0.8013
  953TIP3    H224275   3.567   0.597   1.302  0.3291  0.2610 -1.7834
  954TIP3   OH224276   2.554   0.213   3.787  0.3215  0.8541  0.0803
  954TIP3    H124277   2.508   0.216   3.703  0.3398  1.5579  0.0893
  954TIP3    H224278   2.646   0.228   3.765  0.5184 -0.2559  0.0940
  955TIP3   OH224279   5.557   5.479   1.242 -0.0690 -0.5972  0.2427
  955TIP3    H124280   5.636   5.425   1.235 -0.4098 -0.9617 -1.0908
  955TIP3    H224281   5.579   5.545   1.307  1.2580 -0.8501  0.0808
  956TIP3   OH224282   1.143   2.657   5.157  0.2326  0.4127  0.3481
  956TIP3    H124283   1.120   2.620   5.071 -1.1471 -0.0888  0.9093
  956TIP3    H224284   1.143   2.582   5.216 -2.8506  1.2027  1.5642
  957TIP3   OH224285   0.658   1.704   2.868  0.2959  0.2021 -0.5547
  957TIP3    H124286   0.651   1.609   2.859  0.5711  0.2724 -1.6443
  957TIP3    H224287   0.748   1.719   2.898  0.0328  0.0941  0.3379
  958TIP3   OH224288   1.403   5.767   0.658  0.5187 -0.0373 -0.4042
  958TIP3    H124289   1.331   5.740   0.601  1.0537 -0.2648 -0.9761
  958TIP3    H224290   1.392   5.713   0.736 -0.0207  0.0371 -0.4205
  959TIP3   OH224291   0.469   6.429  17.135 -0.7312 -0.3253  0.0606
  959TIP3    H124292   0.532   6.357  17.133  0.1244  0.2988  2.2676
  959TIP3    H224293   0.522   6.508  17.141 -1.6942  0.3651 -0.2312
  960TIP3   OH224294   6.225   1.597   3.015  0.1741  0.0369 -0.1999
  960TIP3    H124295   6.133   1.589   3.039  0.0524  0.6415 -0.4513
  960TIP3    H224296   6.270   1.534   3.071 -0.4761 -0.7920 -0.5973
  961TIP3   OH224297   1.088   4.075  14.137  0.5580 -0.4467  0.0038
  961TIP3    H124298   1.011   4.118  14.175  0.3939 -1.2834  0.6458
  961TIP3    H224299   1.131   4.144  14.087  0.5826  0.6070  1.4165
  962TIP3   OH224300   6.214   6.357  13.719 -0.1612  0.0401  0.0103
  962TIP3    H124301   6.259   6.441  13.729  2.0006 -1.0794  0.4122
  962TIP3    H224302   6.254   6.318  13.641  0.4260 -1.4872  1.0224
  963TIP3   OH224303   2.889   5.492  10.821 -0.3601 -0.0775  0.7473
  963TIP3    H124304   2.893   5.537  10.905 -2.9178  0.6094  0.5912
  963TIP3    H224305   2.973   5.446  10.814 -0.2291 -0.5315  3.8620
  964TIP3   OH224306   5.989   2.898   1.004 -0.0979 -0.2202  0.0646
  964TIP3    H124307   5.958   2.815   1.040  4.6361 -2.6043 -0.6318
  964TIP3    H224308   5.994   2.882   0.909 -1.1256  1.7404 -0.3795
  965TIP3   OH224309   6.000   5.380  16.244 -0.2263  0.3621 -0.0819
  965TIP3    H124310   6.070   5.422  16.294 -1.1692  0.2592  1.3813
  965TIP3    H224311   5.994   5.292  16.280  0.9267 -0.6865 -2.3149
  966TIP3   OH224312   6.736   3.082  11.243 -0.1833 -0.2842 -0.0763
  966TIP3    H124313   6.752   3.149  11.176  2.7851 -1.0947 -0.3251
  966TIP3    H224314   6.721   3.132  11.324 -2.3019  0.6677 -0.9833
  967TIP3   OH224315   5.950   1.364   1.131  0.2830  0.2394  0.5637
  967TIP3    H124316   5.998   1.406   1.202  1.8533  0.7094 -0.7065
  967TIP3    H224317   5.941   1.273   1.158  2.9677 -0.1611  0.3962
  968TIP3   OH224318   2.758   3.661  12.137 -0.1936 -0.0481  0.2786
  968TIP3    H124319   2.785   3.729  12.076  0.0269 -0.5374 -0.1708
  968TIP3    H224320   2.704   3.707  12.202 -1.0098  0.3496 -0.6638
  969TIP3   OH224321   4.959   0.618   0.938  0.1076 -0.1541  0.2153
  969TIP3    H124322   4.925   0.637   0.850  1.6572  0.8398 -0.2070
  969TIP3    H224323   4.957   0.522   0.944 -0.4660 -0.2109 -0.7076
  970TIP3   OH224324   3.105   5.503   3.586  0.2404 -0.6825  0.5716
  970TIP3    H124325   3.051   5.497   3.508 -0.9655  0.9246  1.2448
  970TIP3    H224326   3.182   5.553   3.559 -0.0752 -0.3072  0.3640
  971TIP3   OH224327   4.190   4.331  10.853 -0.7516 -0.1052 -0.3085
  971TIP3    H124328   4.124   4.396  10.876  0.2104  1.4730 -1.7282
  971TIP3    H224329   4.261   4.383  10.814  2.0273 -1.5030  2.4647
  972TIP3   OH224330   6.600   3.573   1.506 -0.6553 -0.2989 -0.0872
  972TIP3    H124331   6.624   3.635   1.437 -0.4673 -1.2158 -0.8678
  972TIP3    H224332   6.571   3.495   1.460  2.2615 -2.0643  0.7496
  973TIP3   OH224333   2.713   5.657  11.987  0.1336 -0.1535  0.6942
  973TIP3    H124334   2.762   5.585  11.947  0.4819  0.7369 -0.5691
  973TIP3    H224335   2.630   5.659  11.938  1.0479  1.7195 -0.9460
  974TIP3   OH224336   0.871   1.615  14.866  0.1671 -0.8871 -0.3178
  974TIP3    H124337   0.865   1.528  14.906  2.2343 -1.1993 -0.5725
  974TIP3    H224338   0.939   1.606  14.799  0.1280  0.8359 -0.6401
  975TIP3   OH224339   4.461   6.321   3.236 -0.6353  0.1614  0.0786
  975TIP3    H124340   4.528   6.253   3.230 -1.2465 -0.3992 -0.5799
  975TIP3    H224341   4.501   6.398   3.194 -0.1491  0.0482  0.3300
  976TIP3   OH224342   1.534   0.074  13.935  0.0373  0.3683  0.3712
  976TIP3    H124343   1.458   0.129  13.916  0.6297  1.3202  0.6898
  976TIP3    H224344   1.498  -0.015  13.942 -1.0824  0.8308  0.7574
  977TIP3   OH224345   6.238   4.572   3.824 -0.2371 -0.0367  0.1053
  977TIP3    H124346   6.218   4.628   3.750 -2.2690 -1.0266 -0.1711
  977TIP3    H224347   6.165   4.586   3.885  1.2885  0.6297  1.8798
  978TIP3   OH224348   4.790   4.821  16.704 -0.3663  0.4740  0.0483
  978TIP3    H124349   4.836   4.858  16.779  1.3808 -1.3452 -0.0706
  978TIP3    H224350   4.714   4.776  16.742  0.5980 -0.5806  0.7808
  979TIP3   OH224351   5.353   4.168   0.006  0.5540 -0.0899  0.2638
  979TIP3    H124352   5.311   4.221   0.074  0.5609 -0.6738  0.7291
  979TIP3    H224353   5.371   4.084   0.049  1.0531 -0.2760 -0.2991
  980TIP3   OH224354   4.023   0.240  14.446 -0.7306 -0.1271  0.1911
  980TIP3    H124355   3.999   0.202  14.531 -0.3993 -0.5254  0.1117
  980TIP3    H224356   3.987   0.329  14.448  0.4741  0.3602  1.3137
  981TIP3   OH224357   3.245   1.930   5.956 -0.4744  0.2853 -0.4745
  981TIP3    H124358   3.175   1.914   6.020 -0.1859 -0.7411 -0.3972
  981TIP3    H224359   3.299   1.998   5.996  0.7688 -1.6320  1.2854
  982TIP3   OH224360   1.510   1.900   1.909 -0.1871  0.0835 -0.5747
  982TIP3    H124361   1.465   1.914   1.825 -0.4262 -1.9233 -0.8249
  982TIP3    H224362   1.601   1.881   1.884  0.0958  0.9738 -0.2624
  983TIP3   OH224363   4.099   0.775   3.839 -0.1465 -0.1682  0.4038
  983TIP3    H124364   4.173   0.716   3.856  0.0290 -0.3765 -0.9750
  983TIP3    H224365   4.027   0.738   3.890  0.3560 -0.7175  0.7324
  984TIP3   OH224366   4.238   2.415  12.901  0.4216  0.1481  0.2358
  984TIP3    H124367   4.286   2.429  12.982 -0.4429  0.7705  0.6601
  984TIP3    H224368   4.208   2.325  12.906  2.3351 -0.5839 -0.4886
  985TIP3   OH224369   0.573   3.729  12.911 -0.3038 -0.9142  0.2828
  985TIP3    H124370   0.613   3.723  12.824 -0.7334  0.8252 -0.0891
  985TIP3    H224371   0.600   3.815  12.943 -2.8503 -0.0916  0.4498
  986TIP3   OH224372   0.383   5.937  15.745 -0.5677  0.3793 -0.8096
  986TIP3    H124373   0.344   5.955  15.830  0.5077 -0.8431 -0.0288
  986TIP3    H224374   0.410   6.023  15.712  3.2437  0.6116  2.2047
  987TIP3   OH224375   0.602   1.543   4.244 -0.0956  0.1392  0.1058
  987TIP3    H124376   0.574   1.625   4.284  0.4744 -0.0701  0.9474
  987TIP3    H224377   0.582   1.476   4.310  0.1972 -0.3026 -0.2476
  988TIP3   OH224378   2.000   5.406   6.250 -0.6240  0.2013  0.4329
  988TIP3    H124379   1.929   5.444   6.198 -1.3104 -2.2541 -0.5383
  988TIP3    H224380   1.959   5.380   6.332 -0.1609  1.3985  1.0782
  989TIP3   OH224381   1.799   5.923   3.148  0.4941 -0.3542 -0.0469
  989TIP3    H124382   1.816   5.856   3.082 -1.7253 -0.3901 -0.6257
  989TIP3    H224383   1.727   5.888   3.200  0.9187  0.5432  1.1947
  990TIP3   OH224384   2.354   0.119  15.046 -0.1757  0.0247 -0.3523
  990TIP3    H124385   2.416   0.138  14.977  2.1777  0.5281  1.7492
  990TIP3    H224386   2.276   0.170  15.024  0.5229  0.2204 -2.5330
  991TIP3   OH224387   0.854   5.572   0.869  0.1619 -0.4256 -0.0096
  991TIP3    H124388   0.912   5.496   0.867  0.0852 -0.5498  1.2244
  991TIP3    H224389   0.816   5.570   0.957 -3.8472 -1.8790 -1.5734
  992TIP3   OH224390   1.393   5.902  11.964 -0.0572  0.0037 -0.6523
  992TIP3    H124391   1.464   5.877  11.904  0.7511  0.4089  0.1076
  992TIP3    H224392   1.379   5.995  11.947 -1.9535 -0.5133 -2.3384
  993TIP3   OH224393   6.196   3.818   2.270 -0.0228  0.5603  0.1582
  993TIP3    H124394   6.235   3.814   2.183 -0.5766 -1.9158 -0.0549
  993TIP3    H224395   6.110   3.858   2.256 -0.5260 -0.7340 -0.6480
  994TIP3   OH224396   4.842   1.797  11.816 -0.3799  0.0193  0.1533
  994TIP3    H124397   4.921   1.821  11.767  0.1600 -0.9572  0.5073
  994TIP3    H224398   4.769   1.828  11.763  0.2099 -0.3612 -0.8998
  995TIP3   OH224399   0.852   1.635   0.281 -0.3843  0.5871 -0.4162
  995TIP3    H124400   0.862   1.709   0.341  1.6972 -0.4614  0.6395
  995TIP3    H224401   0.926   1.643   0.220  0.4776 -1.1256  0.3397
  996TIP3   OH224402   6.723   1.679  10.908  0.4421 -0.1424 -0.8528
  996TIP3    H124403   6.765   1.690  10.993 -1.6165 -2.3588  0.5605
  996TIP3    H224404   6.630   1.689  10.925 -0.0140 -0.1971 -2.9651
  997TIP3   OH224405   1.570   3.754  10.711 -0.8497  0.0751  0.6698
  997TIP3    H124406   1.534   3.781  10.627  0.5369  0.6599  0.2291
  997TIP3    H224407   1.610   3.669  10.694 -0.4162  0.2718  0.6768
  998TIP3   OH224408   3.716   1.441   0.448  0.4512 -0.0909  0.5470
  998TIP3    H124409   3.778   1.419   0.379  1.0273 -0.5631  1.2023
  998TIP3    H224410   3.670   1.360   0.466 -3.5583  1.0754 -2.9322
  999TIP3   OH224411   0.386   4.948  11.616 -0.4069 -0.2497 -0.6559
  999TIP3    H124412   0.327   4.974  11.686 -1.8129 -1.4304 -1.3573
  999TIP3    H224413   0.435   5.028  11.595 -0.5822  0.3391  1.0373
 1000TIP3   OH224414   1.078   5.336  16.983 -0.3309  0.6912  0.4910
 1000TIP3    H124415   1.010   5.389  17.024 -0.7635  1.5639 -1.2414
 1000TIP3    H224416   1.067   5.352  16.889  1.6145  0.0444  0.1116
 1001TIP3   OH224417   6.472   2.479   5.686 -0.0443 -0.1118  0.1207
 1001TIP3    H124418   6.564   2.499   5.700 -0.1622  1.8181 -1.4215
 1001TIP3    H224419   6.472   2.409   5.620  0.3037 -0.0448  0.0495
 1002TIP3   OH224420   4.838   5.521  13.143 -0.0254  0.0291  0.0066
 1002TIP3    H124421   4.751   5.530  13.104 -0.1948 -1.2389  0.0470
 1002TIP3    H224422   4.899   5.542  13.072 -0.3387 -1.8864 -0.8876
 1003TIP3   OH224423   4.281   0.894   3.371 -0.0495  0.2988 -0.9273
 1003TIP3    H124424   4.199   0.862   3.334  0.3955 -0.7387 -1.0462
 1003TIP3    H224425   4.292   0.981   3.334 -3.0181  2.1766  2.0066
 1004TIP3   OH224426   1.414   0.083  15.742  0.1656 -0.0722  0.1182
 1004TIP3    H124427   1.436   0.176  15.746  0.1006 -0.0731  0.5061
 1004TIP3    H224428   1.466   0.049  15.669 -1.1881  0.6463 -1.2398
 1005TIP3   OH224429   1.175   0.874  15.359 -0.0501  0.0881  0.2307
 1005TIP3    H124430   1.224   0.870  15.442  0.9840 -0.0390 -0.3668
 1005TIP3    H224431   1.195   0.791  15.315  2.1215  1.4550 -1.5915
 1006TIP3   OH224432   4.593   4.688   5.200 -0.5599  0.1692 -0.1795
 1006TIP3    H124433   4.562   4.755   5.138 -0.6409 -1.4509 -1.9921
 1006TIP3    H224434   4.536   4.697   5.276 -0.6761  2.0215 -0.4429
 1007TIP3   OH224435   4.650   0.036  15.287  0.7189 -0.0717 -0.5381
 1007TIP3    H124436   4.665   0.101  15.355  0.5883  1.0033 -1.5153
 1007TIP3    H224437   4.734  -0.010  15.279  0.6217 -0.4816  0.5954
 1008TIP3   OH224438   1.151   5.591  14.225 -0.3840 -0.3384 -0.0529
 1008TIP3    H124439   1.191   5.674  14.199  0.3399 -1.4279 -2.7878
 1008TIP3    H224440   1.222   5.528  14.221 -0.7479 -1.0462  2.7618
 1009TIP3   OH224441   5.731   3.643   2.147 -0.4494 -0.0676  0.2202
 1009TIP3    H124442   5.724   3.549   2.162  0.0181 -0.1009  0.2504
 1009TIP3    H224443   5.704   3.655   2.056 -0.3139 -0.2593  0.1535
 1010TIP3   OH224444   3.916   5.275   0.328  0.0293  0.1645  0.6042
 1010TIP3    H124445   3.884   5.271   0.418  0.9022  1.8702  1.0263
 1010TIP3    H224446   4.003   5.236   0.333 -0.1559 -0.2864  0.3661
 1011TIP3   OH224447   4.101   5.165   2.353 -0.2327  0.1913  0.1660
 1011TIP3    H124448   4.083   5.101   2.422  1.5910  0.2890  0.7885
 1011TIP3    H224449   4.122   5.246   2.401 -1.4739  0.9956 -0.5873
 1012TIP3   OH224450   2.395   6.667   5.190 -0.0775  0.0167  0.5429
 1012TIP3    H124451   2.470   6.713   5.153  2.3376 -2.3217  2.0948
 1012TIP3    H224452   2.328   6.734   5.202  0.2351  1.5744 -4.3226
 1013TIP3   OH224453   1.054   2.489  12.558  0.0671 -0.2338  0.0459
 1013TIP3    H124454   0.990   2.558  12.543 -1.1581 -1.6050 -1.5795
 1013TIP3    H224455   1.129   2.514  12.505  1.1118  1.5440  2.2052
 1014TIP3   OH224456   0.583   1.560  16.090  0.3155 -0.0553  0.4717
 1014TIP3    H124457   0.506   1.516  16.054  0.8269 -0.3135 -0.3275
 1014TIP3    H224458   0.655   1.500  16.075  0.7353  0.3142  0.9505
 1015TIP3   OH224459   4.193   0.269   5.734  0.4904 -0.5621  0.1831
 1015TIP3    H124460   4.107   0.304   5.756  0.3257 -1.6020  1.2011
 1015TIP3    H224461   4.213   0.309   5.649 -0.0814  1.2975  0.8708
 1016TIP3   OH224462   6.415   3.812  11.410 -0.3570 -0.7533  0.0395
 1016TIP3    H124463   6.492   3.868  11.399 -0.0318 -0.6041  2.4986
 1016TIP3    H224464   6.350   3.869  11.451 -1.9478 -0.8029 -2.2415
 1017TIP3   OH224465   3.917   6.049   2.042  0.2469  0.1874  0.5904
 1017TIP3    H124466   3.973   6.031   2.117  2.6472 -0.9312 -1.3432
 1017TIP3    H224467   3.840   5.993   2.056  1.1379 -0.8194  1.6654
 1018TIP3   OH224468   6.729   4.372  15.651  0.2299 -0.5909 -0.4021
 1018TIP3    H124469   6.651   4.316  15.658  0.2792 -0.6225 -0.1068
 1018TIP3    H224470   6.717   4.440  15.717  0.7081 -0.9108  0.0279
 1019TIP3   OH224471   1.949   3.010   3.123 -1.1864 -0.0865 -0.3294
 1019TIP3    H124472   1.960   2.970   3.210  2.1993  0.1855 -0.4934
 1019TIP3    H224473   1.910   3.096   3.141 -0.6034 -0.0610  0.9485
 1020TIP3   OH224474   1.148   2.340   0.800  0.0810 -0.3508  0.0044
 1020TIP3    H124475   1.104   2.257   0.787  1.8856 -2.1831  3.7997
 1020TIP3    H224476   1.081   2.398   0.836 -0.5863 -1.0825 -0.0460
 1021TIP3   OH224477   0.106   1.441  14.367  0.0224 -0.3485  0.0611
 1021TIP3    H124478   0.102   1.488  14.283 -1.0329 -0.2158  0.1723
 1021TIP3    H224479   0.109   1.510  14.433  0.0266 -0.4427  0.1590
 1022TIP3   OH224480   2.587   1.640   1.837  0.5183 -0.3547  0.2353
 1022TIP3    H124481   2.519   1.659   1.902  1.1990  2.6133  0.2244
 1022TIP3    H224482   2.545   1.580   1.776 -1.9772  0.9911  0.4882
 1023TIP3   OH224483   6.021   3.653  11.429  0.1102  0.5560  0.4749
 1023TIP3    H124484   6.044   3.745  11.438  0.0393  0.7217 -0.8417
 1023TIP3    H224485   5.997   3.643  11.336 -0.4667 -0.6507  0.7315
 1024TIP3   OH224486   5.698   3.932   4.809  0.0222 -0.8139  0.2115
 1024TIP3    H124487   5.746   3.856   4.776  1.4312  0.6318 -1.1543
 1024TIP3    H224488   5.756   4.006   4.795 -2.3075  0.9263 -0.8688
 1025TIP3   OH224489   4.576   1.480  10.717  0.7803  0.1254  0.2686
 1025TIP3    H124490   4.518   1.554  10.698  0.7634  0.2450  0.7611
 1025TIP3    H224491   4.664   1.516  10.710  0.7972 -0.0099 -0.2894
 1026TIP3   OH224492   4.743   6.364   3.495 -0.2726 -0.1024 -0.1687
 1026TIP3    H124493   4.725   6.354   3.401 -0.5822 -0.5258 -0.0659
 1026TIP3    H224494   4.806   6.437   3.500 -1.5485  1.0686 -0.5756
 1027TIP3   OH224495   2.264   4.104  14.504 -0.4491  0.1280 -0.3926
 1027TIP3    H124496   2.327   4.062  14.563 -0.1298  2.0691  0.7660
 1027TIP3    H224497   2.188   4.045  14.503 -0.1481 -0.3470  1.3641
 1028TIP3   OH224498   3.905   1.050   4.134 -0.1538  0.0045 -0.5598
 1028TIP3    H124499   3.887   1.142   4.112  0.9625  0.4132  0.1942
 1028TIP3    H224500   3.869   1.001   4.060  0.6926  1.1557 -1.7868
 1029TIP3   OH224501   0.948   5.139   1.788  0.1060  0.6462  0.2657
 1029TIP3    H124502   1.010   5.102   1.851  0.0315 -0.9595 -0.5325
 1029TIP3    H224503   0.947   5.232   1.807  0.7784  0.3395  2.0168
 1030TIP3   OH224504   0.644   4.800  12.452  0.6918  0.0289 -0.0273
 1030TIP3    H124505   0.639   4.893  12.475  0.0869 -0.1797  0.7127
 1030TIP3    H224506   0.609   4.795  12.363  1.4435  0.6069 -0.3655
 1031TIP3   OH224507   0.278   2.763   0.882 -0.6509 -0.2160 -0.0638
 1031TIP3    H124508   0.256   2.852   0.910  1.6877 -0.1274  1.8722
 1031TIP3    H224509   0.357   2.774   0.829  0.3012 -1.1449  1.0872
 1032TIP3   OH224510   6.393   4.497  13.417  0.3763  0.6497  0.0817
 1032TIP3    H124511   6.487   4.495  13.438  0.1578  1.2896  1.1526
 1032TIP3    H224512   6.352   4.439  13.481  0.0411  0.2574 -0.4745
 1033TIP3   OH224513   5.210   3.263   3.398  0.5227  0.6367 -0.2265
 1033TIP3    H124514   5.272   3.264   3.470 -0.0805 -0.0091  0.3208
 1033TIP3    H224515   5.179   3.354   3.392 -0.6050  0.3981  1.3961
 1034TIP3   OH224516   1.225   0.873  13.764  0.3769 -0.1136 -0.2911
 1034TIP3    H124517   1.270   0.883  13.848 -0.3291 -2.6173  0.4754
 1034TIP3    H224518   1.295   0.872  13.699  0.9504  1.5800  0.2408
 1035TIP3   OH224519   0.686   3.204   6.472 -0.5986 -0.3294 -0.0559
 1035TIP3    H124520   0.651   3.291   6.492 -0.1432 -0.6802  2.7977
 1035TIP3    H224521   0.773   3.221   6.437 -0.4532  0.3979  0.6119
 1036TIP3   OH224522   2.686   4.405  15.925  0.1671 -0.1830  0.4834
 1036TIP3    H124523   2.700   4.317  15.891 -2.0122 -1.0442  1.6439
 1036TIP3    H224524   2.772   4.447  15.918  1.2559 -2.3676 -0.1292
 1037TIP3   OH224525   2.692   1.637  13.045 -0.3564 -0.3060  0.6109
 1037TIP3    H124526   2.773   1.647  12.994 -0.5114 -1.1578  0.1824
 1037TIP3    H224527   2.712   1.679  13.129  0.6615 -0.8110  0.6376
 1038TIP3   OH224528   0.589   2.476   4.674 -0.4686 -0.2465 -0.2908
 1038TIP3    H124529   0.685   2.481   4.667 -0.3251 -0.5712  1.1038
 1038TIP3    H224530   0.558   2.488   4.585  0.8988 -0.5543 -0.8392
 1039TIP3   OH224531   4.744   2.745  12.409 -0.1073  0.5365 -0.1733
 1039TIP3    H124532   4.830   2.734  12.369 -0.0317  1.8281 -0.4153
 1039TIP3    H224533   4.695   2.797  12.345 -0.9923  0.0142  0.0656
 1040TIP3   OH224534   4.994   0.091   5.761 -0.5216  0.6685 -0.3488
 1040TIP3    H124535   5.023   0.110   5.850  1.3263 -0.3418 -0.6812
 1040TIP3    H224536   4.908   0.050   5.772 -0.2934  0.4887  0.9780
 1041TIP3   OH224537   5.591   0.758  17.130  0.0453  0.5173  0.0745
 1041TIP3    H124538   5.544   0.690  17.178 -1.8736  1.1807 -0.7643
 1041TIP3    H224539   5.649   0.709  17.071 -0.1220 -0.3467  0.6020
 1042TIP3   OH224540   1.594   5.680  12.605 -0.4309 -0.3039  0.5812
 1042TIP3    H124541   1.617   5.668  12.697  0.6945 -1.1852  0.2094
 1042TIP3    H224542   1.506   5.717  12.607  0.0785  0.9823  2.0461
 1043TIP3   OH224543   0.858   2.075   0.164  0.1648 -0.5049 -0.2462
 1043TIP3    H124544   0.930   2.137   0.151  0.1000 -0.8192 -2.7177
 1043TIP3    H224545   0.838   2.080   0.257  2.1095  1.0005  0.1598
 1044TIP3   OH224546   6.217   4.959  10.951 -0.0552 -0.4567 -0.3555
 1044TIP3    H124547   6.151   4.928  11.014 -0.8089  1.9319  0.1487
 1044TIP3    H224548   6.175   5.033  10.907  1.8630  0.3939 -0.8608
 1045TIP3   OH224549   2.287   1.176   0.714  0.0459 -0.7118 -0.4762
 1045TIP3    H124550   2.366   1.182   0.660 -1.1165  1.3131 -2.0818
 1045TIP3    H224551   2.252   1.265   0.715 -0.7023 -0.9302  2.6178
 1046TIP3   OH224552   4.829   3.561   3.801 -0.3218 -0.1300 -0.1104
 1046TIP3    H124553   4.918   3.543   3.770 -0.1432 -0.4889  0.5893
 1046TIP3    H224554   4.841   3.619   3.876 -0.8051  1.5899 -1.3285
 1047TIP3   OH224555   5.487   1.224  16.996  0.3414 -0.1197  0.7909
 1047TIP3    H124556   5.478   1.161  17.068 -1.1761 -0.6477  0.1956
 1047TIP3    H224557   5.399   1.263  16.988  0.4348 -0.1954 -0.8706
 1048TIP3   OH224558   1.782   6.712  11.062 -0.0765  0.1895 -0.0231
 1048TIP3    H124559   1.739   6.626  11.068 -0.3454  0.0284 -2.8750
 1048TIP3    H224560   1.710   6.775  11.068 -0.6079 -0.0226 -2.8004
 1049TIP3   OH224561   3.139   6.461   1.102  0.1335 -0.1086  0.2642
 1049TIP3    H124562   3.165   6.423   1.018  0.8703  0.0620  0.4064
 1049TIP3    H224563   3.169   6.552   1.097  2.2421 -0.6597  1.5618
 1050TIP3   OH224564   6.717   6.791  12.959 -0.4923 -0.0661 -0.2922
 1050TIP3    H124565   6.739   6.783  12.866 -0.8249 -1.2933 -0.2744
 1050TIP3    H224566   6.677   6.708  12.982 -1.3842  0.6090  0.7032
 1051TIP3   OH224567   3.812   4.671  11.531 -0.0701 -0.1953 -0.3403
 1051TIP3    H124568   3.757   4.679  11.453  0.6360 -0.8166 -0.9239
 1051TIP3    H224569   3.864   4.752  11.532 -1.0000  0.4074  0.2320
 1052TIP3   OH224570   0.859   3.859   1.344  0.3809 -0.1765 -0.7084
 1052TIP3    H124571   0.877   3.953   1.344  1.9020 -0.4422 -0.9199
 1052TIP3    H224572   0.872   3.832   1.435 -2.2110  0.1487 -0.1617
 1053TIP3   OH224573   6.236   2.770   2.578 -0.6968 -0.5034 -0.1128
 1053TIP3    H124574   6.299   2.741   2.511 -0.5319 -1.5704  0.4675
 1053TIP3    H224575   6.151   2.766   2.534 -0.5016 -0.3235 -0.5186
 1054TIP3   OH224576   5.041   1.837  15.672  0.1984  0.5884  0.0421
 1054TIP3    H124577   5.095   1.826  15.750  1.0745  0.8047 -0.5329
 1054TIP3    H224578   5.004   1.925  15.680 -3.5104 -0.9513  2.5576
 1055TIP3   OH224579   6.614   1.744   3.023 -0.3174  0.0414  0.3519
 1055TIP3    H124580   6.580   1.694   2.949  1.0678  0.7464 -0.8087
 1055TIP3    H224581   6.553   1.817   3.034  1.3083  2.0271 -2.5288
 1056TIP3   OH224582   0.381   6.299  14.800 -0.1131  0.2824 -0.0673
 1056TIP3    H124583   0.364   6.225  14.858  0.5555 -0.1566 -0.4223
 1056TIP3    H224584   0.300   6.308  14.749 -0.1447 -0.2986 -0.1256
 1057TIP3   OH224585   0.987   6.248  14.987 -0.1199  0.1136  0.1991
 1057TIP3    H124586   1.038   6.329  14.978  2.3061 -1.2701  0.5642
 1057TIP3    H224587   1.026   6.188  14.923 -0.8799 -1.2117  0.9366
 1058TIP3   OH224588   4.886   6.355   1.338 -0.5474 -0.2840 -0.1546
 1058TIP3    H124589   4.804   6.311   1.316 -0.7632 -0.0881  0.2541
 1058TIP3    H224590   4.944   6.335   1.264 -1.3330  0.5591 -1.0339
 1059TIP3   OH224591   6.483   2.794  15.817  0.2514  0.3035  0.4126
 1059TIP3    H124592   6.439   2.733  15.877 -0.4695  1.3581  0.9726
 1059TIP3    H224593   6.415   2.817  15.753  1.1663 -1.2747 -1.2364
 1060TIP3   OH224594   3.310   1.085  14.999  0.2080 -0.0214  0.3308
 1060TIP3    H124595   3.321   1.132  14.916  0.1804 -1.5939 -0.6087
 1060TIP3    H224596   3.336   0.995  14.979  0.0041 -0.4791  1.9911
 1061TIP3   OH224597   1.444   0.670   4.116 -0.2963 -0.1820  0.0812
 1061TIP3    H124598   1.495   0.674   4.035 -0.0077 -0.1691  0.2626
 1061TIP3    H224599   1.442   0.577   4.139  2.7177  0.0851  1.9958
 1062TIP3   OH224600   3.388   2.071   1.234 -0.1048  1.0249  0.2912
 1062TIP3    H124601   3.342   1.989   1.219  1.4112  0.2835 -0.5730
 1062TIP3    H224602   3.339   2.137   1.184 -0.2568  0.2708 -0.5708
 1063TIP3   OH224603   3.701   4.622   5.689 -0.3400  0.1965  0.3900
 1063TIP3    H124604   3.688   4.608   5.783 -2.1610  0.6131  0.2239
 1063TIP3    H224605   3.721   4.715   5.680  0.2294  0.0802  0.3835
 1064TIP3   OH224606   5.510   5.462  12.645 -0.6981 -0.2428 -0.1982
 1064TIP3    H124607   5.436   5.430  12.593 -0.6784 -1.0535  0.2605
 1064TIP3    H224608   5.524   5.394  12.711 -0.6023  0.6866  0.7531
 1065TIP3   OH224609   6.277   6.153  16.924 -0.2884 -0.1873 -0.4009
 1065TIP3    H124610   6.310   6.181  17.009 -3.3079  1.7813  0.2975
 1065TIP3    H224611   6.284   6.231  16.869 -2.7434  0.0892 -0.4396
 1066TIP3   OH224612   5.156   6.350  17.059 -0.4216  0.4079 -0.3061
 1066TIP3    H124613   5.158   6.388  16.971  0.7694  3.1234  0.7866
 1066TIP3    H224614   5.167   6.425  17.118 -1.5847 -1.2565  2.2068
 1067TIP3   OH224615   3.452   5.351  16.485  0.1863  0.2586 -0.1195
 1067TIP3    H124616   3.476   5.259  16.475  1.9117  0.7744 -1.1883
 1067TIP3    H224617   3.402   5.353  16.566 -0.3914 -1.6992 -0.3679
 1068TIP3   OH224618   2.752   4.138   4.572 -0.2998  0.0304 -0.2942
 1068TIP3    H124619   2.800   4.215   4.601 -0.8862 -0.1069  1.0944
 1068TIP3    H224620   2.740   4.085   4.651 -1.9223 -0.3791 -0.7660
 1069TIP3   OH224621   5.266   5.843   4.959 -0.5404  0.0392  0.7193
 1069TIP3    H124622   5.344   5.807   4.999 -1.1163 -1.6470  0.3855
 1069TIP3    H224623   5.299   5.907   4.895  0.5799 -0.9102  0.3266
 1070TIP3   OH224624   4.988   6.129   1.909  0.2265 -0.2393 -0.6755
 1070TIP3    H124625   5.025   6.190   1.846 -0.5033  0.9085 -0.0272
 1070TIP3    H224626   5.044   6.138   1.987  0.3304 -0.6770 -0.6948
 1071TIP3   OH224627   6.385   4.666   3.282  0.1737  0.3763  0.2536
 1071TIP3    H124628   6.369   4.639   3.373 -0.0200  1.1597  0.4623
 1071TIP3    H224629   6.317   4.732   3.264  0.6201  0.7150 -0.2335
 1072TIP3   OH224630   5.536   4.869   4.261 -0.4879 -0.6434 -0.0596
 1072TIP3    H124631   5.450   4.843   4.228 -1.2401  2.4414 -0.8413
 1072TIP3    H224632   5.519   4.900   4.351 -0.2759  0.1790 -0.2917
 1073TIP3   OH224633   0.198   4.300   2.893  0.0643  0.1644 -0.5263
 1073TIP3    H124634   0.114   4.296   2.847  0.5720 -1.8782 -1.3915
 1073TIP3    H224635   0.260   4.333   2.827  0.4010 -0.8298 -0.7365
 1074TIP3   OH224636   4.819   1.588   4.670  0.7042 -0.4857 -0.3217
 1074TIP3    H124637   4.795   1.503   4.707  1.3195 -0.4709  0.1433
 1074TIP3    H224638   4.898   1.613   4.719 -0.8464  1.5034  1.3467
 1075TIP3   OH224639   5.401   6.524  13.921  0.0846 -0.4090 -0.3824
 1075TIP3    H124640   5.406   6.525  13.826 -0.0379  1.2524 -0.4107
 1075TIP3    H224641   5.336   6.591  13.942  0.7178 -0.1587  0.8847
 1076TIP3   OH224642   5.929   0.538  11.267  0.7815  0.5578 -0.7704
 1076TIP3    H124643   5.918   0.563  11.359  0.2444 -1.1573 -0.3322
 1076TIP3    H224644   6.015   0.495  11.264  1.6596  2.2671 -1.4913
 1077TIP3   OH224645   5.746   6.051   4.314 -0.7602 -0.4142  0.6478
 1077TIP3    H124646   5.705   6.132   4.343 -2.3290 -0.6908 -0.6648
 1077TIP3    H224647   5.765   6.065   4.222 -1.5169 -1.6974  0.2742
 1078TIP3   OH224648   6.315   5.894   1.077 -0.4571  0.1638  0.2627
 1078TIP3    H124649   6.409   5.878   1.063 -0.9164 -1.0687 -1.7268
 1078TIP3    H224650   6.300   5.981   1.041 -0.7546 -1.2124 -3.3046
 1079TIP3   OH224651   6.690   2.392   0.862 -0.2300  0.1501  0.0580
 1079TIP3    H124652   6.747   2.456   0.904  1.0084 -1.7271  1.4551
 1079TIP3    H224653   6.750   2.332   0.818 -0.9649 -2.2791  2.1123
 1080TIP3   OH224654   1.247   1.890  14.056 -0.4383  0.1764 -0.2394
 1080TIP3    H124655   1.173   1.875  14.115 -0.8908 -0.9080 -1.0609
 1080TIP3    H224656   1.258   1.985  14.056 -1.4532  0.3146  0.3449
 1081TIP3   OH224657   2.778   4.984   3.061  0.1350 -0.3584 -0.0621
 1081TIP3    H124658   2.722   5.061   3.054 -0.2886 -0.8007 -2.6653
 1081TIP3    H224659   2.837   5.003   3.134 -0.1660  2.2679 -0.4186
 1082TIP3   OH224660   6.651   1.089   3.708 -0.9960 -0.0580 -0.7511
 1082TIP3    H124661   6.673   1.003   3.743  0.1770 -0.6347 -2.7613
 1082TIP3    H224662   6.581   1.071   3.644 -0.6658  0.4584 -1.2630
 1083TIP3   OH224663   2.889   5.464  16.097 -0.3678 -0.6624 -0.1064
 1083TIP3    H124664   2.837   5.537  16.131  0.6640 -0.9640  2.3059
 1083TIP3    H224665   2.978   5.498  16.094 -0.0744 -1.4243 -0.2011
 1084TIP3   OH224666   3.689   4.615   5.956  0.5617 -0.4274  0.4995
 1084TIP3    H124667   3.670   4.709   5.959  0.8413 -0.0676 -3.5257
 1084TIP3    H224668   3.636   4.578   6.026 -1.2608  2.4715  0.8315
 1085TIP3   OH224669   6.293   2.843  15.623  0.5214  0.4082 -0.1634
 1085TIP3    H124670   6.198   2.831  15.621  0.4250  1.2133 -1.1373
 1085TIP3    H224671   6.320   2.830  15.532  1.4358 -0.4706  0.2189
 1086TIP3   OH224672   0.329   0.691   3.517  0.2359 -0.3044 -0.4204
 1086TIP3    H124673   0.424   0.684   3.507  0.4144 -0.4807  1.1485
 1086TIP3    H224674   0.310   0.783   3.496  0.7870 -0.2273 -0.5929
 1087TIP3   OH224675   5.860   4.669   5.943  0.5307 -0.1378 -0.0175
 1087TIP3    H124676   5.797   4.609   5.904  0.9613  0.4062 -1.6167
 1087TIP3    H224677   5.858   4.747   5.888  0.9521  0.8026  1.2366
 1088TIP3   OH224678   0.583   5.968   1.721 -0.2392  0.3374  0.3043
 1088TIP3    H124679   0.657   5.910   1.736 -1.6869 -1.3877  1.2040
 1088TIP3    H224680   0.609   6.023   1.647  1.6574 -0.6416  0.1961
 1089TIP3   OH224681   3.582   1.436   1.219  0.1884 -0.0670  0.2799
 1089TIP3    H124682   3.510   1.388   1.261 -0.2929 -0.3377 -0.8010
 1089TIP3    H224683   3.653   1.372   1.214  0.5300  0.2085  1.3769
 1090TIP3   OH224684   5.041   1.448   1.128  0.5274  0.0142  0.2122
 1090TIP3    H124685   5.040   1.542   1.148 -1.1739  0.5388 -1.9608
 1090TIP3    H224686   4.978   1.410   1.189 -0.4356  0.6750 -0.3369
 1091TIP3   OH224687   0.620   3.030  14.150 -0.1900  0.2277  0.4532
 1091TIP3    H124688   0.644   3.009  14.060  0.5809 -0.3019  0.7676
 1091TIP3    H224689   0.548   3.092  14.142 -1.1426 -0.9517 -0.5351
 1092TIP3   OH224690   2.546   2.415  12.855 -0.4605 -0.4401  0.1733
 1092TIP3    H124691   2.521   2.332  12.896 -1.0616 -1.7041 -2.4989
 1092TIP3    H224692   2.608   2.390  12.787  3.4199  1.9464  2.4733
 1093TIP3   OH224693   5.784   2.834  16.277 -0.0227 -0.3074  0.3924
 1093TIP3    H124694   5.832   2.843  16.195  0.6809 -0.4948  0.7734
 1093TIP3    H224695   5.697   2.869  16.259 -0.3616 -1.7213 -0.8663
 1094TIP3   OH224696   4.572   2.054   2.697  0.4917  0.3448 -0.0146
 1094TIP3    H124697   4.567   1.959   2.711  2.1310  0.3901  1.1723
 1094TIP3    H224698   4.482   2.084   2.708  0.1237 -0.9388  0.8020
 1095TIP3   OH224699   0.113   6.406  13.104 -0.1497 -0.0215  0.1313
 1095TIP3    H124700   0.177   6.334  13.114  1.1576  1.2949  2.0519
 1095TIP3    H224701   0.160   6.472  13.053 -0.2989  0.6053  0.8011
 1096TIP3   OH224702   0.170   1.282   2.794  0.0498 -0.0424  0.1122
 1096TIP3    H124703   0.252   1.332   2.794 -0.4417  0.7871  0.7702
 1096TIP3    H224704   0.186   1.210   2.733  0.0647  2.0645 -2.5651
 1097TIP3   OH224705   5.131   3.313   6.059  0.3302 -0.4227  0.3160
 1097TIP3    H124706   5.048   3.359   6.048 -0.2649 -1.5136  0.0200
 1097TIP3    H224707   5.129   3.282   6.150  0.4748 -0.3317  0.3502
 1098TIP3   OH224708   4.456   1.299  12.721 -0.1909  0.1160 -0.1751
 1098TIP3    H124709   4.416   1.212  12.718  1.2492 -0.5977  0.6283
 1098TIP3    H224710   4.436   1.331  12.809 -0.8244  0.6798 -0.5088
 1099TIP3   OH224711   0.026   0.712   2.322 -0.4217 -0.2001 -0.1919
 1099TIP3    H124712   0.074   0.795   2.318 -1.0250  0.1415 -0.4054
 1099TIP3    H224713   0.014   0.686   2.231  0.9588 -1.2345 -0.1160
 1100TIP3   OH224714   2.534   4.930  15.160 -0.0678  0.1528 -0.2602
 1100TIP3    H124715   2.465   4.994  15.176 -0.6658 -0.3683 -0.6992
 1100TIP3    H224716   2.559   4.900  15.247 -0.6435  0.0922 -0.1108
 1101TIP3   OH224717   6.290   1.241  13.408  0.6127  0.6044  0.2071
 1101TIP3    H124718   6.365   1.255  13.465  0.7578  0.0962  0.1460
 1101TIP3    H224719   6.302   1.305  13.337 -0.2162  2.0940  1.3527
 1102TIP3   OH224720   0.609   0.619   2.032  0.5542 -0.4234  0.3837
 1102TIP3    H124721   0.648   0.547   1.982  0.6966  0.9270 -1.5559
 1102TIP3    H224722   0.642   0.698   1.990 -1.6447  0.7928  0.7684
 1103TIP3   OH224723   3.909   0.441   0.238  0.4977  0.4483  0.0088
 1103TIP3    H124724   3.819   0.473   0.246  0.7067  0.9806  0.2805
 1103TIP3    H224725   3.900   0.352   0.204 -0.2147 -0.1892  1.7957
 1104TIP3   OH224726   1.237   1.885   3.835 -0.6167  0.1684 -0.5445
 1104TIP3    H124727   1.255   1.902   3.743 -0.5864  0.8449 -0.4210
 1104TIP3    H224728   1.258   1.792   3.847  1.3032  0.5154 -0.7683
 1105TIP3   OH224729   5.316   5.740  12.685 -0.1169  0.2170 -0.5104
 1105TIP3    H124730   5.267   5.724  12.603 -0.3388 -0.9066 -0.1865
 1105TIP3    H224731   5.365   5.659  12.699  1.7971  1.2745 -0.7603
 1106TIP3   OH224732   3.557   5.651  11.789  0.6521  0.1436 -0.5468
 1106TIP3    H124733   3.483   5.594  11.808  1.7190 -0.5098  2.0133
 1106TIP3    H224734   3.570   5.643  11.694  0.3713 -3.4154 -0.4156
 1107TIP3   OH224735   2.737   1.732  15.484 -0.6310 -0.4886 -0.5129
 1107TIP3    H124736   2.815   1.721  15.538 -0.8495 -1.8592 -0.4577
 1107TIP3    H224737   2.762   1.800  15.420 -0.0554  0.4606  0.6777
 1108TIP3   OH224738   1.161   4.698   2.286 -0.1346  0.5130 -0.3084
 1108TIP3    H124739   1.125   4.630   2.344 -0.1242 -0.2748 -1.1972
 1108TIP3    H224740   1.085   4.745   2.253 -0.2451  0.0102 -0.7864
 1109TIP3   OH224741   2.305   4.192   5.182 -0.1829 -0.2009  0.1544
 1109TIP3    H124742   2.396   4.184   5.154 -0.3549 -1.3990 -0.1572
 1109TIP3    H224743   2.308   4.248   5.259  0.6227  1.0575 -0.7552
 1110TIP3   OH224744   3.085   2.365  14.790  0.3320  0.0471 -0.3981
 1110TIP3    H124745   3.032   2.432  14.834 -0.4550 -1.1518  0.5409
 1110TIP3    H224746   3.173   2.402  14.788  0.5153  0.0410  2.5894
 1111TIP3   OH224747   0.923   1.677  10.718 -0.3904 -0.7006  0.0711
 1111TIP3    H124748   0.971   1.604  10.758  0.1001 -0.1970  0.4113
 1111TIP3    H224749   0.832   1.650  10.722 -0.4944 -0.2252  2.5718
 1112TIP3   OH224750   2.884   2.436  15.957 -0.2953 -0.5337  0.0685
 1112TIP3    H124751   2.902   2.520  15.917 -2.5786  1.0851  2.0960
 1112TIP3    H224752   2.959   2.420  16.015 -0.3694  0.7461  0.5529
 1113TIP3   OH224753   0.948   6.670   5.901 -0.0454 -0.0313 -0.0557
 1113TIP3    H124754   0.932   6.579   5.876 -0.2135  0.0865 -0.3851
 1113TIP3    H224755   1.002   6.664   5.979  1.6073 -0.4152 -1.1658
 1114TIP3   OH224756   6.042   6.724   5.143  0.1467 -0.0438  0.1681
 1114TIP3    H124757   6.004   6.656   5.087  0.9960  0.6297 -1.2819
 1114TIP3    H224758   5.968   6.775   5.173 -0.4646 -1.2912  0.8846
 1115TIP3   OH224759   2.624   5.920  15.025  0.1401 -0.3018 -0.0321
 1115TIP3    H124760   2.566   5.898  15.098 -1.5593  0.7711 -1.0073
 1115TIP3    H224761   2.626   6.016  15.023  1.3817 -0.3204 -0.4645
 1116TIP3   OH224762   2.697   3.917   1.056 -0.6395  0.0328  0.4094
 1116TIP3    H124763   2.631   3.871   1.108 -0.9617 -0.5394 -0.4687
 1116TIP3    H224764   2.719   3.855   0.987 -1.7918  1.5125 -1.3879
 1117TIP3   OH224765   5.683   5.763   1.769  0.1506  0.1586 -0.2894
 1117TIP3    H124766   5.762   5.721   1.737 -1.5866 -2.2094 -1.7609
 1117TIP3    H224767   5.667   5.834   1.707 -0.6643 -1.5177 -2.1138
 1118TIP3   OH224768   0.302   1.568   3.067 -0.5185  0.1247 -0.3203
 1118TIP3    H124769   0.232   1.504   3.051  0.6713 -1.3460  0.1882
 1118TIP3    H224770   0.271   1.648   3.024 -2.6177 -0.4074  0.0943
 1119TIP3   OH224771   2.520   4.901  12.920  0.2764 -0.4166 -0.0244
 1119TIP3    H124772   2.582   4.837  12.885  0.4390  0.3626 -1.2222
 1119TIP3    H224773   2.443   4.850  12.943 -0.4089 -0.8664 -2.8768
 1120TIP3   OH224774   2.397   3.981  16.911 -0.2806 -0.1487  0.4170
 1120TIP3    H124775   2.343   3.961  16.834  1.2677  0.3304 -0.8496
 1120TIP3    H224776   2.343   3.954  16.986 -2.9698  1.8166 -0.6420
 1121TIP3   OH224777   2.376   0.537  13.900  0.9344 -0.3049  0.2205
 1121TIP3    H124778   2.290   0.497  13.889  0.5805  0.5823 -0.3112
 1121TIP3    H224779   2.438   0.465  13.883  0.3050 -0.7699 -0.1312
 1122TIP3   OH224780   2.238   3.142  14.540  0.5300  0.0174 -0.2743
 1122TIP3    H124781   2.145   3.119  14.535  0.5594 -0.0206 -0.7386
 1122TIP3    H224782   2.255   3.188  14.458  0.8380  0.3359 -0.0280
 1123TIP3   OH224783   1.744   0.595  14.720 -0.4582  0.1696  0.4074
 1123TIP3    H124784   1.699   0.679  14.717  1.2954  1.1310 -0.9542
 1123TIP3    H224785   1.830   0.614  14.759  0.4720 -0.6811 -1.0957
 1124TIP3   OH224786   2.708   4.205  14.828  0.2576  0.1810  0.1497
 1124TIP3    H124787   2.765   4.129  14.816  0.2605  0.2670 -0.3801
 1124TIP3    H224788   2.622   4.168  14.848  0.2631  0.0409 -0.0863
 1125TIP3   OH224789   2.068   0.226   3.983 -0.2696  0.0872 -0.7688
 1125TIP3    H124790   2.027   0.303   3.943  1.4235  0.8191 -1.1756
 1125TIP3    H224791   2.104   0.177   3.909 -0.6661 -0.6932 -0.4485
 1126TIP3   OH224792   3.737   4.036  16.975  0.1311 -0.3595  0.2373
 1126TIP3    H124793   3.742   3.971  16.905  1.0559  0.2531 -0.2874
 1126TIP3    H224794   3.745   3.985  17.055  0.8186 -0.9003 -0.1629
 1127TIP3   OH224795   0.140   5.686  16.100 -0.2309  0.1928  0.1914
 1127TIP3    H124796   0.136   5.665  16.006 -0.8151 -1.5320  0.5682
 1127TIP3    H224797   0.085   5.763  16.109 -0.2540  0.3219 -0.8672
 1128TIP3   OH224798   6.071   5.841   2.343 -0.5201  0.3230  0.2224
 1128TIP3    H124799   6.041   5.887   2.264 -1.2216 -0.4198  0.0418
 1128TIP3    H224800   6.153   5.799   2.317 -1.4204 -1.0360 -0.5407
 1129TIP3   OH224801   1.882   5.758  15.203 -0.2178 -0.1821  0.2339
 1129TIP3    H124802   1.971   5.758  15.237 -0.4407  1.9379  0.9725
 1129TIP3    H224803   1.851   5.848  15.215 -2.5537 -0.9077  0.2232
 1130TIP3   OH224804   6.384   2.686  16.651 -0.2398  0.5735  0.4863
 1130TIP3    H124805   6.456   2.635  16.615 -1.4344 -0.7997 -0.0586
 1130TIP3    H224806   6.359   2.745  16.580  0.5013  1.2489  0.7718
 1131TIP3   OH224807   0.247   0.106   6.417 -0.0397 -0.4410  0.2558
 1131TIP3    H124808   0.175   0.170   6.418 -0.4925 -0.8096 -2.1098
 1131TIP3    H224809   0.288   0.114   6.503 -1.4939  1.4074  0.8411
 1132TIP3   OH224810   6.173   0.002  13.061  0.0730  0.0796  0.1992
 1132TIP3    H124811   6.145  -0.017  12.972  1.0535  1.2501 -0.3777
 1132TIP3    H224812   6.091   0.005  13.112 -0.7959  2.1783 -1.1937
 1133TIP3   OH224813   0.257   5.914  11.377  0.2908  0.1430 -0.1657
 1133TIP3    H124814   0.186   5.850  11.369  2.2072 -2.6161  2.6055
 1133TIP3    H224815   0.333   5.871  11.337  1.3928  1.1427  0.7903
 1134TIP3   OH224816   3.381   1.676   2.192 -0.2757  0.1405  0.8610
 1134TIP3    H124817   3.352   1.745   2.132 -2.2556 -1.1455  0.2440
 1134TIP3    H224818   3.454   1.634   2.146 -0.3238  0.5865  0.3682
 1135TIP3   OH224819   4.432   6.312   1.325  0.6091  0.1098  0.0484
 1135TIP3    H124820   4.451   6.342   1.414  0.8967 -1.8769  0.7042
 1135TIP3    H224821   4.513   6.270   1.297  0.2522  0.0315 -0.8629
 1136TIP3   OH224822   2.850   4.119   1.464 -0.0623  0.2966 -0.3764
 1136TIP3    H124823   2.907   4.144   1.391  1.0818 -1.0965  0.0052
 1136TIP3    H224824   2.768   4.166   1.447  1.1665  2.3781 -0.9196
 1137TIP3   OH224825   4.520   3.867   4.652 -0.2016  0.2926 -0.1280
 1137TIP3    H124826   4.529   3.799   4.719  0.6848  1.1325  0.6411
 1137TIP3    H224827   4.466   3.827   4.584  1.2651 -1.6241 -0.2703
 1138TIP3   OH224828   3.383   4.691   2.270  0.2623  0.3187 -0.0561
 1138TIP3    H124829   3.355   4.780   2.291  0.2552  0.5301 -0.9258
 1138TIP3    H224830   3.344   4.673   2.185  2.0022  0.2860 -0.9027
 1139TIP3   OH224831   5.322   3.172  14.692  0.6631  0.3876 -0.3316
 1139TIP3    H124832   5.238   3.211  14.669  0.0568  0.6484  2.0165
 1139TIP3    H224833   5.299   3.091  14.738  1.7626 -0.2154 -0.7974
 1140TIP3   OH224834   0.934   0.689  10.821  0.0065  0.0643  0.2992
 1140TIP3    H124835   0.984   0.771  10.826  1.1960 -0.6408  0.2798
 1140TIP3    H224836   0.933   0.668  10.727 -1.8915  0.9775  0.0576
 1141TIP3   OH224837   1.852   5.117  14.535  0.0693 -0.2442  0.1297
 1141TIP3    H124838   1.783   5.184  14.530  1.1641  1.0503  1.4407
 1141TIP3    H224839   1.835   5.072  14.618 -0.5957 -1.5739 -0.6930
 1142TIP3   OH224840   3.505   4.479   5.577  0.2682 -0.4502  0.0976
 1142TIP3    H124841   3.451   4.489   5.655  0.4483  2.1981 -0.0114
 1142TIP3    H224842   3.590   4.514   5.603 -0.0533  1.8049 -1.5898
 1143TIP3   OH224843   4.171   0.555   0.226  0.1212  0.5708 -0.0473
 1143TIP3    H124844   4.095   0.498   0.242  0.1030  1.0062  1.5345
 1143TIP3    H224845   4.211   0.519   0.147 -0.2055 -1.3159  0.5954
 1144TIP3   OH224846   2.050   1.316  15.362 -0.5831 -0.8612 -0.2782
 1144TIP3    H124847   2.113   1.285  15.298 -0.7739 -1.4698 -0.1818
 1144TIP3    H224848   2.088   1.397  15.396 -0.0743 -0.9808 -0.5473
 1145TIP3   OH224849   1.973   0.094   1.115 -0.0097 -0.9268  0.1219
 1145TIP3    H124850   1.932   0.021   1.069 -0.6547 -0.4716 -0.0409
 1145TIP3    H224851   2.039   0.053   1.172  0.4579 -1.5363 -0.8256
 1146TIP3   OH224852   4.443   1.176  14.504  0.4039  0.3782 -0.1897
 1146TIP3    H124853   4.402   1.104  14.455 -1.0776 -0.6725  2.4060
 1146TIP3    H224854   4.369   1.230  14.532  1.0148  0.1861  1.9681
 1147TIP3   OH224855   1.630   2.831  14.105 -0.3168 -0.1802 -0.3749
 1147TIP3    H124856   1.616   2.795  14.192  2.0979 -1.0802 -0.2807
 1147TIP3    H224857   1.549   2.880  14.085 -1.6635 -1.4995  1.5564
 1148TIP3   OH224858   1.389   1.278   6.137 -0.0041  0.1870  0.1199
 1148TIP3    H124859   1.330   1.248   6.206  0.4024  1.1736  0.9054
 1148TIP3    H224860   1.463   1.317   6.183  1.0569 -0.6034 -0.8581
 1149TIP3   OH224861   6.748   2.520   5.743 -0.3911  0.0433  0.2897
 1149TIP3    H124862   6.796   2.575   5.804  0.3249 -2.5921  2.2688
 1149TIP3    H224863   6.760   2.431   5.776 -0.2122 -1.5419 -3.5340
 1150TIP3   OH224864   1.842   1.447  11.548  0.0103  0.1667  0.1895
 1150TIP3    H124865   1.754   1.446  11.512 -0.3381  1.7760  0.8854
 1150TIP3    H224866   1.899   1.460  11.472 -0.2827 -1.3477 -0.3167
 1151TIP3   OH224867   3.764   6.088  13.994 -0.8446 -0.0377  0.4722
 1151TIP3    H124868   3.856   6.062  13.982 -0.6190  1.1227 -0.5823
 1151TIP3    H224869   3.767   6.158  14.059 -0.7738  0.9579 -0.5557
 1152TIP3   OH224870   1.055   1.708   0.078 -0.0469 -0.0153 -0.6646
 1152TIP3    H124871   1.070   1.774   0.011  0.8062 -0.7217 -1.1853
 1152TIP3    H224872   0.993   1.647   0.038 -0.3269  0.1032 -0.4227
 1153TIP3   OH224873   5.415   1.167  16.140  0.2204  0.1992  0.0172
 1153TIP3    H124874   5.437   1.078  16.113 -0.0061  0.4463 -1.0270
 1153TIP3    H224875   5.484   1.222  16.101 -1.7537  0.9173 -2.7880
 1154TIP3   OH224876   1.294   2.124  16.900 -0.1353 -0.2529 -0.1182
 1154TIP3    H124877   1.266   2.185  16.968 -1.4687  0.0247 -0.8851
 1154TIP3    H224878   1.386   2.147  16.883 -0.5748  1.4620 -0.3127
 1155TIP3   OH224879   4.293   2.275  13.311 -0.1413 -0.2425 -0.7280
 1155TIP3    H124880   4.276   2.368  13.293 -1.1653 -0.6065 -1.7699
 1155TIP3    H224881   4.224   2.250  13.372  0.8605 -0.0418  0.5266
 1156TIP3   OH224882   2.838   4.399  14.226 -0.5241  0.2115 -0.3925
 1156TIP3    H124883   2.894   4.454  14.171  3.6149 -1.5683  1.5704
 1156TIP3    H224884   2.822   4.321  14.173 -0.8823  0.5733 -0.8298
 1157TIP3   OH224885   6.642   0.299  13.257  0.3408 -0.4673 -0.1314
 1157TIP3    H124886   6.722   0.308  13.206  0.9840 -1.6963  0.6223
 1157TIP3    H224887   6.572   0.304  13.192  0.9580  1.3964 -0.7078
 1158TIP3   OH224888   3.103   3.900  13.341  0.0893  0.2428  0.0558
 1158TIP3    H124889   3.060   3.917  13.257 -0.5802  1.9557  0.7137
 1158TIP3    H224890   3.055   3.826  13.378 -1.3315  1.1340  0.0690
 1159TIP3   OH224891   6.734   1.929  15.540  0.1404 -0.0639  0.1691
 1159TIP3    H124892   6.814   1.915  15.489 -1.0500  0.8776 -2.0586
 1159TIP3    H224893   6.761   1.987  15.611  1.3546  0.6768 -0.8474
 1160TIP3   OH224894   4.692   4.707  16.018 -0.1384 -0.0769  0.5811
 1160TIP3    H124895   4.609   4.754  16.025  0.4807  1.0243  0.7496
 1160TIP3    H224896   4.735   4.724  16.102  0.0251 -1.1181  0.7213
 1161TIP3   OH224897   6.696   3.491  14.008  0.5174  0.3688 -0.0724
 1161TIP3    H124898   6.608   3.457  14.017  0.5215  0.1522 -0.7978
 1161TIP3    H224899   6.728   3.499  14.098 -0.8230  2.0240  0.2918
 1162TIP3   OH224900   4.240   3.249  14.272 -0.9453  0.1530 -0.2000
 1162TIP3    H124901   4.197   3.323  14.229  0.5048  0.3831 -1.3528
 1162TIP3    H224902   4.316   3.289  14.315 -0.4633 -0.5761 -0.3599
 1163TIP3   OH224903   0.146   5.292   5.109 -0.1913 -0.1869 -0.6178
 1163TIP3    H124904   0.231   5.254   5.090  0.3258  0.2985  0.6110
 1163TIP3    H224905   0.108   5.310   5.023  1.0420 -0.2001 -1.1846
 1164TIP3   OH224906   2.259   0.770  11.842  0.4417 -0.1605 -0.0780
 1164TIP3    H124907   2.279   0.830  11.913  1.6251 -0.2922 -0.2786
 1164TIP3    H224908   2.165   0.780  11.827  0.1821 -0.1057  1.4720
 1165TIP3   OH224909   3.948   6.186  12.291 -0.3345  0.4068  0.9364
 1165TIP3    H124910   3.967   6.098  12.260  0.0709  1.5899 -2.5361
 1165TIP3    H224911   3.854   6.197  12.275 -0.5340  0.3889  2.0349
 1166TIP3   OH224912   1.793   6.008   4.380 -0.1450  0.1387 -0.0525
 1166TIP3    H124913   1.808   5.979   4.470  0.7494  1.8926  0.3980
 1166TIP3    H224914   1.790   5.927   4.329  1.7004 -0.7873  1.2038
 1167TIP3   OH224915   5.706   2.352   5.183 -0.0794  0.2351 -0.3403
 1167TIP3    H124916   5.726   2.431   5.233  0.8610  0.4204 -0.9703
 1167TIP3    H224917   5.718   2.281   5.246 -1.1431  0.5942  0.2884
 1168TIP3   OH224918   1.632   2.464   3.510  0.2869 -0.3665 -0.0119
 1168TIP3    H124919   1.637   2.503   3.597 -2.2709 -0.4762  0.2618
 1168TIP3    H224920   1.723   2.455   3.482  1.1078  2.9228  1.1759
 1169TIP3   OH224921   3.356   5.826   3.920  0.0988 -0.3820 -0.0555
 1169TIP3    H124922   3.285   5.875   3.878  1.3821  2.0262  0.4147
 1169TIP3    H224923   3.410   5.795   3.847 -0.6073 -0.9573 -0.3476
 1170TIP3   OH224924   2.090   5.500   1.691  0.0378  0.0664  0.1566
 1170TIP3    H124925   2.059   5.488   1.601 -0.9345  0.4811  0.4199
 1170TIP3    H224926   2.158   5.567   1.685  0.2608 -0.1986 -0.3164
 1171TIP3   OH224927   1.549   3.240   4.623 -0.2462 -0.1655 -0.0211
 1171TIP3    H124928   1.579   3.161   4.576 -0.5936 -0.9530  1.0558
 1171TIP3    H224929   1.628   3.292   4.633  0.3165 -1.1157  0.6481
 1172TIP3   OH224930   2.234   0.999  12.313 -0.1690  0.3037 -0.4639
 1172TIP3    H124931   2.195   1.082  12.341  0.3282  0.0454  1.0971
 1172TIP3    H224932   2.159   0.941  12.298 -0.4647  0.5054  0.2090
 1173TIP3   OH224933   5.162   3.769  14.432 -0.3693 -0.4073  0.0032
 1173TIP3    H124934   5.231   3.718  14.474 -0.9642 -0.0323  1.4904
 1173TIP3    H224935   5.132   3.713  14.360  2.5794  0.1050 -1.8077
 1174TIP3   OH224936   4.705   3.730  16.749 -0.0040 -0.3858 -0.2069
 1174TIP3    H124937   4.660   3.726  16.664  1.0628 -1.8528 -0.7434
 1174TIP3    H224938   4.789   3.772  16.730 -0.4772  0.9294  0.4944
 1175TIP3   OH224939   5.618   1.970   4.008 -0.2263  0.3130  0.0552
 1175TIP3    H124940   5.608   1.968   3.913 -2.4512  2.3316  0.1539
 1175TIP3    H224941   5.536   1.933   4.041  0.0775  0.6375  1.2012
 1176TIP3   OH224942   3.604   1.762  15.898  0.2266 -0.2705 -0.1331
 1176TIP3    H124943   3.590   1.833  15.836 -3.2727 -1.5124 -0.9971
 1176TIP3    H224944   3.693   1.732  15.880 -0.1358  0.3397 -3.6203
 1177TIP3   OH224945   0.387   6.227   0.274 -0.0929 -0.5223 -0.2529
 1177TIP3    H124946   0.451   6.298   0.264  0.6038 -1.2155 -0.8396
 1177TIP3    H224947   0.303   6.272   0.284  0.3054  0.3835 -0.8426
 1178TIP3   OH224948   2.921   0.404  11.092 -0.7336  0.4207 -0.1761
 1178TIP3    H124949   2.947   0.337  11.155 -1.2756  0.6884  0.3421
 1178TIP3    H224950   3.004   0.444  11.065 -0.5696  1.2666  1.4539
 1179TIP3   OH224951   4.809   1.246  12.307  0.4508  0.1464  0.0795
 1179TIP3    H124952   4.780   1.303  12.377  0.9450 -0.5403  0.8567
 1179TIP3    H224953   4.899   1.222  12.330  0.5977 -0.1368 -0.7478
 1180TIP3   OH224954   3.896   6.529   1.911  0.1455  0.2769 -0.6194
 1180TIP3    H124955   3.945   6.447   1.904  0.9233  0.8714 -4.6043
 1180TIP3    H224956   3.963   6.594   1.933  0.3740  0.4390 -1.7422
 1181TIP3   OH224957   3.235   4.245  12.005  0.3164  0.5203 -0.4279
 1181TIP3    H124958   3.144   4.256  11.976 -1.0142 -2.4996  2.0619
 1181TIP3    H224959   3.268   4.334  12.015 -2.0816  1.7131 -2.1160
 1182TIP3   OH224960   5.801   4.291   6.139 -0.3348  0.1324  0.0757
 1182TIP3    H124961   5.876   4.306   6.197  1.3835  1.7723 -2.3647
 1182TIP3    H224962   5.807   4.198   6.116  0.7386  0.1459  0.2336
 1183TIP3   OH224963   4.920   2.433  12.101  0.4311  0.2935 -0.8240
 1183TIP3    H124964   4.996   2.491  12.098  0.6670 -0.0385 -2.5295
 1183TIP3    H224965   4.952   2.350  12.065 -0.1155 -0.6517  0.8159
 1184TIP3   OH224966   5.365   6.116   0.383 -0.3751 -0.4972  0.2271
 1184TIP3    H124967   5.338   6.081   0.468 -1.6989 -1.4319 -0.5293
 1184TIP3    H224968   5.390   6.039   0.332 -1.1506 -0.1332 -0.7365
 1185TIP3   OH224969   2.292   6.503  16.570 -0.7036 -0.3297  0.0008
 1185TIP3    H124970   2.379   6.522  16.535 -0.7704 -1.4421 -0.8501
 1185TIP3    H224971   2.309   6.472  16.660 -0.4081  1.2169  0.5053
 1186TIP3   OH224972   5.575   4.967  10.512  0.2400 -0.3618 -0.6821
 1186TIP3    H124973   5.483   4.994  10.520  0.6568  0.6329  1.5333
 1186TIP3    H224974   5.575   4.875  10.539 -0.1211 -0.4230 -0.8784
 1187TIP3   OH224975   1.115   5.453   2.106 -0.5786  0.9462 -0.1781
 1187TIP3    H124976   1.148   5.365   2.086 -1.4991  0.6892 -0.6196
 1187TIP3    H224977   1.077   5.483   2.023 -1.0299  1.4176  0.1966
 1188TIP3   OH224978   2.920   0.833   6.415 -0.0384 -0.3564 -0.2907
 1188TIP3    H124979   2.948   0.917   6.451  0.7742  0.4081 -2.5466
 1188TIP3    H224980   2.907   0.778   6.492 -0.3628  1.7284  1.2588
 1189TIP3   OH224981   5.181   1.054  13.755  0.5401 -0.2806  0.3050
 1189TIP3    H124982   5.182   0.986  13.822  0.0688 -0.7737 -0.1729
 1189TIP3    H224983   5.088   1.069  13.737  0.6223 -1.7186 -1.7556
 1190TIP3   OH224984   1.546   5.265  16.307  0.0537 -0.4970 -0.1638
 1190TIP3    H124985   1.527   5.210  16.382 -1.5740 -1.5762 -1.2998
 1190TIP3    H224986   1.575   5.203  16.239 -2.3315 -0.0946 -1.6354
 1191TIP3   OH224987   1.490   3.706  16.660  0.6879  0.3173 -0.2975
 1191TIP3    H124988   1.554   3.678  16.725 -0.3390 -0.7185  0.3157
 1191TIP3    H224989   1.525   3.788  16.624  1.2358  0.9772  1.6382
 1192TIP3   OH224990   4.533   0.315  14.271  1.0835  0.0310 -0.2765
 1192TIP3    H124991   4.561   0.301  14.361  1.6573  0.6914 -0.3358
 1192TIP3    H224992   4.519   0.227  14.236 -0.5315 -0.1973  0.8615
 1193TIP3   OH224993   6.576   2.686  12.078  0.7044 -0.5633  0.2608
 1193TIP3    H124994   6.640   2.728  12.135  0.4273 -0.3790  0.4412
 1193TIP3    H224995   6.595   2.592  12.085  2.5308 -0.3881 -1.6008
 1194TIP3   OH224996   5.330   0.763   4.127  0.0423 -0.1054  0.2324
 1194TIP3    H124997   5.337   0.858   4.121  0.8152 -0.2159 -1.5446
 1194TIP3    H224998   5.323   0.745   4.220 -0.1324  1.6904  0.6086
 1195TIP3   OH224999   0.374   6.781  11.303 -0.3829  0.2710  0.3797
 1195TIP3    H125000   0.318   6.781  11.225  0.7651 -2.4842 -0.5682
 1195TIP3    H225001   0.319   6.815  11.373 -3.0138 -1.5860 -0.6589
 1196TIP3   OH225002   3.700   4.948  11.082  0.0276 -0.5403  0.4556
 1196TIP3    H125003   3.714   4.912  11.169  1.0320  0.4108  0.7060
 1196TIP3    H225004   3.605   4.943  11.069 -0.0501 -1.3976  1.2823
 1197TIP3   OH225005   4.950   1.118  13.476  0.3734  0.3259  0.1173
 1197TIP3    H125006   4.899   1.191  13.440  0.5525  1.7310  2.4957
 1197TIP3    H225007   4.934   1.122  13.570  2.2142 -1.3264  0.5659
 1198TIP3   OH225008   1.754   5.170   5.993  0.2734  0.4784  0.1753
 1198TIP3    H125009   1.729   5.255   6.027  0.6796  1.2641 -1.3765
 1198TIP3    H225010   1.738   5.109   6.065 -0.2267  1.8232  1.2420
 1199TIP3   OH225011   0.565   6.469  12.924  0.2285 -1.0411 -0.0709
 1199TIP3    H125012   0.630   6.509  12.866 -1.1944  2.4812  0.4852
 1199TIP3    H225013   0.616   6.432  12.996  1.7946  3.4234  1.4511
 1200TIP3   OH225014   5.274   0.304  11.478 -0.4266 -0.0839  0.3278
 1200TIP3    H125015   5.273   0.282  11.571 -0.4340  0.1767  0.3899
 1200TIP3    H225016   5.366   0.326  11.460 -0.6336  1.0017  0.5414
 1201TIP3   OH225017   4.478   3.594   2.923 -0.0193  0.0720  0.1230
 1201TIP3    H125018   4.560   3.555   2.954 -0.1117  0.2157  0.5539
 1201TIP3    H225019   4.425   3.605   3.002 -0.8899 -1.0287 -0.2780
 1202TIP3   OH225020   0.537   3.363   1.575 -0.1609  0.7417 -0.2624
 1202TIP3    H125021   0.454   3.409   1.581 -0.6389  0.3940 -2.7967
 1202TIP3    H225022   0.529   3.289   1.635 -0.6103  2.1181  1.4567
 1203TIP3   OH225023   6.005   2.432   0.735 -0.3537 -0.1693 -0.1662
 1203TIP3    H125024   6.002   2.364   0.668  0.5497 -1.0880  0.6881
 1203TIP3    H225025   5.954   2.504   0.699 -0.3038 -0.8357 -1.6164
 1204TIP3   OH225026   1.661   3.290  11.344  0.5479 -0.6398  0.1285
 1204TIP3    H125027   1.592   3.291  11.410 -0.8533 -1.8193 -1.2325
 1204TIP3    H225028   1.618   3.321  11.264  1.6586 -1.1405 -0.6886
 1205TIP3   OH225029   5.205   5.903  14.999  0.5142 -0.4831 -0.1544
 1205TIP3    H125030   5.146   5.828  15.000 -1.1518  0.7276 -1.4771
 1205TIP3    H225031   5.181   5.951  14.920  2.7180  0.5421 -0.2783
 1206TIP3   OH225032   2.814   0.240   3.750  0.0074 -0.5205  0.2613
 1206TIP3    H125033   2.871   0.315   3.736 -1.4199  0.2375 -1.9814
 1206TIP3    H225034   2.863   0.165   3.717  0.7457 -0.3168  0.8768
 1207TIP3   OH225035   6.412   5.421   0.304  0.0473 -0.2819 -0.5992
 1207TIP3    H125036   6.403   5.502   0.255 -0.6300 -0.7191 -1.2139
 1207TIP3    H225037   6.502   5.423   0.337 -0.1442  0.9969 -0.0938
 1208TIP3   OH225038   2.218   1.194  13.024 -0.5056  0.2184 -0.0541
 1208TIP3    H125039   2.307   1.219  12.999 -1.4040  4.1625  0.0712
 1208TIP3    H225040   2.208   1.227  13.114 -1.4186 -2.3147  0.8674
 1209TIP3   OH225041   2.466   4.465   1.080 -0.4084 -0.9796 -0.0611
 1209TIP3    H125042   2.551   4.503   1.102 -0.2361 -1.2511 -0.2507
 1209TIP3    H225043   2.409   4.491   1.152 -0.7937  1.2078 -1.0775
 1210TIP3   OH225044   2.296   0.903  13.032  1.0654  0.1653 -0.2802
 1210TIP3    H125045   2.238   0.974  13.003 -2.5641 -1.8864  1.2595
 1210TIP3    H225046   2.297   0.912  13.128  0.3553 -1.8964 -0.0427
 1211TIP3   OH225047   5.900   5.562   1.015  0.0497 -0.1132  0.1403
 1211TIP3    H125048   5.884   5.493   1.079  0.4732 -0.5509 -0.2087
 1211TIP3    H225049   5.863   5.641   1.053  1.3015 -0.1152  1.4447
 1212TIP3   OH225050   4.212   3.838  12.469 -0.6242  0.5602  0.1957
 1212TIP3    H125051   4.287   3.817  12.524 -0.3439 -1.2261 -0.8176
 1212TIP3    H225052   4.181   3.922  12.503  1.1737  0.8253  1.3034
 1213TIP3   OH225053   1.744   3.493  14.221 -0.9909 -0.0998 -0.1565
 1213TIP3    H125054   1.719   3.424  14.160  0.1715 -0.3048 -0.4311
 1213TIP3    H225055   1.758   3.570  14.165 -0.3998 -0.1597 -0.0950
 1214TIP3   OH225056   6.729   1.355   0.670 -0.4135  0.6553  0.6419
 1214TIP3    H125057   6.677   1.434   0.679  0.7680  1.8350 -1.7577
 1214TIP3    H225058   6.801   1.365   0.733 -0.8996  0.9092  1.1590
 1215TIP3   OH225059   6.046   4.749   1.712 -0.5462  0.3911  0.5933
 1215TIP3    H125060   6.127   4.799   1.701  0.1515 -0.7975  0.1322
 1215TIP3    H225061   6.008   4.745   1.624 -1.4107  1.3981  0.8976
 1216TIP3   OH225062   4.166   5.524  13.311 -0.1729 -0.1370  0.1217
 1216TIP3    H125063   4.222   5.496  13.383 -0.4611  1.0430  0.8292
 1216TIP3    H225064   4.219   5.511  13.233  0.6260 -0.1910  0.6654
 1217TIP3   OH225065   1.620   6.166   4.185 -0.5442  0.0451 -0.3938
 1217TIP3    H125066   1.600   6.112   4.262 -0.1515  0.1416 -0.2226
 1217TIP3    H225067   1.626   6.255   4.219 -0.9692  0.1722 -0.6397
 1218TIP3   OH225068   4.269   1.743   1.476  0.4146 -0.2998  0.0889
 1218TIP3    H125069   4.327   1.667   1.475  2.1691  0.9847  0.3800
 1218TIP3    H225070   4.277   1.778   1.564  0.3716  0.7704 -0.3246
 1219TIP3   OH225071   5.250   6.315   1.044 -0.4382 -0.1193  0.9031
 1219TIP3    H125072   5.162   6.290   1.016 -0.4759  1.9822 -1.0846
 1219TIP3    H225073   5.239   6.402   1.084  0.4360 -0.8397  2.8836
 1220TIP3   OH225074   1.261   6.375  10.619  0.1618 -0.2725 -0.2953
 1220TIP3    H125075   1.300   6.340  10.700 -0.1687 -0.5241 -0.2441
 1220TIP3    H225076   1.274   6.306  10.554  1.4255  0.3751 -0.7568
 1221TIP3   OH225077   5.132   2.010  14.205 -0.4918 -0.1152 -0.1153
 1221TIP3    H125078   5.169   2.005  14.294 -0.7935 -0.2606  0.0007
 1221TIP3    H225079   5.144   2.102  14.180 -2.2179  0.4097  0.8615
 1222TIP3   OH225080   5.902   2.217  14.453 -0.7399 -0.1547 -0.7578
 1222TIP3    H125081   5.846   2.202  14.376  0.3629  0.6227 -1.7377
 1222TIP3    H225082   5.968   2.280  14.423  0.0012 -0.2057  0.6967
 1223TIP3   OH225083   2.705   1.082   6.275 -0.0281 -0.2850 -0.4640
 1223TIP3    H125084   2.689   1.011   6.212  1.0605 -1.6348  0.6902
 1223TIP3    H225085   2.800   1.085   6.283 -0.1145  0.5523  0.3595
 1224TIP3   OH225086   1.298   0.258   3.365  0.1070 -0.3902  0.2886
 1224TIP3    H125087   1.223   0.205   3.337  0.1688  0.7384 -2.2404
 1224TIP3    H225088   1.260   0.340   3.396  0.1702 -0.8486  1.6271
 1225TIP3   OH225089   3.251   0.794  13.210  0.1969 -0.1102  0.2236
 1225TIP3    H125090   3.172   0.793  13.158  0.6899  0.2013 -0.5496
 1225TIP3    H225091   3.231   0.740  13.287 -1.1733  0.9966  0.6657
 1226TIP3   OH225092   2.615   5.250   6.282  0.2684 -0.4738 -0.5526
 1226TIP3    H125093   2.520   5.244   6.271  0.2300 -1.0924  0.0334
 1226TIP3    H225094   2.629   5.334   6.325 -0.2990 -1.5464  1.9476
 1227TIP3   OH225095   1.333   5.656  12.727 -0.5701  0.1598  0.4351
 1227TIP3    H125096   1.308   5.670  12.818 -1.8310 -1.6023  0.4208
 1227TIP3    H225097   1.268   5.705  12.676 -1.9909 -1.5661  0.4737
 1228TIP3   OH225098   3.330   1.465  14.523  0.0034  0.0445  0.6075
 1228TIP3    H125099   3.297   1.375  14.523  0.3230 -0.1305 -1.8621
 1228TIP3    H225100   3.266   1.514  14.575 -2.0979 -0.9895 -0.8770
 1229TIP3   OH225101   0.843   0.426   5.303 -0.7380 -0.0814 -0.5400
 1229TIP3    H125102   0.758   0.447   5.342 -1.2584  0.4086 -1.8501
 1229TIP3    H225103   0.842   0.472   5.218  0.9220  0.1131 -0.4987
 1230TIP3   OH225104   6.474   1.549   5.544  0.3566  0.0396  0.4327
 1230TIP3    H125105   6.428   1.569   5.626  0.3637 -0.8608  0.6599
 1230TIP3    H225106   6.427   1.601   5.478 -1.3905 -1.2875  0.5512
 1231TIP3   OH225107   3.897   6.402   1.390  0.1121  0.2928  0.4499
 1231TIP3    H125108   3.979   6.412   1.342  0.9466  1.3211  2.0243
 1231TIP3    H225109   3.830   6.398   1.321  1.2511  1.6943 -0.8201
 1232TIP3   OH225110   1.048   0.402  15.681  0.3568  0.4455  0.8403
 1232TIP3    H125111   1.107   0.421  15.607 -0.6507  0.2777 -0.0241
 1232TIP3    H225112   1.106   0.401  15.757  1.4329  0.5815  0.0549
 1233TIP3   OH225113   5.774   3.624  16.660  0.4916  0.3953 -0.4424
 1233TIP3    H125114   5.759   3.646  16.752  1.6013  0.2423 -0.2214
 1233TIP3    H225115   5.688   3.595  16.629  0.4617 -1.2280  1.0150
 1234TIP3   OH225116   1.007   2.920   4.284 -0.0664 -0.1186 -0.0102
 1234TIP3    H125117   1.054   2.909   4.201 -2.8536  0.8878 -1.8488
 1234TIP3    H225118   1.015   3.013   4.304  1.6388 -0.5555  1.6151
 1235TIP3   OH225119   3.592   0.616  12.539 -0.6386 -0.0973 -0.4356
 1235TIP3    H125120   3.628   0.705  12.538 -0.1617 -0.2867 -0.1517
 1235TIP3    H225121   3.573   0.598  12.447 -0.3314  0.1361 -0.5482
 1236TIP3   OH225122   3.306   2.297  16.429  0.1602 -0.0054 -0.0628
 1236TIP3    H125123   3.283   2.238  16.500  0.2450 -0.9899 -0.8382
 1236TIP3    H225124   3.230   2.354  16.420 -1.0563 -1.6889 -1.0201
 1237TIP3   OH225125   2.328   2.845  11.815  0.6291  0.3093 -0.0207
 1237TIP3    H125126   2.337   2.798  11.732  0.3920 -1.0423  0.6879
 1237TIP3    H225127   2.299   2.778  11.877 -0.7168  1.6149  0.8215
 1238TIP3   OH225128   1.075   2.085  12.522  0.1869 -0.9976 -0.3383
 1238TIP3    H125129   0.983   2.066  12.540  0.3918 -0.0239  2.0992
 1238TIP3    H225130   1.072   2.161  12.463 -0.5619 -0.9128 -0.2027
 1239TIP3   OH225131   6.767   3.935   0.325  0.5014 -0.0631  0.6314
 1239TIP3    H125132   6.846   3.890   0.294  0.0067 -0.2699 -0.3842
 1239TIP3    H225133   6.800   4.005   0.382  1.3942 -0.3949  0.5448
 1240TIP3   OH225134   3.401   2.852  13.433 -0.0039 -0.4965  0.0049
 1240TIP3    H125135   3.327   2.846  13.494  0.2904  0.2141  0.4489
 1240TIP3    H225136   3.396   2.941  13.399  0.5622 -0.4989 -0.0802
 1241TIP3   OH225137   5.681   1.453  10.887 -0.2972 -0.0594 -0.4425
 1241TIP3    H125138   5.613   1.404  10.934  0.5396 -0.0997  0.7659
 1241TIP3    H225139   5.635   1.526  10.847 -1.1176 -0.2967  0.0454
 1242TIP3   OH225140   2.474   1.457  15.101 -0.0815  0.1500  0.0836
 1242TIP3    H125141   2.563   1.465  15.135 -0.1035  0.4914  0.0654
 1242TIP3    H225142   2.436   1.544  15.113 -0.3383  0.0669 -0.1183
 1243TIP3   OH225143   4.498   5.511  11.851 -0.4546 -0.0728  0.4054
 1243TIP3    H125144   4.522   5.452  11.923  1.9581  0.1729 -0.1213
 1243TIP3    H225145   4.533   5.469  11.773 -0.6259  1.0127 -0.2747
 1244TIP3   OH225146   4.343   4.975   4.051 -0.6427 -0.1773  0.2541
 1244TIP3    H125147   4.414   4.957   3.990  0.1553 -1.0227  1.3832
 1244TIP3    H225148   4.329   4.891   4.096  0.5524  0.9815  2.9960
 1245TIP3   OH225149   4.188   4.533  15.999 -0.4799  0.1560 -0.2746
 1245TIP3    H125150   4.193   4.625  15.975 -1.7731  0.3508  0.1345
 1245TIP3    H225151   4.263   4.520  16.057 -1.4979  1.5454  1.4769
 1246TIP3   OH225152   0.214   4.180  12.275  0.5763  0.4823 -0.0034
 1246TIP3    H125153   0.166   4.262  12.268  0.8125  0.5580 -0.8626
 1246TIP3    H225154   0.256   4.170  12.190  0.5489 -0.5333  0.0956
 1247TIP3   OH225155   2.897   6.375   2.265  0.7966 -0.3907  0.0539
 1247TIP3    H125156   2.863   6.428   2.192 -0.9703 -0.9214  0.4519
 1247TIP3    H225157   2.992   6.380   2.255  0.7314  2.7058 -0.0390
 1248TIP3   OH225158   1.974   1.986  15.459  0.3743  0.4380 -0.3204
 1248TIP3    H125159   2.024   1.906  15.474  1.7004  1.6070  2.1636
 1248TIP3    H225160   2.037   2.049  15.425 -0.3470  0.8427 -0.9560
 1249TIP3   OH225161   3.767   5.699   1.465 -0.8254  0.2442 -0.4153
 1249TIP3    H125162   3.765   5.707   1.370  1.6172 -0.0039 -0.5476
 1249TIP3    H225163   3.702   5.632   1.485  0.4633 -1.6596 -2.2112
 1250TIP3   OH225164   1.438   1.947  11.361 -0.0459  0.5132  0.4094
 1250TIP3    H125165   1.405   1.862  11.331  1.1728 -0.0258  0.5437
 1250TIP3    H225166   1.521   1.958  11.315  0.2755  1.1898  1.1275
 1251TIP3   OH225167   6.015   6.430  13.947  0.0669  0.6168 -0.0134
 1251TIP3    H125168   6.095   6.393  13.910  0.4208 -0.0057  1.3070
 1251TIP3    H225169   6.026   6.421  14.042 -2.4146 -1.2879  0.2035
 1252TIP3   OH225170   0.662   6.022   3.516 -0.2856 -0.0865  0.0543
 1252TIP3    H125171   0.743   6.030   3.568  1.1936 -0.2559 -2.0914
 1252TIP3    H225172   0.622   6.108   3.521  0.8351  0.4595 -0.0654
 1253TIP3   OH225173   0.926   2.568  17.060  0.3791 -0.2778 -0.1802
 1253TIP3    H125174   0.895   2.480  17.080 -1.3799  0.2378 -0.4808
 1253TIP3    H225175   0.918   2.615  17.143 -2.9726  0.7480 -0.9586
 1254TIP3   OH225176   4.330   5.062   2.231 -0.0029 -0.1291  0.1791
 1254TIP3    H125177   4.348   5.152   2.205 -1.9886  0.5929  1.0948
 1254TIP3    H225178   4.237   5.062   2.254  0.5059 -1.8224  2.5590
 1255TIP3   OH225179   5.809   0.558   0.057 -0.5087  0.1874 -0.1426
 1255TIP3    H125180   5.772   0.627   0.111 -2.0090  0.7908 -1.8311
 1255TIP3    H225181   5.772   0.573  -0.030 -1.3118 -3.0231 -0.5043
 1256TIP3   OH225182   5.919   2.125  12.581 -0.0335 -0.2661  0.6474
 1256TIP3    H125183   5.841   2.175  12.601 -0.3376 -0.1707 -0.6605
 1256TIP3    H225184   5.890   2.034  12.579  0.1146 -0.3284  1.1592
 1257TIP3   OH225185   4.588   1.663   1.533 -0.1832 -0.2678  0.0321
 1257TIP3    H125186   4.617   1.572   1.532 -0.4143 -0.3738 -2.4696
 1257TIP3    H225187   4.557   1.677   1.622  1.8589 -1.9518  1.1042
 1258TIP3   OH225188   0.103   6.371   3.088  0.0349  0.0522 -0.0039
 1258TIP3    H125189   0.188   6.334   3.112  0.5417  1.4778  0.4877
 1258TIP3    H225190   0.075   6.319   3.012  2.7010  1.3588 -2.0256
 1259TIP3   OH225191   2.680   2.302  11.759 -0.0493  0.1146  0.0481
 1259TIP3    H125192   2.757   2.313  11.703 -0.0807 -0.9055 -0.2176
 1259TIP3    H225193   2.709   2.329  11.845  0.2949  0.7575 -0.2676
 1260TIP3   OH225194   0.962   6.789  14.482 -1.0060 -0.3128 -0.1749
 1260TIP3    H125195   0.945   6.822  14.570  1.4157 -0.5062  0.4286
 1260TIP3    H225196   0.949   6.695  14.488  0.0687 -0.4407  0.2319
 1261TIP3   OH225197   5.368   3.539   4.052  0.1109  0.1333  0.5242
 1261TIP3    H125198   5.353   3.460   4.103 -0.2921  0.0093  0.2229
 1261TIP3    H225199   5.463   3.544   4.041  0.3106  0.8379  2.3456
 1262TIP3   OH225200   1.032   6.766  13.513  0.1517  0.4569 -0.7608
 1262TIP3    H125201   1.057   6.728  13.429 -0.7527  0.3257 -0.9801
 1262TIP3    H225202   1.111   6.760  13.566  0.4619 -0.3467 -1.2866
 1263TIP3   OH225203   0.058   4.947   5.683  0.4106  0.0125 -0.1287
 1263TIP3    H125204   0.067   5.011   5.753 -0.4471 -0.0878  0.0884
 1263TIP3    H225205   0.008   4.875   5.723  0.0277 -0.1009 -0.7992
 1264TIP3   OH225206   2.048   4.022   6.285 -0.1143 -0.3165  0.3257
 1264TIP3    H125207   1.986   3.961   6.246 -0.8431  0.9546 -0.5667
 1264TIP3    H225208   2.111   4.040   6.215  0.1964 -0.1876  0.6373
 1265TIP3   OH225209   3.354   3.924  14.231  0.5537 -0.7851 -0.5431
 1265TIP3    H125210   3.259   3.931  14.243  0.8241  3.9660  0.9528
 1265TIP3    H225211   3.365   3.901  14.139 -2.1347  0.7058 -1.3504
 1266TIP3   OH225212   3.492   1.134  11.934 -0.4575 -0.3679 -0.4039
 1266TIP3    H125213   3.478   1.222  11.969 -1.0091 -1.2689  1.8768
 1266TIP3    H225214   3.578   1.138  11.893  0.1389  0.9189  0.8685
 1267TIP3   OH225215   6.269   0.416  13.756 -0.3994 -0.4285  0.1736
 1267TIP3    H125216   6.183   0.424  13.715 -1.4184 -1.6072  1.9379
 1267TIP3    H225217   6.272   0.326  13.788  1.1991 -0.1880  0.7962
 1268TIP3   OH225218   4.880   1.186  12.625 -0.4506  0.2084 -0.0964
 1268TIP3    H125219   4.940   1.242  12.674  0.2545  0.4265 -1.1699
 1268TIP3    H225220   4.815   1.246  12.589  1.3488  0.7190 -2.8115
 1269TIP3   OH225221   5.804   1.914  16.525 -0.3207 -0.3385  0.1893
 1269TIP3    H125222   5.770   1.972  16.593 -1.2878 -0.3042 -0.2941
 1269TIP3    H225223   5.807   1.827  16.565  0.9883 -0.0068  0.8704
 1270TIP3   OH225224   3.068   6.657  14.429 -0.6300  0.0343 -0.0963
 1270TIP3    H125225   3.121   6.666  14.350  0.8102  0.9472  0.9085
 1270TIP3    H225226   2.980   6.638  14.398 -0.3461  1.4806 -1.9507
 1271TIP3   OH225227   2.291   2.559  11.307  0.2928  0.2443 -0.2115
 1271TIP3    H125228   2.369   2.613  11.314 -0.0377  1.0116 -1.8574
 1271TIP3    H225229   2.232   2.610  11.250 -1.8305  0.1745  1.7821
 1272TIP3   OH225230   5.807   5.922  17.150 -0.0282 -0.8084 -0.0546
 1272TIP3    H125231   5.847   5.937  17.065  0.2077 -0.9673  0.0251
 1272TIP3    H225232   5.873   5.952  17.213 -1.3204  2.1351  0.0672
 1273TIP3   OH225233   0.181   4.554  14.640  0.6677 -0.6365 -0.4977
 1273TIP3    H125234   0.131   4.611  14.582 -0.6555 -0.5865  0.6322
 1273TIP3    H225235   0.115   4.495  14.678  1.6150 -1.2070  0.3191
 1274TIP3   OH225236   0.923   1.257  12.828  0.2316  0.4283 -0.0347
 1274TIP3    H125237   0.934   1.316  12.753 -1.1220 -0.6216 -1.1030
 1274TIP3    H225238   0.876   1.181  12.793  2.1567 -1.4779  1.1936
 1275TIP3   OH225239   0.080   4.367  16.221 -0.3853  0.7100 -1.0456
 1275TIP3    H125240   0.132   4.429  16.170 -0.2714 -0.2242 -2.1072
 1275TIP3    H225241   0.007   4.343  16.162 -0.5966  0.0818 -0.5417
 1276TIP3   OH225242   1.201   2.981   1.475 -0.2086  0.2198 -0.2426
 1276TIP3    H125243   1.297   2.978   1.469 -0.1753  0.9748 -0.2581
 1276TIP3    H225244   1.184   3.032   1.554 -0.5802  0.8788 -0.7323
 1277TIP3   OH225245   4.658   4.790   0.274  0.3035 -0.6475  0.3172
 1277TIP3    H125246   4.735   4.797   0.217 -0.4017 -0.3990 -0.6366
 1277TIP3    H225247   4.661   4.868   0.329  0.3299 -0.2509 -0.2389
 1278TIP3   OH225248   4.129   3.775  16.174  0.2048 -0.1153 -0.5199
 1278TIP3    H125249   4.035   3.767  16.194  0.2091  0.6211 -0.1478
 1278TIP3    H225250   4.144   3.713  16.104 -0.8706  0.7505 -1.5636
 1279TIP3   OH225251   1.328   5.465   6.528 -0.4350 -0.3446 -0.3018
 1279TIP3    H125252   1.344   5.559   6.524  2.0759 -0.5526  2.0123
 1279TIP3    H225253   1.304   5.447   6.619 -0.9626 -1.9280 -0.7107
 1280TIP3   OH225254   2.221   5.052   3.756 -0.1917 -0.2736 -0.6553
 1280TIP3    H125255   2.228   5.003   3.838  0.5230 -0.7378 -0.9817
 1280TIP3    H225256   2.280   5.006   3.696  1.0013  1.3576 -0.7900
 1281TIP3   OH225257   4.650   4.862  11.080 -0.0568 -0.7947 -0.3455
 1281TIP3    H125258   4.563   4.867  11.118  0.6275 -1.6928  1.4783
 1281TIP3    H225259   4.635   4.852  10.986 -1.9410 -1.6513  0.0020
 1282TIP3   OH225260   1.301   4.114   1.928  0.2591 -0.4615  0.3228
 1282TIP3    H125261   1.240   4.168   1.977 -1.7513 -0.9828 -1.4444
 1282TIP3    H225262   1.352   4.176   1.876  1.0336 -0.0419  1.5455
 1283TIP3   OH225263   0.187   5.645  15.560 -0.0175 -0.0342 -0.0505
 1283TIP3    H125264   0.228   5.580  15.502  0.1386  0.5351 -0.5967
 1283TIP3    H225265   0.203   5.729  15.516  0.5113  0.4689  1.0592
 1284TIP3   OH225266   2.319   6.370  11.938  0.4503  0.3996 -0.4703
 1284TIP3    H125267   2.342   6.463  11.946 -0.3248  0.5675 -0.0482
 1284TIP3    H225268   2.344   6.331  12.021  0.2851  0.3448 -0.4449
 1285TIP3   OH225269   4.303   4.339  12.531  0.0370 -0.3210  0.0282
 1285TIP3    H125270   4.318   4.282  12.456  0.9435 -2.0933  1.4654
 1285TIP3    H225271   4.292   4.278  12.605  1.9007  1.3562  1.8026
 1286TIP3   OH225272   2.212   4.715   4.407 -0.1726  0.1424  0.2904
 1286TIP3    H125273   2.165   4.706   4.490 -0.1585  0.9266  0.3911
 1286TIP3    H225274   2.285   4.655   4.415 -0.0680  0.3420  0.9288
 1287TIP3   OH225275   0.601   2.154   2.180  0.2500  0.5436 -0.1866
 1287TIP3    H125276   0.534   2.204   2.227 -0.5191  0.4438 -1.1560
 1287TIP3    H225277   0.604   2.193   2.093  0.4642 -0.3591 -0.5931
 1288TIP3   OH225278   0.027   6.708   2.724  0.1137  0.5325  0.0742
 1288TIP3    H125279   0.058   6.711   2.815 -1.9612 -0.2285  0.8683
 1288TIP3    H225280   0.060   6.625   2.690 -1.0227 -0.2933  0.9220
 1289TIP3   OH225281   4.738   6.272   4.526 -0.4112  0.5667 -0.0555
 1289TIP3    H125282   4.680   6.242   4.456 -0.6895  0.9994 -0.0152
 1289TIP3    H225283   4.824   6.237   4.502 -0.5281  0.5972 -0.5446
 1290TIP3   OH225284   3.366   2.204  15.872 -0.5404 -0.5128  0.0556
 1290TIP3    H125285   3.381   2.117  15.909  0.0152 -0.7215 -0.6457
 1290TIP3    H225286   3.381   2.264  15.944 -1.0092 -1.0047  0.5668
 1291TIP3   OH225287   1.399   3.932   5.164  0.6661  0.6357  0.0675
 1291TIP3    H125288   1.386   3.918   5.070 -2.6610  1.5715  0.2570
 1291TIP3    H225289   1.382   3.847   5.204 -0.5085  0.7840 -0.0636
 1292TIP3   OH225290   2.943   5.184  11.657  0.2200  0.2540  0.0344
 1292TIP3    H125291   3.018   5.214  11.605  0.3587 -0.8185 -0.4104
 1292TIP3    H225292   2.980   5.159  11.741 -0.0515  2.3162  0.8286
 1293TIP3   OH225293   1.316   2.324  17.112 -0.3223  0.1092  0.3298
 1293TIP3    H125294   1.332   2.394  17.174  0.9490  0.6626 -0.5749
 1293TIP3    H225295   1.292   2.369  17.031 -1.8999 -0.5956  0.3566
 1294TIP3   OH225296   1.538   6.092  14.595 -0.2135 -0.2902 -0.5291
 1294TIP3    H125297   1.446   6.115  14.588 -0.9945 -2.0709  2.2089
 1294TIP3    H225298   1.564   6.067  14.506 -1.5024  2.8437 -1.9268
 1295TIP3   OH225299   3.592   1.117   4.598 -0.4776  0.1571  0.0067
 1295TIP3    H125300   3.672   1.119   4.546 -0.7528 -0.4376 -0.4532
 1295TIP3    H225301   3.557   1.028   4.585 -1.6891  0.6864 -0.5617
 1296TIP3   OH225302   4.642   3.739  13.178  0.3096  0.0503  0.0840
 1296TIP3    H125303   4.596   3.676  13.123  1.9000  0.1348 -1.3964
 1296TIP3    H225304   4.733   3.712  13.176  1.1550  2.6432 -1.0427
 1297TIP3   OH225305   4.716   2.146  14.228  0.6147 -0.1007  0.5687
 1297TIP3    H125306   4.769   2.222  14.204  0.5277  0.2995  1.5557
 1297TIP3    H225307   4.684   2.167  14.316  1.3342 -1.6695  1.2583
 1298TIP3   OH225308   4.823   2.519  15.342  0.2828  0.2211  0.6434
 1298TIP3    H125309   4.900   2.478  15.382  0.5865  2.7367  2.8931
 1298TIP3    H225310   4.859   2.571  15.270  0.0679 -1.9522 -1.1689
 1299TIP3   OH225311   5.554   4.035   5.545 -0.1508  0.0970 -0.2434
 1299TIP3    H125312   5.469   4.073   5.520 -0.0163  0.4673 -0.1482
 1299TIP3    H225313   5.618   4.081   5.491  0.1616  1.0462  0.8852
 1300TIP3   OH225314   5.595   4.575   3.783  0.1916 -0.1072 -0.3835
 1300TIP3    H125315   5.537   4.647   3.757  1.2351  1.0529  0.3303
 1300TIP3    H225316   5.538   4.512   3.826 -0.7356  0.3778 -0.8662
 1301TIP3   OH225317   1.563   3.710  11.937  0.2652 -0.2646  0.2217
 1301TIP3    H125318   1.469   3.699  11.953  0.7290 -1.6458  2.5216
 1301TIP3    H225319   1.572   3.705  11.842 -2.0216  0.3838 -0.0943
 1302TIP3   OH225320   0.961   1.921   4.742 -0.3704  0.1324 -0.9652
 1302TIP3    H125321   0.962   1.835   4.698 -0.6347 -0.5839  0.3834
 1302TIP3    H225322   0.895   1.912   4.811 -0.0039  1.2495 -0.4490
 1303TIP3   OH225323   4.403   2.156  11.246 -0.5024  0.4864  0.3749
 1303TIP3    H125324   4.479   2.196  11.205 -0.7690  1.6309  0.9608
 1303TIP3    H225325   4.418   2.062  11.238  1.3247  0.6853  1.0860
 1304TIP3   OH225326   5.739   1.781  16.269  0.3372  0.3457 -0.3334
 1304TIP3    H125327   5.785   1.850  16.222  1.7060  0.5756  1.2338
 1304TIP3    H225328   5.725   1.817  16.357 -1.3184 -0.3948 -0.2592
 1305TIP3   OH225329   0.059   2.393  11.156  0.0180 -0.1808  0.1701
 1305TIP3    H125330   0.103   2.475  11.179  0.1608 -0.3110  0.3541
 1305TIP3    H225331   0.094   2.370  11.070  0.3762 -0.3334  0.3569
 1306TIP3   OH225332   0.493   2.850  14.332 -0.0208 -0.4835 -0.2580
 1306TIP3    H125333   0.407   2.889  14.317 -0.3702 -0.9446  0.4684
 1306TIP3    H225334   0.552   2.898  14.274 -0.5310  0.7474  0.2107
 1307TIP3   OH225335   2.278   6.764  13.916 -0.1062  0.3630 -0.0727
 1307TIP3    H125336   2.323   6.804  13.841  0.9467  2.2580  1.4859
 1307TIP3    H225337   2.202   6.820  13.931 -0.1090  0.2125  0.4960
 1308TIP3   OH225338   1.125   5.156  14.017  0.4468 -0.0786 -0.1143
 1308TIP3    H125339   1.046   5.210  14.018  0.4704 -0.0350 -0.3966
 1308TIP3    H225340   1.106   5.085  14.079  0.3367  0.1383  0.1021
 1309TIP3   OH225341   5.706   4.486   4.743  0.7283  0.2569  0.0784
 1309TIP3    H125342   5.704   4.575   4.708  0.4622  0.4283  0.5272
 1309TIP3    H225343   5.796   4.456   4.729  0.4719  0.0648 -1.4006
 1310TIP3   OH225344   1.603   3.310   3.023 -0.1261 -0.1670  0.2038
 1310TIP3    H125345   1.680   3.331   2.971 -0.9324  0.5778 -0.7319
 1310TIP3    H225346   1.537   3.284   2.959 -0.9453  0.1163  0.9045
 1311TIP3   OH225347   6.058   2.017  16.770 -0.1400  0.3702 -0.1437
 1311TIP3    H125348   6.014   2.041  16.852  2.3835  0.1643  1.3581
 1311TIP3    H225349   6.051   1.922  16.766  0.5230  0.2932  0.3406
 1312TIP3   OH225350   2.112   2.898   5.250 -0.2580 -0.0667  0.3830
 1312TIP3    H125351   2.115   2.813   5.206 -0.1579 -0.9917  2.0730
 1312TIP3    H225352   2.036   2.942   5.212 -0.1614 -0.7862 -0.7052
 1313TIP3   OH225353   0.616   3.628  12.378  0.1290 -0.7830 -0.5196
 1313TIP3    H125354   0.585   3.658  12.292 -1.7092  0.3868  0.4902
 1313TIP3    H225355   0.538   3.630  12.433  1.5417 -0.1544  1.5531
 1314TIP3   OH225356   2.287   5.484  14.665  0.4399 -0.1681  0.2466
 1314TIP3    H125357   2.297   5.463  14.572  1.3229  0.7974  0.1078
 1314TIP3    H225358   2.237   5.411  14.701 -2.5182  0.8131 -1.5591
 1315TIP3   OH225359   6.769   6.148   2.566 -0.5512 -0.1030 -0.2488
 1315TIP3    H125360   6.851   6.197   2.554 -0.2455 -0.2191  1.2486
 1315TIP3    H225361   6.797   6.058   2.583 -1.0387 -0.3644 -0.7830
 1316TIP3   OH225362   5.621   3.147   1.657 -0.6209  0.2713  0.2756
 1316TIP3    H125363   5.700   3.095   1.646 -0.0499  0.4926  2.6817
 1316TIP3    H225364   5.637   3.226   1.606 -0.6618 -1.0074 -1.8042
 1317TIP3   OH225365   4.820   3.879   3.652 -0.3774  0.4247 -0.0241
 1317TIP3    H125366   4.832   3.973   3.661 -0.5411  0.2957  1.8763
 1317TIP3    H225367   4.743   3.870   3.596 -1.7952  1.4897  1.6261
 1318TIP3   OH225368   1.137   3.801   1.529 -0.5410 -0.0206 -0.0336
 1318TIP3    H125369   1.108   3.841   1.610 -1.5909 -0.8383  0.0188
 1318TIP3    H225370   1.190   3.726   1.556  0.5401  0.6848 -0.1279
 1319TIP3   OH225371   1.932   2.619   4.261 -0.6556 -0.7007 -0.0513
 1319TIP3    H125372   1.858   2.594   4.316 -0.4971  0.8552  0.9549
 1319TIP3    H225373   1.896   2.626   4.173 -1.3720 -1.3233  0.1826
 1320TIP3   OH225374   0.423   0.658  13.031 -0.1487 -0.0644  0.1579
 1320TIP3    H125375   0.331   0.652  13.008  0.2050  0.5813 -1.5938
 1320TIP3    H225376   0.425   0.705  13.114 -1.4011 -0.5883  0.5062
 1321TIP3   OH225377   4.288   4.932  14.891  0.2706 -0.0926 -0.5317
 1321TIP3    H125378   4.320   4.860  14.836  0.8334  0.0859 -0.4431
 1321TIP3    H225379   4.340   5.007  14.865  1.0652 -0.1699  0.7420
 1322TIP3   OH225380   1.261   4.795  16.501 -0.4690  0.3011  0.0816
 1322TIP3    H125381   1.241   4.809  16.408  2.3144  2.0197 -0.3613
 1322TIP3    H225382   1.289   4.703  16.506 -0.9976  0.0924 -0.7028
 1323TIP3   OH225383   6.503   0.595  16.945 -0.6308 -0.2281 -0.1182
 1323TIP3    H125384   6.494   0.682  16.986 -0.5880 -0.7862  1.1116
 1323TIP3    H225385   6.413   0.565  16.933 -0.6367 -0.2740  0.0375
 1324TIP3   OH225386   4.473   3.350   5.691 -0.0450  0.2865  0.5144
 1324TIP3    H125387   4.537   3.355   5.762 -0.4833 -0.5997  0.9915
 1324TIP3    H225388   4.392   3.384   5.728 -0.3689 -0.5187  0.5681
 1325TIP3   OH225389   5.847   3.747  15.106  0.0338  0.0926 -0.1100
 1325TIP3    H125390   5.813   3.825  15.062  3.0852  1.2666 -0.6817
 1325TIP3    H225391   5.825   3.674  15.048  0.3927  1.0721 -1.5241
 1326TIP3   OH225392   0.269   5.105  14.417  0.1264 -0.5949  0.6136
 1326TIP3    H125393   0.221   5.100  14.334 -0.3864  1.3671  0.7326
 1326TIP3    H225394   0.253   5.021  14.460 -2.7058 -0.2951  0.3529
 1327TIP3   OH225395   2.738   5.003  13.156 -0.3699 -0.0664  0.0279
 1327TIP3    H125396   2.716   5.006  13.063  1.0994 -0.7430 -0.3707
 1327TIP3    H225397   2.779   5.088  13.173 -1.5797  0.4736  0.3316
 1328TIP3   OH225398   3.705   0.360  12.600 -0.5253  0.5329 -0.5516
 1328TIP3    H125399   3.711   0.304  12.522  0.8906  0.5123 -0.4487
 1328TIP3    H225400   3.708   0.449  12.564 -0.3985  0.5256 -0.5605
 1329TIP3   OH225401   1.475   5.125   3.845  0.3268  0.5314  0.2621
 1329TIP3    H125402   1.523   5.150   3.924 -0.8792  2.0120  0.5631
 1329TIP3    H225403   1.388   5.163   3.856 -0.9979 -2.1351 -0.2497
 1330TIP3   OH225404   6.602   5.806   1.133 -0.0419  0.3479 -0.0410
 1330TIP3    H125405   6.620   5.713   1.149 -0.8937  0.4442  1.6965
 1330TIP3    H225406   6.674   5.852   1.176  0.0493  0.5166 -0.3715
 1331TIP3   OH225407   5.320   6.344   2.765  0.2935 -0.0761  0.3220
 1331TIP3    H125408   5.313   6.410   2.834  0.1574  0.5797 -0.3080
 1331TIP3    H225409   5.401   6.365   2.720  0.0524 -0.1102 -0.1260
 1332TIP3   OH225410   3.834   5.914   2.313 -0.3925 -0.2252 -0.2417
 1332TIP3    H125411   3.813   5.822   2.299  0.3672 -0.1040 -2.6346
 1332TIP3    H225412   3.899   5.913   2.384 -1.1068 -1.4209  0.4331
 1333TIP3   OH225413   0.562   5.767  16.755  0.0199 -0.1419  0.3432
 1333TIP3    H125414   0.553   5.860  16.774 -1.0154 -0.0574 -0.5120
 1333TIP3    H225415   0.495   5.749  16.690  2.5239 -0.7266 -2.2390
 1334TIP3   OH225416   0.525   2.573   4.435 -0.0971 -0.0782 -0.1427
 1334TIP3    H125417   0.499   2.640   4.373  0.5838  0.1890 -0.1524
 1334TIP3    H225418   0.501   2.490   4.393 -2.1613  0.1844  0.4479
 1335TIP3   OH225419   2.938   4.335  14.823  0.2910  0.3708 -0.1864
 1335TIP3    H125420   2.847   4.308  14.834 -0.3046  1.6980 -1.4514
 1335TIP3    H225421   2.964   4.370  14.908  0.1197 -1.3450  0.5999
 1336TIP3   OH225422   0.999   2.746  14.618  0.2394 -0.3833 -0.1189
 1336TIP3    H125423   0.918   2.699  14.636 -0.4524  1.3787  1.6474
 1336TIP3    H225424   1.027   2.779  14.703  2.5993 -0.5551 -0.7564
 1337TIP3   OH225425   0.192   6.170   1.151 -0.2509 -0.7326 -0.7079
 1337TIP3    H125426   0.167   6.082   1.180 -1.2686 -0.4037 -0.5436
 1337TIP3    H225427   0.108   6.215   1.139  0.2681  0.2298 -0.7470
 1338TIP3   OH225428   4.130   6.241  12.677  0.3362 -0.4419 -0.3643
 1338TIP3    H125429   4.066   6.194  12.731 -0.7886  0.6919 -0.6440
 1338TIP3    H225430   4.211   6.191  12.686 -0.5403 -1.8347  0.1473
 1339TIP3   OH225431   1.144   4.067   5.429  0.3836  0.3235  0.2065
 1339TIP3    H125432   1.103   4.066   5.516  2.0736 -0.7749  1.0502
 1339TIP3    H225433   1.084   4.018   5.373 -0.8207  1.2018  0.6862
 1340TIP3   OH225434   1.424   5.746  12.192  0.3287 -0.3439  0.9153
 1340TIP3    H125435   1.398   5.780  12.107 -2.2276 -1.7369  1.0332
 1340TIP3    H225436   1.476   5.816  12.232 -0.3401  1.2488 -0.8682
 1341TIP3   OH225437   0.559   6.635  13.244  0.3771 -0.2168  1.1287
 1341TIP3    H125438   0.627   6.641  13.177 -0.5094 -1.9533 -0.0080
 1341TIP3    H225439   0.565   6.718  13.292  0.9694  1.1751 -1.1897
 1342TIP3   OH225440   3.816   0.559  13.274 -0.6096 -0.2452 -0.3069
 1342TIP3    H125441   3.803   0.630  13.211 -0.4736 -0.5795 -0.7149
 1342TIP3    H225442   3.900   0.579  13.316 -0.0815 -0.6739 -1.1165
 1343TIP3   OH225443   4.888   2.304   4.973  0.6592  0.1297  0.0344
 1343TIP3    H125444   4.809   2.263   4.937  1.0623 -0.9517  0.3291
 1343TIP3    H225445   4.958   2.277   4.914  1.0353 -0.1426  0.6025
 1344TIP3   OH225446   5.714   2.611   0.121 -0.5253 -0.0607  0.4573
 1344TIP3    H125447   5.747   2.556   0.050 -0.7094 -1.0726  1.1456
 1344TIP3    H225448   5.752   2.697   0.104 -0.0267 -0.4561 -0.4876
 1345TIP3   OH225449   4.938   4.061  11.583 -0.6856  0.2472  0.0113
 1345TIP3    H125450   5.019   4.110  11.576 -0.8231  0.3875 -0.7404
 1345TIP3    H225451   4.882   4.114  11.639 -0.8281  0.9616 -0.7814
 1346TIP3   OH225452   2.404   3.847   4.792 -0.1175 -0.0117 -0.5259
 1346TIP3    H125453   2.426   3.759   4.761 -1.0711 -1.5965  2.8016
 1346TIP3    H225454   2.320   3.836   4.836  0.3631  2.2765  1.1070
 1347TIP3   OH225455   4.342   1.898  11.290  0.8277  1.1692 -0.2346
 1347TIP3    H125456   4.300   1.833  11.346  1.8476 -0.2817 -1.1040
 1347TIP3    H225457   4.314   1.875  11.201  2.4774  0.8933 -0.7153
 1348TIP3   OH225458   5.075   1.008  16.278  0.2984 -0.6956  0.2312
 1348TIP3    H125459   5.035   0.944  16.336 -1.5920 -1.7765 -2.0791
 1348TIP3    H225460   5.124   0.956  16.214 -1.6380 -0.0430 -1.9567
 1349TIP3   OH225461   4.554   1.511  15.730  0.5911  0.5588  0.4052
 1349TIP3    H125462   4.559   1.464  15.647  2.2835  2.2170 -0.4818
 1349TIP3    H225463   4.467   1.490  15.764 -1.2895  2.0062 -3.1029
 1350TIP3   OH225464   2.354   2.020   4.934  0.2457  0.4446  0.4603
 1350TIP3    H125465   2.339   1.926   4.924  2.5475 -0.2187  2.3259
 1350TIP3    H225466   2.381   2.048   4.847  0.6976 -0.8995  0.1305
 1351TIP3   OH225467   0.333   1.816  11.722 -0.0792  0.4269 -0.2319
 1351TIP3    H125468   0.371   1.868  11.651 -0.6128  0.4584 -0.5018
 1351TIP3    H225469   0.394   1.826  11.795  1.3719 -0.9597 -1.1806
 1352TIP3   OH225470   4.111   2.655   2.896  0.4748 -0.1749  0.1162
 1352TIP3    H125471   4.075   2.569   2.919  1.9173 -0.8915 -0.2061
 1352TIP3    H225472   4.114   2.703   2.979 -0.2519 -0.4592  0.3133
 1353TIP3   OH225473   5.487   0.183  13.075  0.5468 -0.7213 -0.3080
 1353TIP3    H125474   5.397   0.192  13.044  0.8745  1.0935 -0.8470
 1353TIP3    H225475   5.498   0.089  13.089 -1.5066 -0.9623  0.0333
 1354TIP3   OH225476   3.191   1.212  12.011  0.2347 -0.4767  0.0628
 1354TIP3    H125477   3.101   1.192  12.038 -0.1294  0.8177 -0.1353
 1354TIP3    H225478   3.188   1.205  11.915 -0.3042  1.9156 -0.1544
 1355TIP3   OH225479   6.099   6.192  11.455 -0.0151  0.0379  0.3983
 1355TIP3    H125480   6.079   6.188  11.361  1.9605  1.0818 -0.1298
 1355TIP3    H225481   6.192   6.210  11.459 -0.0761  0.1759  2.5946
 1356TIP3   OH225482   3.801   0.575   1.677  0.2545 -0.1438  0.2297
 1356TIP3    H125483   3.750   0.575   1.758 -2.0994 -1.0818 -1.1532
 1356TIP3    H225484   3.765   0.648   1.626  1.1539 -0.0739 -0.3398
 1357TIP3   OH225485   0.405   2.256   4.509 -0.0034  0.5265  0.0357
 1357TIP3    H125486   0.495   2.254   4.478 -0.0997 -1.6960 -0.2825
 1357TIP3    H225487   0.411   2.253   4.604  0.2600 -0.1633 -0.0020
 1358TIP3   OH225488   5.559   5.290   3.207  0.0072 -0.0130 -0.1833
 1358TIP3    H125489   5.570   5.243   3.124  1.2659  1.2855 -0.7908
 1358TIP3    H225490   5.493   5.356   3.189  0.3324  0.3165 -0.1775
 1359TIP3   OH225491   0.126   0.500   0.822  0.0408  0.2921  0.2370
 1359TIP3    H125492   0.122   0.466   0.732 -1.9018 -0.3095  0.5028
 1359TIP3    H225493   0.076   0.436   0.873  0.4130  1.0706  1.6096
 1360TIP3   OH225494   0.433   5.982  15.444  0.4033  0.1480  1.0433
 1360TIP3    H125495   0.402   6.041  15.377 -0.5655  0.4345  1.7246
 1360TIP3    H225496   0.421   6.029  15.526 -1.7617 -1.4739  1.7566
 1361TIP3   OH225497   3.511   5.095  16.007 -0.0100 -0.5641  0.4109
 1361TIP3    H125498   3.563   5.157  16.058  0.4753  0.2464 -1.0175
 1361TIP3    H225499   3.479   5.145  15.932  0.6915 -2.1014 -0.9813
 1362TIP3   OH225500   3.071   4.429   0.996 -0.1866  0.0081 -0.5106
 1362TIP3    H125501   3.026   4.384   0.924 -2.6584 -0.3184  1.0801
 1362TIP3    H225502   3.164   4.411   0.982 -0.8350 -3.1667 -1.5755
 1363TIP3   OH225503   4.731   4.474   3.706  0.4020  0.5550 -0.2098
 1363TIP3    H125504   4.709   4.566   3.724 -2.6998 -0.2520  0.7200
 1363TIP3    H225505   4.827   4.473   3.701  0.5502  3.8477 -0.4665
 1364TIP3   OH225506   6.055   2.824   4.254 -0.0506 -0.4528  0.1108
 1364TIP3    H125507   6.002   2.898   4.226  1.4611  0.7886  0.4055
 1364TIP3    H225508   6.040   2.757   4.187  1.0127  1.2772 -1.9907
 1365TIP3   OH225509   4.756   1.105   4.425  0.4001  0.0064 -1.1671
 1365TIP3    H125510   4.797   1.191   4.426 -1.4998  0.9891  0.2376
 1365TIP3    H225511   4.784   1.064   4.506  0.4609 -0.2537 -1.3209
 1366TIP3   OH225512   0.544   2.828  15.659 -0.0301  0.0290 -0.1703
 1366TIP3    H125513   0.500   2.873  15.731  1.1102 -1.1511  1.3381
 1366TIP3    H225514   0.533   2.886  15.584  0.2523  2.1654  1.3478
 1367TIP3   OH225515   0.725   5.723   4.446  0.4550 -0.4629 -0.3680
 1367TIP3    H125516   0.692   5.773   4.520  3.7774  1.8085 -0.2274
 1367TIP3    H225517   0.709   5.779   4.370  0.6387 -1.0027 -0.8154
 1368TIP3   OH225518   1.893   6.301  13.561  0.1040  0.1100  0.2628
 1368TIP3    H125519   1.956   6.245  13.515  0.1681 -0.1219  0.6348
 1368TIP3    H225520   1.861   6.360  13.493 -0.9820 -1.2501 -0.4789
 1369TIP3   OH225521   4.052   2.116  15.751  0.6007  0.2119 -0.0351
 1369TIP3    H125522   4.091   2.073  15.675 -0.0203  1.0295 -0.8298
 1369TIP3    H225523   4.125   2.130  15.811  0.7378 -2.6640  0.6400
 1370TIP3   OH225524   1.489   0.794  15.323  0.9455  0.2386  0.1130
 1370TIP3    H125525   1.447   0.752  15.247  1.0408  1.8722 -0.8870
 1370TIP3    H225526   1.456   0.884  15.322  1.2171  0.3897  1.8322
 1371TIP3   OH225527   1.054   4.481  16.599 -0.3887 -0.0384  0.2486
 1371TIP3    H125528   1.117   4.409  16.590 -2.2389 -1.8212  0.5999
 1371TIP3    H225529   1.057   4.527  16.516 -1.9978 -3.1021 -1.7256
 1372TIP3   OH225530   5.506   6.762   2.294  0.5869  0.6552  0.7426
 1372TIP3    H125531   5.519   6.731   2.204 -0.6443  1.5242  0.2270
 1372TIP3    H225532   5.586   6.810   2.315  0.3819  1.5466 -0.3878
 1373TIP3   OH225533   0.244   3.764  12.339 -0.5528 -0.3655 -0.1058
 1373TIP3    H125534   0.161   3.755  12.291  0.3503 -2.2224 -1.4630
 1373TIP3    H225535   0.295   3.826  12.287 -0.6137 -0.2163  0.0126
 1374TIP3   OH225536   3.318   0.800   3.644 -0.8020 -0.1358 -0.3182
 1374TIP3    H125537   3.231   0.816   3.607 -0.8002  0.2549 -0.1556
 1374TIP3    H225538   3.332   0.706   3.632 -1.5539 -0.3395  0.3334
 1375TIP3   OH225539   3.067   3.478   1.514 -0.3321  0.0546  0.0377
 1375TIP3    H125540   2.985   3.448   1.553  0.4897 -0.9890  1.0549
 1375TIP3    H225541   3.086   3.414   1.445  0.3400 -0.5834  0.7854
 1376TIP3   OH225542   5.042   6.639  13.149  0.4528 -0.5096 -0.8495
 1376TIP3    H125543   5.025   6.575  13.218 -3.1059  1.3975  0.3226
 1376TIP3    H225544   5.018   6.594  13.068 -0.6175 -1.1683 -0.1997
 1377TIP3   OH225545   5.956   6.633   4.365 -0.0768 -0.2531  1.0912
 1377TIP3    H125546   5.920   6.560   4.315  2.5979 -1.0088  0.0654
 1377TIP3    H225547   5.880   6.676   4.404 -2.2457 -0.5522 -2.3753
 1378TIP3   OH225548   2.745   6.536   1.316  0.0310  0.2438  0.4523
 1378TIP3    H125549   2.810   6.594   1.356  0.2115 -0.3089  0.9807
 1378TIP3    H225550   2.764   6.450   1.353  0.6350 -0.4450 -1.3239
 1379TIP3   OH225551   6.753   6.714   3.937 -0.0222 -0.2206  0.0793
 1379TIP3    H125552   6.660   6.726   3.958 -0.3477 -0.1740 -1.3029
 1379TIP3    H225553   6.789   6.668   4.013 -1.1336 -0.0866  0.7074
 1380TIP3   OH225554   2.233   0.611  16.879 -0.2970  0.1574  0.1112
 1380TIP3    H125555   2.150   0.566  16.890  0.3510 -1.3042 -0.7486
 1380TIP3    H225556   2.235   0.675  16.950 -0.3158 -2.6263  2.8027
 1381TIP3   OH225557   6.263   1.814   4.491 -0.3608  0.2336  0.4600
 1381TIP3    H125558   6.325   1.804   4.563  0.5591  0.5192 -0.2724
 1381TIP3    H225559   6.186   1.854   4.532  0.3062  0.8001  1.2075
 1382TIP3   OH225560   5.861   5.288  14.087  0.0621  0.8678 -0.1539
 1382TIP3    H125561   5.937   5.233  14.072  0.5990  1.8692 -1.3254
 1382TIP3    H225562   5.862   5.307  14.181 -0.5503 -1.6337  0.4348
 1383TIP3   OH225563   6.011   6.729  13.714  0.5056  0.1787 -0.2017
 1383TIP3    H125564   5.951   6.671  13.762  2.0065 -0.6827  0.7555
 1383TIP3    H225565   5.955   6.783  13.659 -1.0480 -1.4155 -0.2627
 1384TIP3   OH225566   5.321   4.783   2.530  0.1948 -0.2669 -0.1354
 1384TIP3    H125567   5.394   4.790   2.468 -0.1117 -0.5968 -0.5386
 1384TIP3    H225568   5.309   4.689   2.542 -0.7523 -0.2388 -0.7766
 1385TIP3   OH225569   2.206   3.097  16.720 -0.2613 -0.4753 -0.2645
 1385TIP3    H125570   2.163   3.073  16.638 -0.3135 -2.6674  0.3378
 1385TIP3    H225571   2.299   3.080  16.704 -0.2786 -0.9700  0.1199
 1386TIP3   OH225572   5.845   6.370  14.315 -0.0523 -0.3935  0.7869
 1386TIP3    H125573   5.878   6.385  14.403 -1.0928  0.8829  0.9951
 1386TIP3    H225574   5.919   6.333  14.267  0.6438 -0.7236  2.0863
 1387TIP3   OH225575   1.767   0.746  13.966  0.3744  0.0225 -0.3107
 1387TIP3    H125576   1.733   0.718  13.881  0.4052 -2.4471  0.4116
 1387TIP3    H225577   1.805   0.832  13.950 -0.8097  0.2079 -2.4761
 1388TIP3   OH225578   1.929   0.873   1.532  0.8865 -0.4582  0.3671
 1388TIP3    H125579   2.006   0.900   1.483  0.5875 -1.0713 -0.4624
 1388TIP3    H225580   1.881   0.816   1.472 -0.4595  0.2919  0.6847
 1389TIP3   OH225581   0.922   1.522  16.255  0.0592  0.6010  0.6844
 1389TIP3    H125582   0.875   1.448  16.294 -0.5545  1.0931  0.8934
 1389TIP3    H225583   0.885   1.599  16.298  0.7365  1.0277  0.5093
 1390TIP3   OH225584   1.733   6.314  16.265 -0.2752 -0.3635 -0.0687
 1390TIP3    H125585   1.823   6.324  16.237 -0.1571 -2.0322 -0.3993
 1390TIP3    H225586   1.686   6.288  16.186 -1.8779  4.0470 -0.8419
 1391TIP3   OH225587   2.943   4.839  11.636  0.1599 -0.1953 -0.2016
 1391TIP3    H125588   2.895   4.778  11.579  0.4995 -0.6377 -0.0229
 1391TIP3    H225589   3.010   4.877  11.579  1.1096 -1.3375  0.1090
 1392TIP3   OH225590   4.842   4.493   2.337 -0.5473  0.2054  0.0877
 1392TIP3    H125591   4.918   4.551   2.330 -0.5618  0.0552 -2.1607
 1392TIP3    H225592   4.873   4.410   2.302 -1.7714  0.1952 -1.0447
 1393TIP3   OH225593   2.984   5.605  12.134 -0.4528 -0.1299 -0.1015
 1393TIP3    H125594   2.976   5.519  12.176 -1.1820  0.4756  1.0653
 1393TIP3    H225595   3.073   5.606  12.099 -0.3586 -1.2715  0.0471
 1394TIP3   OH225596   6.489   2.275  16.012  0.4256 -0.0506 -0.1751
 1394TIP3    H125597   6.489   2.207  15.945 -1.4865 -0.1394 -0.1394
 1394TIP3    H225598   6.578   2.274  16.048  1.3810 -0.2879 -2.4015
 1395TIP3   OH225599   1.399   0.537   2.707 -0.6916  0.3055 -0.0206
 1395TIP3    H125600   1.470   0.601   2.713 -0.3953 -0.1347  1.5598
 1395TIP3    H225601   1.320   0.590   2.696 -0.2505  0.8469 -0.6756
 1396TIP3   OH225602   5.443   6.278  14.099 -0.0409  0.5371  0.4316
 1396TIP3    H125603   5.430   6.356  14.045  3.1975 -0.5245 -2.2187
 1396TIP3    H225604   5.364   6.227  14.087 -0.6531  1.7228 -0.8819
 1397TIP3   OH225605   6.426   3.072  15.591  0.7744 -0.0133 -0.1996
 1397TIP3    H125606   6.402   2.984  15.618  1.5430  0.5385  2.5922
 1397TIP3    H225607   6.353   3.101  15.537 -0.7312 -1.4372  0.9685
 1398TIP3   OH225608   6.272   2.100   4.231 -0.5283  0.9025 -0.2086
 1398TIP3    H125609   6.178   2.097   4.215 -0.2461 -1.2680 -1.9268
 1398TIP3    H225610   6.308   2.143   4.154 -0.1037  2.0026  0.5790
 1399TIP3   OH225611   1.868   3.818  15.135 -0.1705 -0.0928 -0.6786
 1399TIP3    H125612   1.889   3.911  15.147  0.2701 -0.4352  1.5315
 1399TIP3    H225613   1.824   3.815  15.050 -0.8746  2.2447 -0.4786
 1400TIP3   OH225614   0.318   2.525  10.870  0.2056 -0.4952  0.0709
 1400TIP3    H125615   0.275   2.600  10.910  1.4747  0.2791  0.0482
 1400TIP3    H225616   0.334   2.552  10.780 -1.6916 -1.8255 -0.7230
 1401TIP3   OH225617   0.644   5.973  12.390 -0.5944 -0.5914  0.2990
 1401TIP3    H125618   0.562   5.990  12.437 -1.8221 -1.6383 -1.3623
 1401TIP3    H225619   0.646   5.877  12.381  0.9358 -0.5918  0.4803
 1402TIP3   OH225620   4.389   5.986   3.643 -0.5101  0.4293  0.3423
 1402TIP3    H125621   4.340   6.051   3.592  0.2216  0.2567 -0.6020
 1402TIP3    H225622   4.328   5.913   3.653 -0.4300  0.1603 -0.9320
 1403TIP3   OH225623   2.150   6.289   2.709 -0.0130 -0.3274 -0.2641
 1403TIP3    H125624   2.087   6.218   2.724  0.8480 -0.6323  2.5326
 1403TIP3    H225625   2.214   6.252   2.649  0.4624 -2.0114  1.1949
 1404TIP3   OH225626   0.213   4.222  13.725 -0.0686  0.2696  0.2070
 1404TIP3    H125627   0.194   4.244  13.816  0.4853  1.0968  0.1347
 1404TIP3    H225628   0.295   4.174  13.728 -0.7793 -0.9833  0.2677
 1405TIP3   OH225629   1.944   1.545  15.634  0.1369 -0.6788  0.2418
 1405TIP3    H125630   1.876   1.599  15.674  0.2851  0.7603 -1.2963
 1405TIP3    H225631   1.981   1.601  15.566  1.8804 -1.9489  0.0747
 1406TIP3   OH225632   3.580   1.419  11.804  0.5663  0.6706 -0.0791
 1406TIP3    H125633   3.629   1.456  11.730  1.3919  0.1362  0.1869
 1406TIP3    H225634   3.518   1.488  11.828  0.8070  1.1445 -0.7791
 1407TIP3   OH225635   6.075   2.371   0.046 -0.2665 -0.4332  0.4357
 1407TIP3    H125636   6.088   2.346   0.138  3.1054 -2.0283 -0.3192
 1407TIP3    H225637   6.028   2.297   0.007 -1.3152  0.0518  0.7565
 1408TIP3   OH225638   5.600   0.147   0.605  0.6030  0.0042  0.5009
 1408TIP3    H125639   5.523   0.156   0.662  0.3374  1.2965 -0.0451
 1408TIP3    H225640   5.599   0.225   0.551  1.3928 -0.7542 -0.6442
 1409TIP3   OH225641   3.056   4.845   2.904 -0.4517 -0.2453 -0.1856
 1409TIP3    H125642   3.094   4.865   2.990  0.3597  0.2693 -0.6540
 1409TIP3    H225643   2.987   4.910   2.893  0.3592  0.5752 -0.5108
 1410TIP3   OH225644   2.615   4.796  13.315 -0.4105  0.6232 -0.1383
 1410TIP3    H125645   2.654   4.865  13.261 -0.3919  0.9808  0.3241
 1410TIP3    H225646   2.525   4.788  13.284 -0.3572  0.7250 -0.3176
 1411TIP3   OH225647   2.305   4.075  10.838 -0.8141 -0.3592 -0.3658
 1411TIP3    H125648   2.285   3.991  10.797  1.4080 -0.2615 -1.8181
 1411TIP3    H225649   2.393   4.063  10.876 -1.5326  0.5278  1.7694
 1412TIP3   OH225650   1.886   2.598  11.100  0.0998 -0.1510 -0.4158
 1412TIP3    H125651   1.856   2.607  11.010 -1.3385 -0.7265 -0.0300
 1412TIP3    H225652   1.910   2.687  11.127 -0.6884  0.2402 -0.9624
 1413TIP3   OH225653   5.304   5.554   2.335 -0.6975 -0.1517  0.6380
 1413TIP3    H125654   5.225   5.598   2.367 -0.4530  1.3996 -0.7274
 1413TIP3    H225655   5.343   5.617   2.274  0.3990 -1.7863 -0.4235
 1414TIP3   OH225656   6.542   5.086  12.053 -0.1453  0.0761 -0.1378
 1414TIP3    H125657   6.447   5.096  12.041 -0.4236 -0.0740  1.6421
 1414TIP3    H225658   6.558   5.124  12.140  1.3267 -0.4785 -0.1544
 1415TIP3   OH225659   2.067   3.988  11.061  0.1904 -0.2586 -0.2874
 1415TIP3    H125660   2.002   4.020  10.999  0.4437 -0.2785 -0.5626
 1415TIP3    H225661   2.107   3.913  11.018  1.0887  0.3576 -0.5361
 1416TIP3   OH225662   2.366   2.916   1.504  0.2707  0.4573  0.3346
 1416TIP3    H125663   2.368   2.923   1.408  0.9054 -0.5505  0.2552
 1416TIP3    H225664   2.454   2.938   1.532  1.3448 -3.1887  0.3154
 1417TIP3   OH225665   0.298   0.478  12.040  0.4795 -0.2323 -0.2312
 1417TIP3    H125666   0.246   0.540  12.091 -0.6503 -1.2833 -0.0537
 1417TIP3    H225667   0.347   0.429  12.106  0.5607 -0.2443 -0.3005
 1418TIP3   OH225668   3.872   3.697   2.693 -0.0743 -0.0461  0.2273
 1418TIP3    H125669   3.906   3.610   2.676  1.3207  0.5557 -0.1714
 1418TIP3    H225670   3.872   3.705   2.788  0.8312 -0.0892  0.2360
 1419TIP3   OH225671   1.096   6.022  11.383 -0.4582  0.2413  0.0323
 1419TIP3    H125672   1.119   5.942  11.335 -1.3396 -0.5956  0.9381
 1419TIP3    H225673   1.174   6.076  11.379 -0.2472 -0.1373 -1.6509
 1420TIP3   OH225674   4.652   1.227   2.326 -0.3640  0.0938  0.8292
 1420TIP3    H125675   4.632   1.145   2.371  0.9746 -0.8505 -0.2350
 1420TIP3    H225676   4.728   1.208   2.272 -0.6633  1.7514 -0.2728
 1421TIP3   OH225677   2.340   4.546   1.326  0.4405 -0.1515 -0.1404
 1421TIP3    H125678   2.316   4.639   1.328  0.2311 -0.1637 -1.2741
 1421TIP3    H225679   2.421   4.541   1.376 -0.2302  0.4280  1.0376
 1422TIP3   OH225680   3.121   3.850   2.541  0.1949 -0.7249  0.3467
 1422TIP3    H125681   3.171   3.927   2.515  1.5647 -1.9080 -0.7046
 1422TIP3    H225682   3.112   3.858   2.636  1.6004 -0.0156  0.4383
 1423TIP3   OH225683   6.168   6.188   1.721  0.3097 -0.7586  0.5758
 1423TIP3    H125684   6.086   6.214   1.680  0.5089  0.7959  1.0815
 1423TIP3    H225685   6.169   6.093   1.716 -1.2069 -0.7646 -0.0319
 1424TIP3   OH225686   4.241   3.217   1.054 -0.7966 -0.5952  0.1956
 1424TIP3    H125687   4.289   3.299   1.050 -1.9864  0.0741 -1.3944
 1424TIP3    H225688   4.230   3.200   1.147 -1.4688  1.6347  0.5828
 1425TIP3   OH225689   0.303   5.575  13.818 -0.5906 -0.2576  0.0057
 1425TIP3    H125690   0.258   5.624  13.887  2.0053  0.5416  1.2387
 1425TIP3    H225691   0.294   5.630  13.740  2.3125  2.4594  1.3660
 1426TIP3   OH225692   4.310   5.305  16.820  0.5970 -0.0730 -0.4007
 1426TIP3    H125693   4.345   5.387  16.855  0.6320  0.6717 -2.0657
 1426TIP3    H225694   4.320   5.313  16.725  1.1777 -2.2906 -0.5842
 1427TIP3   OH225695   2.454   1.122   2.382 -0.4116  0.6252  0.0169
 1427TIP3    H125696   2.426   1.092   2.296  0.2170  1.4080 -0.4653
 1427TIP3    H225697   2.434   1.215   2.383 -2.4548  0.2551  1.5411
 1428TIP3   OH225698   1.423   6.324   3.902 -0.2228  0.2943 -0.0089
 1428TIP3    H125699   1.515   6.330   3.930 -0.2523 -0.2628  0.2079
 1428TIP3    H225700   1.399   6.414   3.882  0.8980  0.2856 -1.7056
 1429TIP3   OH225701   2.536   3.619   5.072 -0.0642 -0.0989  0.0893
 1429TIP3    H125702   2.480   3.570   5.012  0.9074 -0.1775 -0.7677
 1429TIP3    H225703   2.475   3.656   5.136 -0.9090 -1.7468  0.2940
 1430TIP3   OH225704   6.664   3.169  13.278  0.3568 -0.1627 -0.0149
 1430TIP3    H125705   6.599   3.118  13.231 -0.8144  2.7621 -1.8191
 1430TIP3    H225706   6.744   3.117  13.272 -1.0586 -2.4282 -0.3874
 1431TIP3   OH225707   6.465   0.301   4.646 -0.3294 -0.5076 -0.2411
 1431TIP3    H125708   6.432   0.241   4.580  1.1815 -0.9684 -0.6372
 1431TIP3    H225709   6.516   0.245   4.705 -2.3337 -0.2558  1.8657
 1432TIP3   OH225710   1.142   1.283  16.320  0.4778  0.1703  0.0414
 1432TIP3    H125711   1.188   1.208  16.357 -1.6364 -1.5149 -0.5350
 1432TIP3    H225712   1.109   1.331  16.395  1.4185  0.2756  0.4044
 1433TIP3   OH225713   2.857   6.252   1.420 -0.2002  0.1031 -0.5400
 1433TIP3    H125714   2.938   6.303   1.432  0.2823 -0.7686  0.0317
 1433TIP3    H225715   2.872   6.172   1.471 -1.3183 -0.1930 -0.6593
 1434TIP3   OH225716   3.359   3.409   2.543 -0.4714  0.2746 -0.8752
 1434TIP3    H125717   3.422   3.348   2.504 -0.2958 -0.7854  0.9686
 1434TIP3    H225718   3.413   3.472   2.591 -0.7287  0.8845 -1.3730
 1435TIP3   OH225719   2.755   1.504   3.145  0.3691 -0.2868 -0.1175
 1435TIP3    H125720   2.795   1.502   3.232 -0.7384 -0.5781  0.4113
 1435TIP3    H225721   2.795   1.578   3.101 -0.1821  0.8373  1.2141
 1436TIP3   OH225722   1.777   1.324  12.904 -0.3021 -0.1990 -0.5789
 1436TIP3    H125723   1.810   1.297  12.990  0.6636  0.0247 -0.8648
 1436TIP3    H225724   1.851   1.369  12.863  0.0099 -2.1553 -2.3764
 1437TIP3   OH225725   2.410   0.014   3.008 -0.0954  0.0566 -0.1694
 1437TIP3    H125726   2.438   0.101   3.039  2.1487 -0.7524  0.2474
 1437TIP3    H225727   2.473  -0.009   2.940 -0.3016 -1.5044  0.1314
 1438TIP3   OH225728   4.051   4.237  13.687  0.0092  0.4605 -0.3970
 1438TIP3    H125729   4.027   4.329  13.692  0.0267  0.4188  0.7751
 1438TIP3    H225730   3.970   4.193  13.661 -0.6066  0.5840  1.2039
 1439TIP3   OH225731   4.115   5.892  16.325  0.0372 -0.2129 -0.1827
 1439TIP3    H125732   4.026   5.921  16.304  0.0981 -0.2269 -0.4679
 1439TIP3    H225733   4.103   5.807  16.368 -0.0937 -0.1602 -0.1150
 1440TIP3   OH225734   1.267   4.733   5.062  0.6084  0.4508  0.3358
 1440TIP3    H125735   1.344   4.782   5.033 -1.5091  2.7750 -1.8046
 1440TIP3    H225736   1.252   4.669   4.994 -0.4374  1.3427 -0.3044
 1441TIP3   OH225737   0.020   1.333   2.519  0.3213 -0.1802  0.8193
 1441TIP3    H125738  -0.046   1.396   2.548  0.1343 -0.7852  1.7384
 1441TIP3    H225739   0.092   1.343   2.581  1.6756  1.3241 -0.8500
 1442TIP3   OH225740   3.628   3.835  13.000 -0.4216  0.3235  0.3957
 1442TIP3    H125741   3.719   3.854  13.026 -0.4843 -1.0831  1.8395
 1442TIP3    H225742   3.585   3.812  13.083 -1.9453  0.3759 -0.3604
 1443TIP3   OH225743   6.284   3.986   4.672  0.5654 -1.1657  0.6910
 1443TIP3    H125744   6.244   3.921   4.730 -0.2054 -2.5994 -1.3297
 1443TIP3    H225745   6.221   3.996   4.601  1.2666  0.8788  0.3024
 1444TIP3   OH225746   4.889   3.294  13.350 -0.1599  0.0832  0.1598
 1444TIP3    H125747   4.976   3.335  13.351 -0.5621  1.0036 -1.1258
 1444TIP3    H225748   4.907   3.200  13.360  0.8519  0.4100  1.8610
 1445TIP3   OH225749   2.840   4.702  12.313  0.6724  0.5347  0.6136
 1445TIP3    H125750   2.901   4.707  12.239  1.2926 -0.1482  1.0578
 1445TIP3    H225751   2.847   4.787  12.356  1.7610  0.2696  0.9937
 1446TIP3   OH225752   0.254   6.539  16.420  0.6013 -0.1898  1.0103
 1446TIP3    H125753   0.174   6.549  16.368  0.3868  1.7825  1.6404
 1446TIP3    H225754   0.321   6.514  16.357  0.1583  1.3000 -0.1098
 1447TIP3   OH225755   4.102   4.872   0.506 -0.0036 -0.4378  1.0411
 1447TIP3    H125756   4.048   4.905   0.434  0.0791 -0.6347  0.8892
 1447TIP3    H225757   4.047   4.886   0.584 -0.0323 -0.0869  0.9625
 1448TIP3   OH225758   1.940   0.668   4.678  0.2027 -0.3491 -0.3585
 1448TIP3    H125759   1.875   0.607   4.713 -0.0861 -0.6317 -1.3403
 1448TIP3    H225760   1.928   0.748   4.728  0.8572 -1.2027  1.2481
 1449TIP3   OH225761   6.768   6.495  15.726 -0.7536  0.1086 -0.9923
 1449TIP3    H125762   6.843   6.436  15.734 -1.2606 -0.4878 -0.5153
 1449TIP3    H225763   6.704   6.461  15.788 -1.3010  0.7996 -1.1644
 1450TIP3   OH225764   6.125   0.306  15.343  0.2435  0.0575 -0.2125
 1450TIP3    H125765   6.153   0.396  15.360 -2.8159  1.1671 -0.4750
 1450TIP3    H225766   6.169   0.282  15.262  0.7167  1.4996 -0.4119
 1451TIP3   OH225767   4.606   0.947  12.937  0.3502  0.2173 -0.6052
 1451TIP3    H125768   4.622   1.032  12.895 -0.8140 -0.7837 -3.2476
 1451TIP3    H225769   4.693   0.917  12.963  0.9661  1.4886 -1.0986
 1452TIP3   OH225770   3.771   6.368   0.465 -0.0355  0.6239  0.4394
 1452TIP3    H125771   3.818   6.413   0.535  0.4841 -0.0407  0.5291
 1452TIP3    H225772   3.824   6.290   0.447 -0.0200  0.9146 -0.8808
 1453TIP3   OH225773   3.085   6.086   5.525 -0.4178 -0.5595  0.1291
 1453TIP3    H125774   3.060   6.147   5.595  0.1198 -0.2097  0.0247
 1453TIP3    H225775   3.129   6.014   5.571 -2.7252 -1.8520  0.4620
 1454TIP3   OH225776   4.036   1.092  15.417 -0.4714 -0.4663  0.0642
 1454TIP3    H125777   4.122   1.133  15.412 -0.8285  0.3586  0.4471
 1454TIP3    H225778   3.996   1.111  15.332  1.0434 -4.0319 -1.6856
 1455TIP3   OH225779   2.856   0.576   3.922  0.0315  0.1539  0.4147
 1455TIP3    H125780   2.873   0.489   3.959  0.4660 -0.6943 -1.6287
 1455TIP3    H225781   2.765   0.572   3.893 -0.0102  0.4577  0.5036
 1456TIP3   OH225782   1.668   3.932  13.409  0.8226  0.1719 -0.0587
 1456TIP3    H125783   1.641   3.989  13.480 -0.4672  0.3729 -0.6848
 1456TIP3    H225784   1.647   3.981  13.329  3.5448  0.5528 -0.6196
 1457TIP3   OH225785   1.644   2.532  16.403  0.5996 -0.8111  0.5714
 1457TIP3    H125786   1.732   2.552  16.437  1.1812  0.3608 -1.4515
 1457TIP3    H225787   1.607   2.471  16.467  2.1077  0.1973  2.5334
 1458TIP3   OH225788   2.661   4.987  14.224 -0.1933  0.3737 -0.1634
 1458TIP3    H125789   2.736   4.952  14.273 -0.1558 -0.6571 -0.9414
 1458TIP3    H225790   2.621   4.910  14.184 -1.2517  1.0098 -0.3358
 1459TIP3   OH225791   1.817   0.411  13.548 -0.2097  0.1647 -0.0850
 1459TIP3    H125792   1.769   0.351  13.492  0.9087 -2.4421  1.5496
 1459TIP3    H225793   1.879   0.455  13.490 -1.0408 -0.2857 -1.3384
 1460TIP3   OH225794   1.455   4.787  10.858  0.3899  0.5247 -0.0834
 1460TIP3    H125795   1.369   4.830  10.863  0.8312  1.5134 -0.5893
 1460TIP3    H225796   1.513   4.844  10.910  0.9886  0.5459 -0.7612
 1461TIP3   OH225797   4.913   0.780  12.546 -0.5631  0.1351 -0.2787
 1461TIP3    H125798   5.007   0.775  12.532 -0.2300 -1.8546  2.0029
 1461TIP3    H225799   4.882   0.690  12.538 -2.5046  0.8614 -1.9727
 1462TIP3   OH225800   6.682   3.918  14.163 -0.6559  0.1056 -0.7681
 1462TIP3    H125801   6.740   3.854  14.204 -0.2623 -0.4163 -2.0745
 1462TIP3    H225802   6.659   3.878  14.079 -1.9021  0.8689 -0.8113
 1463TIP3   OH225803   6.397   1.361   0.047 -0.6427  0.6629  0.5490
 1463TIP3    H125804   6.388   1.425   0.117  0.5681  0.3381  1.0181
 1463TIP3    H225805   6.334   1.292   0.070  2.0218 -1.1169  3.2559
 1464TIP3   OH225806   3.755   6.791   2.970  0.3104  0.5370  0.6564
 1464TIP3    H125807   3.849   6.778   2.976 -0.0648 -2.0644  1.9383
 1464TIP3    H225808   3.738   6.867   3.026  1.2902 -1.2856  3.6784
 1465TIP3   OH225809   5.374   5.601  16.323 -0.1236  0.4005 -0.3099
 1465TIP3    H125810   5.451   5.658  16.326  0.6609 -0.5766 -1.1058
 1465TIP3    H225811   5.345   5.595  16.414  0.3014  1.3524 -0.0947
 1466TIP3   OH225812   4.390   1.731  12.286 -0.2236 -0.2864  0.6007
 1466TIP3    H125813   4.301   1.731  12.253  0.0862  0.6350 -0.2725
 1466TIP3    H225814   4.435   1.664  12.234  0.2221  1.0457 -0.7821
 1467TIP3   OH225815   5.337   2.068  14.815  0.2581 -0.3455  0.5478
 1467TIP3    H125816   5.409   2.131  14.817 -0.0595  0.0222  0.3617
 1467TIP3    H225817   5.374   1.991  14.772  0.4060  0.0133  0.0209
 1468TIP3   OH225818   6.539   4.278   2.273 -0.4380 -0.0130 -0.1797
 1468TIP3    H125819   6.570   4.188   2.282 -1.5723 -0.4360 -0.3325
 1468TIP3    H225820   6.589   4.314   2.199 -0.1317 -0.5819 -0.2496
 1469TIP3   OH225821   3.870   5.567   2.541  0.2839 -0.2111 -0.2307
 1469TIP3    H125822   3.933   5.639   2.539  1.2252 -0.8754  2.0995
 1469TIP3    H225823   3.799   5.596   2.484  0.3029  2.8839  1.0990
 1470TIP3   OH225824   3.281   0.833   3.289 -0.8936  0.4269 -0.0897
 1470TIP3    H125825   3.250   0.836   3.380  0.5323  1.0248  0.3928
 1470TIP3    H225826   3.220   0.772   3.246 -2.9376  1.7876  0.7164
 1471TIP3   OH225827   1.895   6.435  15.229  0.3605  0.0074 -0.0925
 1471TIP3    H125828   1.960   6.375  15.266  0.9401  0.0084 -1.0684
 1471TIP3    H225829   1.879   6.401  15.141  1.3142  1.7310 -0.9780
 1472TIP3   OH225830   0.406   5.794   0.576 -0.0721  0.2040 -0.0235
 1472TIP3    H125831   0.443   5.775   0.663 -2.1354 -0.5484  0.7555
 1472TIP3    H225832   0.420   5.713   0.527 -0.9599 -0.2057  0.3839
 1473TIP3   OH225833   5.241   4.637  11.243  0.6936 -0.3453 -0.4678
 1473TIP3    H125834   5.185   4.598  11.176  0.1212 -0.2927 -0.0266
 1473TIP3    H225835   5.190   4.712  11.276  0.9549 -0.3903  0.0416
 1474TIP3   OH225836   4.558   0.525  12.699  0.0031 -0.0507  0.4143
 1474TIP3    H125837   4.515   0.611  12.697  0.3806  0.1241 -1.7630
 1474TIP3    H225838   4.651   0.545  12.695  0.1684 -0.5444  1.5428
 1475TIP3   OH225839   5.570   6.360  11.085  0.3778 -0.3532  0.1777
 1475TIP3    H125840   5.483   6.332  11.112  0.0313 -0.9795 -1.4672
 1475TIP3    H225841   5.629   6.326  11.152 -0.4709 -1.4854  0.3684
 1476TIP3   OH225842   4.807   5.758  16.010  0.1013  0.0132  0.2739
 1476TIP3    H125843   4.737   5.804  15.963 -1.1057  0.1474  2.1124
 1476TIP3    H225844   4.792   5.779  16.102  2.1209 -0.5979  0.7922
 1477TIP3   OH225845   3.586   5.302   0.149 -0.5158  0.0067 -0.2273
 1477TIP3    H125846   3.533   5.318   0.071  0.7994 -0.4005 -1.2528
 1477TIP3    H225847   3.676   5.311   0.118  0.0300  1.2375  1.5705
 1478TIP3   OH225848   2.699   0.670  14.207 -0.5905 -0.2120  0.0121
 1478TIP3    H125849   2.745   0.675  14.124  0.4593  0.4241  0.6076
 1478TIP3    H225850   2.642   0.594  14.198  0.2664 -0.7724 -0.9121
 1479TIP3   OH225851   3.565   1.975  10.444 -0.9827 -0.0604  0.3800
 1479TIP3    H125852   3.540   1.905  10.385 -1.4125 -0.4705  1.0437
 1479TIP3    H225853   3.626   1.934  10.506 -0.2051  0.4627 -0.0226
 1480TIP3   OH225854   2.776   2.832  11.959  0.3671  0.8142  0.1451
 1480TIP3    H125855   2.828   2.909  11.938  0.8904  0.0394 -1.6295
 1480TIP3    H225856   2.698   2.840  11.903  0.7215 -0.2154 -0.5289
 1481TIP3   OH225857   4.394   2.100   0.623  0.5530  0.3587  0.1446
 1481TIP3    H125858   4.434   2.186   0.637 -0.4417  0.5715  1.9947
 1481TIP3    H225859   4.372   2.069   0.711 -1.1370 -0.8012 -0.6361
 1482TIP3   OH225860   5.024   5.257  13.638  0.1088 -0.4387  0.1196
 1482TIP3    H125861   5.031   5.352  13.641 -0.0342 -0.4334  2.6319
 1482TIP3    H225862   5.061   5.232  13.553  0.3086  1.8209 -0.5123
 1483TIP3   OH225863   4.917   1.418   0.840 -0.2510 -0.2296 -0.2075
 1483TIP3    H125864   4.919   1.323   0.829  0.5378 -0.2332 -0.0633
 1483TIP3    H225865   4.974   1.435   0.914 -0.0282  0.3995 -0.5151
 1484TIP3   OH225866   0.259   1.359  11.394  0.4733  0.1571 -0.2708
 1484TIP3    H125867   0.255   1.288  11.331 -3.4690 -0.9708  0.9317
 1484TIP3    H225868   0.323   1.330  11.459  1.3157 -0.7023 -1.4421
 1485TIP3   OH225869   2.830   3.665  12.512  0.4586 -0.6919  0.3400
 1485TIP3    H125870   2.775   3.702  12.444  1.7582 -1.3050 -1.1299
 1485TIP3    H225871   2.799   3.704  12.593 -1.3599 -0.1775 -0.5570
 1486TIP3   OH225872   1.011   5.585   4.003 -0.2067 -0.1160 -0.1342
 1486TIP3    H125873   0.956   5.573   4.080 -0.6844 -0.5688 -0.5402
 1486TIP3    H225874   0.960   5.641   3.945 -0.7859 -1.5002 -1.0207
 1487TIP3   OH225875   2.276   4.515  11.575 -0.1892 -0.2468  0.9374
 1487TIP3    H125876   2.190   4.472  11.567 -1.9440  2.9079  1.2336
 1487TIP3    H225877   2.263   4.581  11.643  2.0145  1.4152 -0.1310
 1488TIP3   OH225878   6.215   5.336  16.924 -0.2931 -0.1355 -0.1588
 1488TIP3    H125879   6.225   5.249  16.886 -0.8735 -0.0824 -0.4545
 1488TIP3    H225880   6.120   5.350  16.927 -0.2371  0.0818  0.8271
 1489TIP3   OH225881   5.660   5.467  15.425 -0.5544  0.2272 -0.1775
 1489TIP3    H125882   5.689   5.464  15.515  1.2990  0.1567 -0.7414
 1489TIP3    H225883   5.593   5.399  15.418 -1.7186  1.1346  1.4229
 1490TIP3   OH225884   3.114   0.006  12.657  0.1839  0.0079  0.3885
 1490TIP3    H125885   3.143   0.002  12.566 -0.8915  0.2669  0.0219
 1490TIP3    H225886   3.079   0.094  12.668 -1.5522 -0.6499  0.4445
 1491TIP3   OH225887   2.407   2.425   3.639 -0.2116 -0.4672  0.2401
 1491TIP3    H125888   2.341   2.377   3.588  0.1402 -0.4179 -0.2748
 1491TIP3    H225889   2.488   2.413   3.589  0.6350 -2.2824  1.9189
 1492TIP3   OH225890   2.967   5.981  16.580  0.0902  0.1538  0.1991
 1492TIP3    H125891   2.981   5.904  16.634 -0.7708 -0.4360 -0.3968
 1492TIP3    H225892   2.881   5.968  16.541  0.9512  0.2182 -1.8439
 1493TIP3   OH225893   3.443   0.589  16.548 -0.6087  0.0925  0.1356
 1493TIP3    H125894   3.409   0.499  16.546 -2.0690  0.6199  0.3955
 1493TIP3    H225895   3.409   0.626  16.629 -0.0521  0.9127  0.0055
 1494TIP3   OH225896   4.668   1.332  12.546 -0.0336  0.3472  0.0710
 1494TIP3    H125897   4.594   1.271  12.552 -0.5709  0.6603 -2.3892
 1494TIP3    H225898   4.632   1.409  12.501  1.3811  1.2423  0.4076
 1495TIP3   OH225899   3.452   0.897   1.755 -0.0687 -0.1746  0.3893
 1495TIP3    H125900   3.393   0.822   1.745  0.9756 -1.0985  0.9160
 1495TIP3    H225901   3.401   0.961   1.805 -1.3350 -0.0820 -0.9268
 1496TIP3   OH225902   6.027   0.146  14.207  0.0895  0.1221  0.2177
 1496TIP3    H125903   6.039   0.218  14.270  0.8676  0.7303 -0.5966
 1496TIP3    H225904   5.935   0.121  14.216  0.0830  0.4856  1.2862
 1497TIP3   OH225905   4.568   6.467  13.254 -0.3561  0.1343 -0.2313
 1497TIP3    H125906   4.508   6.401  13.290 -0.9387 -1.5028 -3.7040
 1497TIP3    H225907   4.510   6.527  13.207  0.3490  2.1278  1.3311
 1498TIP3   OH225908   2.328   6.290   1.223  0.2116 -0.2010  0.9529
 1498TIP3    H125909   2.307   6.288   1.317  3.2759  1.1030  1.7984
 1498TIP3    H225910   2.285   6.370   1.191 -1.6664 -1.1588  0.9413
 1499TIP3   OH225911   1.743   1.862   2.163  0.0987  0.7356  0.5995
 1499TIP3    H125912   1.716   1.948   2.130  0.0312  1.0837  1.5095
 1499TIP3    H225913   1.716   1.863   2.255  0.8155  0.0494  0.8289
 1500TIP3   OH225914   3.230   1.559   4.393  0.2940 -0.3111 -0.3083
 1500TIP3    H125915   3.135   1.568   4.396  0.2675 -0.2776 -1.1313
 1500TIP3    H225916   3.253   1.569   4.301  1.1303  0.0214 -0.0774
 1501TIP3   OH225917   2.788   4.694  13.891 -0.4599  0.0142 -0.5305
 1501TIP3    H125918   2.733   4.618  13.870 -0.3682 -0.4247  0.7210
 1501TIP3    H225919   2.855   4.659  13.950  0.5639  0.7563 -1.2235
 1502TIP3   OH225920   2.500   6.328  12.148 -0.2035 -0.3050  0.5161
 1502TIP3    H125921   2.530   6.271  12.218  1.7156  0.9031  0.7503
 1502TIP3    H225922   2.561   6.311  12.076 -0.6138  0.2649  0.0246
 1503TIP3   OH225923   1.631   5.928  16.606  0.0539 -0.4890 -0.2137
 1503TIP3    H125924   1.672   5.985  16.542  0.2902  0.6821  0.9452
 1503TIP3    H225925   1.687   5.933  16.683 -1.6017  0.2251  1.0054
 1504TIP3   OH225926   5.217   6.176   5.364 -0.3332  0.3164  0.4279
 1504TIP3    H125927   5.220   6.267   5.333 -1.5977  0.5008  0.7759
 1504TIP3    H225928   5.167   6.129   5.298  1.6306 -0.5217 -0.5597
 1505TIP3   OH225929   4.857   0.756  16.100 -0.1263 -0.3568 -0.1221
 1505TIP3    H125930   4.935   0.722  16.144  0.9386  1.0124 -0.8414
 1505TIP3    H225931   4.818   0.680  16.058  1.6268 -0.8791 -0.8976
 1506TIP3   OH225932   4.620   4.420  12.004  0.4397 -0.3720 -0.2483
 1506TIP3    H125933   4.536   4.451  12.036  0.7145  1.1353 -0.8956
 1506TIP3    H225934   4.617   4.325  12.017  0.0754 -0.0163  3.0415
 1507TIP3   OH225935   0.072   1.737   4.512 -0.0358 -0.1505  0.2862
 1507TIP3    H125936   0.048   1.793   4.439 -1.6310  3.2602  3.0974
 1507TIP3    H225937   0.027   1.654   4.494 -1.5488  1.0296 -1.8944
 1508TIP3   OH225938   1.313   2.351  15.712 -0.2286  0.1341 -0.2938
 1508TIP3    H125939   1.310   2.256  15.724 -0.0033  0.0628 -0.7674
 1508TIP3    H225940   1.222   2.378  15.704 -0.2987 -0.0264 -0.0360
 1509TIP3   OH225941   1.113   2.936   5.499 -0.2350 -0.3161  0.0573
 1509TIP3    H125942   1.071   2.854   5.472  0.4575 -0.8547  0.5465
 1509TIP3    H225943   1.206   2.912   5.510  0.0829  0.6857 -0.3854
 1510TIP3   OH225944   6.069   1.686   3.274  0.1088  0.6503 -0.1246
 1510TIP3    H125945   6.121   1.759   3.240  1.3738 -0.0065  0.3416
 1510TIP3    H225946   6.133   1.622   3.303 -0.9575 -1.1716 -1.5667
 1511TIP3   OH225947   2.755   4.359  12.882  0.7465 -0.1420 -0.0781
 1511TIP3    H125948   2.693   4.296  12.920  1.3941 -1.0079 -0.4113
 1511TIP3    H225949   2.700   4.416  12.828 -0.3943  1.8722  2.9451
 1512TIP3   OH225950   5.985   6.117  16.606  0.1915  0.7766 -0.5236
 1512TIP3    H125951   5.929   6.126  16.684 -0.8916 -0.5758 -1.0918
 1512TIP3    H225952   5.933   6.154  16.535  0.6988  0.9613 -0.7973
 1513TIP3   OH225953   5.349   2.801   0.737 -0.1227  0.8597 -0.6341
 1513TIP3    H125954   5.294   2.767   0.667 -1.0244  0.3530  0.2931
 1513TIP3    H225955   5.307   2.771   0.818  0.9493  1.3322  0.1286
 1514TIP3   OH225956   1.371   2.175  10.630  0.2723 -0.3803  0.2903
 1514TIP3    H125957   1.438   2.107  10.639  0.8892  0.1512 -0.2136
 1514TIP3    H225958   1.399   2.245  10.688 -0.8870 -0.9245  1.5782
 1515TIP3   OH225959   6.710   4.449   3.951 -0.1727 -0.3269 -0.1948
 1515TIP3    H125960   6.733   4.470   3.860 -1.6422  1.6604 -0.1916
 1515TIP3    H225961   6.615   4.460   3.955  0.0833  2.1821  2.1133
 1516TIP3   OH225962   5.591   3.689   4.457 -0.6227 -0.3490  0.3074
 1516TIP3    H125963   5.588   3.780   4.427 -1.7150 -0.1277  1.0224
 1516TIP3    H225964   5.595   3.637   4.377 -0.2377  0.3166 -0.1141
 1517TIP3   OH225965   3.067   3.920  14.158  0.1543 -0.3805 -0.1529
 1517TIP3    H125966   2.993   3.963  14.201  0.5321  0.2657 -0.1510
 1517TIP3    H225967   3.027   3.871  14.087 -0.6566 -2.5263  1.6518
 1518TIP3   OH225968   5.134   2.352  12.563  0.4041  0.0388 -0.5398
 1518TIP3    H125969   5.090   2.268  12.546  0.0479  0.2244 -0.5529
 1518TIP3    H225970   5.210   2.351  12.505  0.5292 -0.3722 -0.3776
 1519TIP3   OH225971   4.598   2.090  11.464  0.1120 -0.1901  0.6150
 1519TIP3    H125972   4.528   2.113  11.525 -0.8173 -0.3826 -0.3427
 1519TIP3    H225973   4.645   2.171  11.448 -1.0690  0.3699 -0.1603
 1520TIP3   OH225974   4.117   2.459  14.675  0.3457 -0.0467 -0.3048
 1520TIP3    H125975   4.106   2.364  14.673  0.2471 -0.0326 -0.5313
 1520TIP3    H225976   4.182   2.474  14.744  0.7212 -0.3145 -0.5926
 1521TIP3   OH225977   5.308   3.476   5.911  0.7237  0.0485 -0.5684
 1521TIP3    H125978   5.216   3.500   5.926  0.9892  0.4721  0.5390
 1521TIP3    H225979   5.318   3.393   5.957  1.1801  0.6071  0.3783
 1522TIP3   OH225980   1.570   4.380   1.065 -1.1937  0.3851  0.6400
 1522TIP3    H125981   1.554   4.363   1.158  0.3839  2.2053  1.3133
 1522TIP3    H225982   1.489   4.420   1.034 -1.8529 -0.5349  1.1246
 1523TIP3   OH225983   6.635   4.832   4.184 -0.0604 -0.0844  0.2934
 1523TIP3    H125984   6.566   4.899   4.185  1.7686  2.0172 -1.2804
 1523TIP3    H225985   6.670   4.835   4.094  0.4427 -2.8799  0.2976
 1524TIP3   OH225986   1.849   3.013   1.174 -0.1913  0.0405 -0.5479
 1524TIP3    H125987   1.850   3.054   1.261 -1.1691 -0.6099 -0.2130
 1524TIP3    H225988   1.896   2.931   1.186  1.5789  0.9131 -1.1701
 1525TIP3   OH225989   5.932   4.762  16.215 -0.0334 -0.1487  0.0006
 1525TIP3    H125990   5.845   4.725  16.233 -0.1139  0.6033  1.3882
 1525TIP3    H225991   5.993   4.698  16.250 -0.1252  0.3279  1.0773
 1526TIP3   OH225992   1.035   3.948   2.379  0.1820 -0.1759  0.2255
 1526TIP3    H125993   1.052   3.854   2.388 -0.6613 -0.2332  1.4846
 1526TIP3    H225994   1.122   3.989   2.388  0.1582 -0.6171  3.9827
 1527TIP3   OH225995   3.046   4.552  13.679  0.0058  0.2253  0.2607
 1527TIP3    H125996   3.050   4.471  13.730 -0.0711  0.3146  0.4105
 1527TIP3    H225997   3.096   4.616  13.729  1.0511 -0.0319 -0.4371
 1528TIP3   OH225998   3.966   4.144   3.577  0.3405 -0.3156 -0.3449
 1528TIP3    H125999   3.972   4.236   3.602 -0.3851  0.1882 -1.8872
 1528TIP3    H226000   4.048   4.126   3.532  0.1221 -0.1672 -0.8064
 1529TIP3   OH226001   0.492   3.969   1.464 -1.1293 -0.5755  0.0403
 1529TIP3    H126002   0.555   3.897   1.456  0.1032  0.2587  1.7403
 1529TIP3    H226003   0.406   3.926   1.459 -0.4617 -2.4606  2.5292
 1530TIP3   OH226004   4.546   4.244   0.568  0.1264 -1.0836 -0.0907
 1530TIP3    H126005   4.471   4.275   0.517 -0.3215 -0.7258  0.7623
 1530TIP3    H226006   4.611   4.314   0.561 -0.3210 -0.5855  0.6400
 1531TIP3   OH226007   5.000   4.398   1.881  0.0430  0.2060 -0.8294
 1531TIP3    H126008   4.960   4.426   1.963 -0.1498 -0.8598 -0.5353
 1531TIP3    H226009   4.996   4.474   1.824  0.0660  0.9205  0.1123
 1532TIP3   OH226010   1.887   5.244  16.417 -0.0892  0.3509 -0.0258
 1532TIP3    H126011   1.912   5.152  16.415  0.6061  0.5362 -1.4666
 1532TIP3    H226012   1.903   5.275  16.328 -3.0080  1.1728 -0.3715
 1533TIP3   OH226013   0.962   2.195   6.128 -0.4293 -0.3070 -0.2337
 1533TIP3    H126014   1.037   2.211   6.185 -0.2693  0.2604 -0.5993
 1533TIP3    H226015   0.923   2.114   6.162 -0.2804 -0.0303  0.6154
 1534TIP3   OH226016   3.554   3.333  13.729 -0.3679 -0.0573  0.0814
 1534TIP3    H126017   3.492   3.286  13.786 -1.0879  0.4452 -0.2735
 1534TIP3    H226018   3.640   3.315  13.767 -0.7302 -0.7666  0.5879
 1535TIP3   OH226019   5.608   2.856  11.563  0.8764 -0.0928 -0.5367
 1535TIP3    H126020   5.621   2.780  11.506 -0.6050 -0.8607  0.0824
 1535TIP3    H226021   5.552   2.914  11.512 -1.1182 -1.1331  0.3380
 1536TIP3   OH226022   5.148   3.904  13.798 -0.0907  0.4863  0.2837
 1536TIP3    H126023   5.089   3.977  13.784  1.2357  1.6363  0.4630
 1536TIP3    H226024   5.202   3.900  13.719  0.1255 -0.0282  0.4507
 1537TIP3   OH226025   0.250   2.473  16.784 -0.1104 -0.0974  0.0467
 1537TIP3    H126026   0.211   2.553  16.820  0.5408 -0.7653  2.3477
 1537TIP3    H226027   0.188   2.404  16.806  0.3347 -0.5376 -0.0734
 1538TIP3   OH226028   5.910   3.186   1.908 -0.0590 -0.8063 -0.6485
 1538TIP3    H126029   5.913   3.133   1.988 -0.6166 -0.1114 -0.1436
 1538TIP3    H226030   5.846   3.143   1.852 -0.4238 -0.7444 -0.2884
 1539TIP3   OH226031   3.253   4.541   1.973  0.1421  0.3473 -0.1268
 1539TIP3    H126032   3.318   4.471   1.977 -0.1758  0.0503 -0.2122
 1539TIP3    H226033   3.171   4.498   1.949 -0.1104  0.7063  0.0717
 1540TIP3   OH226034   1.789   2.627   2.792 -0.0145 -0.0466  0.1371
 1540TIP3    H126035   1.743   2.545   2.808  0.3126 -0.1014  0.8175
 1540TIP3    H226036   1.726   2.695   2.818  0.3041 -0.1235  1.1501
 1541TIP3   OH226037   0.730   0.229   4.880  0.0576 -0.4360 -0.5762
 1541TIP3    H126038   0.636   0.229   4.864  0.0051  0.2369 -0.2798
 1541TIP3    H226039   0.742   0.282   4.958  0.3561 -3.3330  1.5081
 1542TIP3   OH226040   2.048   1.602   1.888  0.4518 -0.2481  0.0430
 1542TIP3    H126041   1.961   1.574   1.863  0.7976 -0.5152 -0.9130
 1542TIP3    H226042   2.034   1.685   1.934 -0.5336 -1.7105  2.5190
 1543TIP3   OH226043   5.056   0.695  15.836 -0.8877 -0.0824 -0.4003
 1543TIP3    H126044   5.125   0.642  15.796  1.0919  1.2812  0.9780
 1543TIP3    H226045   4.977   0.640  15.831  0.2499 -1.6884 -2.1071
 1544TIP3   OH226046   4.575   3.099   3.072 -0.1746  0.4635  0.0520
 1544TIP3    H126047   4.557   3.044   3.148  0.8782  0.9015  0.6347
 1544TIP3    H226048   4.659   3.068   3.038  0.2138  1.4023  0.1265
 1545TIP3   OH226049   4.572   1.668   0.575  0.1402 -0.1364  1.0039
 1545TIP3    H126050   4.612   1.605   0.635  1.0376  0.1008  0.6706
 1545TIP3    H226051   4.642   1.689   0.513 -0.4655  0.4039  0.4949
 1546TIP3   OH226052   6.315   4.083   3.732 -0.2586 -0.2873  0.3462
 1546TIP3    H126053   6.379   4.060   3.800 -0.4383 -0.7487  0.3636
 1546TIP3    H226054   6.273   4.162   3.765  1.0429  0.6523 -0.1662
 1547TIP3   OH226055   1.867   1.028  14.725  0.1219  0.4246 -0.5507
 1547TIP3    H126056   1.882   1.111  14.680  1.6825  0.7244  0.4358
 1547TIP3    H226057   1.838   1.054  14.813  3.2502  0.0754  0.6909
 1548TIP3   OH226058   2.928   0.528  10.380 -0.2149 -0.2333 -0.0015
 1548TIP3    H126059   2.904   0.437  10.396 -0.6156 -0.1714 -0.2249
 1548TIP3    H226060   2.872   0.555  10.307 -1.7634  0.8711  1.4995
 1549TIP3   OH226061   0.413   0.976  11.272 -0.0409 -0.0681 -0.3872
 1549TIP3    H126062   0.372   1.056  11.238 -1.0332 -0.2074  0.4089
 1549TIP3    H226063   0.372   0.963  11.358  0.0736 -1.4571 -0.5167
 1550TIP3   OH226064   0.642   2.763   4.053  0.7920 -0.1226 -0.0254
 1550TIP3    H126065   0.683   2.702   4.113  0.3315 -0.0877  0.3290
 1550TIP3    H226066   0.699   2.762   3.975 -0.0147 -2.1632 -0.6634
 1551TIP3   OH226067   0.684   1.177  14.149  0.8001  0.3129 -0.0127
 1551TIP3    H126068   0.605   1.230  14.156  0.6223  0.1071 -0.3936
 1551TIP3    H226069   0.709   1.183  14.056  0.9890  0.0322  0.0173
 1552TIP3   OH226070   6.811   3.097  16.085  0.2512  0.1768 -0.2305
 1552TIP3    H126071   6.812   3.048  16.003  2.3728  0.7273 -0.5972
 1552TIP3    H226072   6.749   3.169  16.070  1.7454  1.1832 -1.9784
 1553TIP3   OH226073   4.566   4.434   3.264 -0.2815 -0.0057  0.0711
 1553TIP3    H126074   4.654   4.401   3.285 -0.9247 -1.4231  0.7222
 1553TIP3    H226075   4.570   4.528   3.282  1.3148  0.0938 -0.6700
 1554TIP3   OH226076   2.134   3.794  10.774  0.3996  0.6653 -0.4608
 1554TIP3    H126077   2.191   3.776  10.699  2.0300  1.7836  0.4550
 1554TIP3    H226078   2.162   3.732  10.841 -0.5467  0.1686 -0.5161
 1555TIP3   OH226079   2.240   2.489  16.975 -0.8317 -0.3098 -0.2492
 1555TIP3    H126080   2.306   2.513  16.911 -1.3097 -0.0250 -0.6393
 1555TIP3    H226081   2.283   2.423  17.030 -0.9516 -1.8367 -1.9056
 1556TIP3   OH226082   6.306   1.498  11.610 -0.1479  0.3113  0.2297
 1556TIP3    H126083   6.290   1.482  11.517 -0.5958 -3.3629  0.7802
 1556TIP3    H226084   6.221   1.523  11.645 -0.2447  0.5307 -0.1575
 1557TIP3   OH226085   3.314   0.456   2.561  0.6695 -0.0609 -0.4710
 1557TIP3    H126086   3.303   0.551   2.572 -0.9817 -0.0523 -1.8921
 1557TIP3    H226087   3.309   0.442   2.466 -1.1914 -1.7829 -0.1674
 1558TIP3   OH226088   5.513   1.781  12.600 -0.0064 -0.0959 -0.0362
 1558TIP3    H126089   5.554   1.696  12.619  0.4005 -0.1460 -1.1081
 1558TIP3    H226090   5.419   1.765  12.607 -0.0549 -1.1940 -2.3082
 1559TIP3   OH226091   2.619   2.333   3.180 -0.4420  0.0697  0.0343
 1559TIP3    H126092   2.637   2.240   3.165 -0.7297  0.3477 -2.4696
 1559TIP3    H226093   2.608   2.340   3.275  0.3418 -2.2973  0.3786
 1560TIP3   OH226094   5.806   3.538   4.923 -0.3707 -0.1458 -0.6136
 1560TIP3    H126095   5.712   3.527   4.910 -0.5384 -1.1435  1.0657
 1560TIP3    H226096   5.826   3.626   4.890 -1.5685 -0.4973 -2.4103
 1561TIP3   OH226097   5.831   4.755  13.426  0.0289  0.3709 -0.6391
 1561TIP3    H126098   5.859   4.827  13.368 -0.3811  1.2652  0.2450
 1561TIP3    H226099   5.742   4.778  13.451  0.4977  0.4566  1.0269
 1562TIP3   OH226100   1.001   6.121   5.033 -0.5048 -0.1512 -0.5436
 1562TIP3    H126101   0.971   6.212   5.030 -0.0882  0.1101  1.6300
 1562TIP3    H226102   1.012   6.103   5.126  3.1236 -1.1957 -1.0550
 1563TIP3   OH226103   4.878   3.916  17.156 -0.0260 -0.8338  0.1585
 1563TIP3    H126104   4.832   3.834  17.138 -0.9970 -0.6085  1.4706
 1563TIP3    H226105   4.848   3.976  17.087  2.1381 -2.0235 -1.9814
 1564TIP3   OH226106   5.471   1.267   4.078  0.1880 -0.0093  0.1356
 1564TIP3    H126107   5.447   1.309   3.996 -0.7257  1.0399  0.9116
 1564TIP3    H226108   5.498   1.339   4.135 -0.3563 -0.5696  1.1438
 1565TIP3   OH226109   1.875   2.260  14.582 -0.2261  0.2720 -0.0907
 1565TIP3    H126110   1.951   2.236  14.528 -0.1907  1.2743 -0.4965
 1565TIP3    H226111   1.800   2.220  14.537 -0.0534  0.0570 -0.1900
 1566TIP3   OH226112   3.322   2.576  12.790  0.3287  0.2297  0.2167
 1566TIP3    H126113   3.228   2.592  12.779  0.3373  1.7114  1.8486
 1566TIP3    H226114   3.343   2.510  12.724 -1.8087  0.0166 -0.3261
 1567TIP3   OH226115   3.705   3.505   1.136  0.0792 -0.1875  0.5919
 1567TIP3    H126116   3.694   3.532   1.227 -2.5054  0.3336  0.1932
 1567TIP3    H226117   3.662   3.420   1.131  1.1719 -0.7234  0.0768
 1568TIP3   OH226118   3.415   2.449  14.517  0.0607  0.0731  0.0547
 1568TIP3    H126119   3.400   2.405  14.433  1.1912  0.4413 -0.3557
 1568TIP3    H226120   3.403   2.542  14.497  0.9756  0.2172  0.1425
 1569TIP3   OH226121   2.832   5.560   1.099 -0.3696 -0.0511 -0.2084
 1569TIP3    H126122   2.918   5.600   1.106 -0.5383  0.5367 -1.3698
 1569TIP3    H226123   2.843   5.472   1.136  1.0562 -0.4646 -1.5633
 1570TIP3   OH226124   0.681   3.561  11.221 -0.0395 -0.2257 -0.1789
 1570TIP3    H126125   0.689   3.646  11.178 -2.4506 -0.3356 -1.0014
 1570TIP3    H226126   0.594   3.530  11.198  0.3216 -2.4230  1.0552
 1571TIP3   OH226127   3.701   4.470   4.100 -0.0086  0.1661  0.0577
 1571TIP3    H126128   3.749   4.414   4.161 -1.0207  1.1955  1.8677
 1571TIP3    H226129   3.757   4.474   4.022  1.9333 -0.1672  1.3846
 1572TIP3   OH226130   3.401   2.777  12.628 -0.6676  0.6050  0.2743
 1572TIP3    H126131   3.396   2.861  12.672  1.4711  1.2525 -0.5520
 1572TIP3    H226132   3.397   2.712  12.698 -0.5422  1.4697  1.0983
 1573TIP3   OH226133   4.926   3.601  16.961  0.5830  0.0807  0.0579
 1573TIP3    H126134   5.011   3.583  17.000 -0.0324  0.3222  1.5900
 1573TIP3    H226135   4.925   3.551  16.880  2.1304 -0.0103  0.0822
 1574TIP3   OH226136   5.938   0.297  16.434 -0.1033 -0.0308 -0.3770
 1574TIP3    H126137   5.855   0.341  16.451  0.4934  1.4508 -1.0598
 1574TIP3    H226138   5.991   0.315  16.512 -0.5364 -1.3391  0.2460
 1575TIP3   OH226139   5.090   4.559  14.354 -0.2292  0.1186 -0.7646
 1575TIP3    H126140   5.168   4.584  14.405  1.5951 -2.5580 -2.0047
 1575TIP3    H226141   5.092   4.616  14.278 -0.3716  1.0511 -0.0953
 1576TIP3   OH226142   1.043   5.879   2.148  0.2037  0.2527 -0.6469
 1576TIP3    H126143   1.107   5.943   2.178  1.3987 -1.1118 -0.1773
 1576TIP3    H226144   0.964   5.898   2.199  0.7670  0.8920  0.0045
 1577TIP3   OH226145   5.394   4.862   1.396 -0.1672  0.0006 -0.4663
 1577TIP3    H126146   5.334   4.917   1.345  0.7374 -0.3547 -1.9753
 1577TIP3    H226147   5.337   4.813   1.455 -1.1888  0.9641 -0.6167
 1578TIP3   OH226148   5.382   4.370   1.960 -0.8438  0.1359 -0.3179
 1578TIP3    H126149   5.376   4.285   2.004 -1.6394  0.4259  0.1505
 1578TIP3    H226150   5.471   4.372   1.925 -0.6722 -0.7113  0.0355
 1579TIP3   OH226151   4.075   5.002  15.818 -0.5062  0.3687  0.0737
 1579TIP3    H126152   4.031   5.071  15.768 -1.3772  1.2205  1.9160
 1579TIP3    H226153   4.041   4.920  15.782 -1.0691  0.9393 -0.7247
 1580TIP3   OH226154   6.457   2.888  16.219  0.5684  0.1872 -0.1505
 1580TIP3    H126155   6.531   2.828  16.211 -0.7264 -2.3205  3.9970
 1580TIP3    H226156   6.495   2.968  16.254  1.6309 -0.0133 -0.7772
 1581TIP3   OH226157   5.685   3.274   6.347  0.4527 -0.1325 -0.1718
 1581TIP3    H126158   5.714   3.333   6.416  2.0416 -0.5814 -0.4235
 1581TIP3    H226159   5.675   3.330   6.270  1.3823 -0.0703 -0.2600
 1582TIP3   OH226160   0.501   3.173  11.721  0.0947  0.0904  0.2337
 1582TIP3    H126161   0.542   3.260  11.721  0.4836 -0.0010 -2.7240
 1582TIP3    H226162   0.409   3.190  11.743  0.5111  0.9936  1.3758
 1583TIP3   OH226163   1.768   5.528   1.724 -0.1470  0.2586  0.4522
 1583TIP3    H126164   1.854   5.553   1.758 -0.6606  2.4776  0.3105
 1583TIP3    H226165   1.779   5.530   1.629 -0.7203  2.3776  0.3632
 1584TIP3   OH226166   1.505   2.394   5.134 -0.1484  0.1295  0.4644
 1584TIP3    H126167   1.505   2.384   5.230 -1.8447 -2.0689  0.3072
 1584TIP3    H226168   1.433   2.339   5.104 -0.0665  1.2758 -2.0724
 1585TIP3   OH226169   2.134   6.651   0.935  0.2228  0.5621 -0.2814
 1585TIP3    H126170   2.081   6.729   0.918 -0.4714  0.4507  1.2526
 1585TIP3    H226171   2.108   6.590   0.866 -3.0202 -0.1426  1.3426
 1586TIP3   OH226172   5.689   1.573  10.257 -0.4491 -0.2110  0.2217
 1586TIP3    H126173   5.678   1.655  10.305 -1.7555 -0.1578 -0.1322
 1586TIP3    H226174   5.600   1.544  10.238 -0.0039 -1.5519  0.0564
 1587TIP3   OH226175   1.576   1.145   0.692  0.3634  1.0339 -1.1000
 1587TIP3    H126176   1.488   1.155   0.729  0.1228  0.0806 -1.3782
 1587TIP3    H226177   1.586   1.219   0.633  0.1308  1.6849 -0.3338
 1588TIP3   OH226178   0.838   1.114  14.920  0.7669  0.4006  0.0442
 1588TIP3    H126179   0.832   1.058  14.843 -1.6526  0.2751  0.2476
 1588TIP3    H226180   0.886   1.062  14.984  0.9534 -0.3404 -0.6807
 1589TIP3   OH226181   2.352   1.967   4.371 -0.4633 -0.4591 -0.0047
 1589TIP3    H126182   2.438   1.926   4.383  0.3910  0.5125 -2.1656
 1589TIP3    H226183   2.293   1.917   4.428  1.0422 -2.8057 -0.3502
 1590TIP3   OH226184   0.633   4.769   2.474 -0.4097 -0.4187  0.2140
 1590TIP3    H126185   0.569   4.785   2.405 -0.8686  0.6950  0.8488
 1590TIP3    H226186   0.679   4.853   2.484 -0.0625 -0.6838  0.9591
 1591TIP3   OH226187   0.685   2.318  16.141 -0.1251 -0.0765  0.5257
 1591TIP3    H126188   0.682   2.391  16.203  2.2582  0.0974  0.5629
 1591TIP3    H226189   0.704   2.359  16.057  0.7095 -0.5831  0.4504
 1592TIP3   OH226190   0.725   2.246  14.420  0.4420 -0.1934  0.1501
 1592TIP3    H126191   0.676   2.165  14.407 -0.7501  0.7563 -1.7105
 1592TIP3    H226192   0.660   2.315  14.411  1.4235  1.0034  1.7371
 1593TIP3   OH226193   2.723   0.755   3.518 -0.3847 -0.1615  0.1262
 1593TIP3    H126194   2.760   0.798   3.595  0.2004  1.2930 -0.9197
 1593TIP3    H226195   2.799   0.728   3.466 -0.7766 -0.5115 -0.2834
 1594TIP3   OH226196   3.139   3.919   2.794 -0.5357 -0.0454 -0.3129
 1594TIP3    H126197   3.202   3.990   2.810 -1.5948  0.6853  0.7219
 1594TIP3    H226198   3.145   3.863   2.872 -0.4634 -0.5290 -0.6574
 1595TIP3   OH226199   6.033   5.049  14.587 -0.2428 -0.0784 -0.5396
 1595TIP3    H126200   6.017   4.958  14.562  0.8468 -0.2794 -0.5532
 1595TIP3    H226201   6.118   5.047  14.632 -0.2821  0.9004 -0.4011
 1596TIP3   OH226202   0.202   0.572  13.902 -0.2625  0.3520 -0.0743
 1596TIP3    H126203   0.210   0.664  13.927 -0.0869 -0.0382  1.4116
 1596TIP3    H226204   0.290   0.547  13.874 -0.3665  0.6926 -0.7244
 1597TIP3   OH226205   3.455   0.211  15.690 -0.3432  0.7288 -0.2850
 1597TIP3    H126206   3.424   0.280  15.749 -2.0358 -0.5528  0.4058
 1597TIP3    H226207   3.507   0.258  15.625  1.6654  2.2075  2.1887
 1598TIP3   OH226208   0.561   4.354  12.055 -0.6434  0.7717 -0.0618
 1598TIP3    H126209   0.638   4.380  12.106  0.6108  0.8030 -1.8723
 1598TIP3    H226210   0.540   4.431  12.003  0.0843 -0.2150 -1.8943
 1599TIP3   OH226211   1.667   0.813  13.326 -0.5085 -0.6456 -0.2499
 1599TIP3    H126212   1.653   0.848  13.414 -1.9344  0.1024 -0.7430
 1599TIP3    H226213   1.745   0.859  13.294 -0.4024 -0.3959  0.3514
 1600TIP3   OH226214   4.034   6.744   5.152 -0.1669 -0.2680  0.4739
 1600TIP3    H126215   4.117   6.727   5.108 -0.6122  0.0277 -0.5280
 1600TIP3    H226216   4.058   6.770   5.241  0.7457 -1.3206  0.5569
 1601TIP3   OH226217   1.615   1.979  12.340  0.1370  0.2162 -0.1824
 1601TIP3    H126218   1.552   2.049  12.320 -1.3433 -1.1596 -0.5971
 1601TIP3    H226219   1.666   2.013  12.414 -1.9448  0.9501  1.0110
 1602TIP3   OH226220   3.626   4.312  11.946  0.3810 -0.3473 -0.0173
 1602TIP3    H126221   3.583   4.244  11.997 -0.2789  0.9746  1.2540
 1602TIP3    H226222   3.671   4.366  12.010  0.7112  0.5402 -0.9681
 1603TIP3   OH226223   5.225   0.202  16.385 -0.0733 -0.1076 -0.8182
 1603TIP3    H126224   5.263   0.128  16.336  0.2421 -0.6086  0.1529
 1603TIP3    H226225   5.185   0.257  16.318 -1.0884 -1.6105 -1.4988
 1604TIP3   OH226226   3.142   6.586   3.362  0.5028 -0.1199 -0.0755
 1604TIP3    H126227   3.068   6.526   3.371  0.9096 -0.4638  1.1407
 1604TIP3    H226228   3.126   6.654   3.428  1.3191 -0.2571  0.2755
 1605TIP3   OH226229   4.137   4.887  11.178  0.1413 -0.5400 -0.1997
 1605TIP3    H126230   4.095   4.955  11.231  1.6112 -0.7722  1.3679
 1605TIP3    H226231   4.085   4.808  11.194 -0.1346 -0.3304 -0.0599
 1606TIP3   OH226232   6.662   4.636  14.738 -0.0878  0.3423 -0.4364
 1606TIP3    H126233   6.580   4.597  14.768 -0.9818  1.6863 -1.0055
 1606TIP3    H226234   6.664   4.617  14.644  0.2916  0.2378 -0.4070
 1607TIP3   OH226235   3.342   5.421   3.398 -0.3309  0.3879 -0.2057
 1607TIP3    H126236   3.385   5.385   3.476  0.6402  0.2764 -0.7784
 1607TIP3    H226237   3.317   5.510   3.423 -0.9039  0.0284  0.5431
 1608TIP3   OH226238   6.389   4.501   5.330  0.0389  0.6338  0.9765
 1608TIP3    H126239   6.450   4.529   5.398  0.3217 -1.1500  1.5011
 1608TIP3    H226240   6.422   4.417   5.300 -1.1560  0.4823 -0.0309
 1609TIP3   OH226241   5.333   0.339   1.172 -0.1581  0.1345 -0.0088
 1609TIP3    H126242   5.319   0.291   1.091 -0.9280  1.5816 -0.7767
 1609TIP3    H226243   5.248   0.336   1.217 -0.4036  1.2791 -0.3666
 1610TIP3   OH226244   6.002   6.472   1.227 -0.1020  0.1204  0.0981
 1610TIP3    H126245   6.044   6.513   1.303 -0.2586  0.4661 -0.0035
 1610TIP3    H226246   5.990   6.381   1.254  0.6710  0.0228  0.1492
 1611TIP3   OH226247   5.368   0.693  11.820  0.3266 -0.2311 -0.6210
 1611TIP3    H126248   5.365   0.671  11.727  0.1414  0.4976 -0.7897
 1611TIP3    H226249   5.361   0.788  11.823  2.3605 -0.0564  0.0402
 1612TIP3   OH226250   1.848   6.031  15.167  0.2742  0.5550 -0.4854
 1612TIP3    H126251   1.907   6.034  15.091 -1.0773  2.1014 -1.5426
 1612TIP3    H226252   1.877   6.103  15.223  0.6556  0.0260  0.0108
 1613TIP3   OH226253   5.651   3.171   0.082  0.5273  0.2767 -0.5632
 1613TIP3    H126254   5.700   3.130   0.011  0.2596  0.9575 -1.1499
 1613TIP3    H226255   5.566   3.129   0.081 -0.2013  1.6901 -2.0005
 1614TIP3   OH226256   0.334   5.667  12.628 -0.4003  0.1320 -0.7956
 1614TIP3    H126257   0.321   5.594  12.566 -1.2926 -1.3660  1.0479
 1614TIP3    H226258   0.388   5.630  12.697 -0.5316  1.3567 -0.0185
 1615TIP3   OH226259   1.290   2.695  13.580 -0.2227  0.3156 -0.0123
 1615TIP3    H126260   1.332   2.610  13.591  0.5779  0.7842  0.6475
 1615TIP3    H226261   1.223   2.698  13.649 -0.0759  0.3229  0.1307
 1616TIP3   OH226262   1.849   4.765   6.447  0.2068  0.8197 -0.2306
 1616TIP3    H126263   1.828   4.698   6.513 -0.4269 -0.2358 -1.4600
 1616TIP3    H226264   1.768   4.814   6.436  0.7999  2.1392  1.0076
 1617TIP3   OH226265   5.574   6.595  15.930  1.0536  0.4386  0.1958
 1617TIP3    H126266   5.593   6.581  16.023  1.4622 -0.6869 -0.0348
 1617TIP3    H226267   5.644   6.547  15.884  0.1107 -0.1281 -0.6889
 1618TIP3   OH226268   6.572   4.320   1.226 -0.1307  0.4357 -0.1032
 1618TIP3    H126269   6.545   4.387   1.163 -3.1919  1.9361  2.5555
 1618TIP3    H226270   6.530   4.240   1.195 -1.9335  1.2364  0.1805
 1619TIP3   OH226271   2.198   1.925   0.634 -0.7016 -0.2099  0.1198
 1619TIP3    H126272   2.270   1.917   0.696  0.8217  2.2617 -1.1915
 1619TIP3    H226273   2.221   1.866   0.563 -1.1993 -1.1563  0.7135
 1620TIP3   OH226274   5.335   2.928  11.158 -0.4717  0.2302  0.1179
 1620TIP3    H126275   5.402   2.860  11.160  0.5459  1.2090  0.2022
 1620TIP3    H226276   5.298   2.923  11.070 -1.9187 -1.8174  0.7681
 1621TIP3   OH226277   2.729   1.976   1.336  0.1049  0.7290  0.2851
 1621TIP3    H126278   2.686   2.022   1.264 -0.1268  0.6838  0.3936
 1621TIP3    H226279   2.809   1.939   1.297  0.2178  1.0940  0.1626
 1622TIP3   OH226280   1.662   2.247   6.315  0.3833 -0.0100  0.2001
 1622TIP3    H126281   1.682   2.340   6.319  1.4449 -0.1789 -0.7310
 1622TIP3    H226282   1.738   2.208   6.271 -0.7749 -1.0929 -0.9132
 1623TIP3   OH226283   6.595   6.200   3.545  0.2985 -0.0419 -0.2860
 1623TIP3    H126284   6.607   6.286   3.504  1.1356 -0.7020 -1.4920
 1623TIP3    H226285   6.678   6.155   3.530  0.3974 -0.5688  1.5987
 1624TIP3   OH226286   5.246   4.415   6.030 -0.6352  0.2608 -0.1725
 1624TIP3    H126287   5.179   4.371   6.081 -0.5351 -1.2357 -1.2809
 1624TIP3    H226288   5.296   4.345   5.989 -2.7968  1.1899 -5.1261
 1625TIP3   OH226289   3.312   6.784   2.442 -0.4894 -0.2553  0.0583
 1625TIP3    H126290   3.394   6.832   2.425 -1.1982  1.9650  2.3121
 1625TIP3    H226291   3.285   6.752   2.356  0.4900  2.7720 -1.5425
 1626TIP3   OH226292   5.079   3.346   2.425 -0.0218  0.0276  0.0743
 1626TIP3    H126293   5.169   3.316   2.411  0.0684 -0.3838  1.3863
 1626TIP3    H226294   5.068   3.345   2.520 -0.2710  3.5212  0.2105
 1627TIP3   OH226295   2.882   5.102   3.622  0.3986 -0.3477 -0.3863
 1627TIP3    H126296   2.953   5.166   3.628  0.6690 -0.4847 -1.8025
 1627TIP3    H226297   2.925   5.018   3.637 -0.1552 -0.1847  2.7253
 1628TIP3   OH226298   5.171   1.944  12.541  0.1077  0.0721 -0.5434
 1628TIP3    H126299   5.206   1.872  12.488  0.1655 -0.1068 -0.2656
 1628TIP3    H226300   5.184   1.915  12.631 -1.8725 -0.5464 -0.4254
 1629TIP3   OH226301   1.988   1.963   6.034  0.6532 -0.0648  0.6608
 1629TIP3    H126302   2.014   1.922   6.117  3.2651  0.8210  0.3831
 1629TIP3    H226303   2.044   2.041   6.028 -0.0389  0.3100 -1.5626
 1630TIP3   OH226304   2.169   6.809   1.286  0.4943 -0.1279 -0.1506
 1630TIP3    H126305   2.181   6.777   1.375  1.0314  1.3508  0.3393
 1630TIP3    H226306   2.233   6.879   1.277 -0.8343  1.0231 -1.0607
 1631TIP3   OH226307   0.761   6.676   2.740  0.0756  0.8872  0.6833
 1631TIP3    H126308   0.712   6.757   2.730  0.5068  0.9996 -0.6783
 1631TIP3    H226309   0.823   6.675   2.667  3.5779  1.7186  3.3067
 1632TIP3   OH226310   6.781   3.998   3.181 -0.4617  0.5900  0.1485
 1632TIP3    H126311   6.696   3.991   3.225 -0.0016  1.3393  1.2068
 1632TIP3    H226312   6.835   3.929   3.222 -0.0894  1.1641  0.6409
 1633TIP3   OH226313   3.451   4.689   4.123 -0.2488 -0.2423  0.3450
 1633TIP3    H126314   3.482   4.695   4.214  0.3961 -1.0755  0.1959
 1633TIP3    H226315   3.502   4.617   4.086 -2.3949 -1.7066  0.0714
 1634TIP3   OH226316   4.633   0.619   0.583 -0.5560 -0.0358 -0.3806
 1634TIP3    H126317   4.640   0.589   0.493  0.6390 -2.1253  0.3402
 1634TIP3    H226318   4.539   0.615   0.603 -1.1807  2.7853 -2.1811
 1635TIP3   OH226319   6.201   6.759  15.278  0.5933  0.0319  0.2689
 1635TIP3    H126320   6.237   6.834  15.232  1.0937 -0.2259  0.2379
 1635TIP3    H226321   6.227   6.683  15.226  0.1821 -0.1714  0.3555
 1636TIP3   OH226322   5.049   1.965   4.448  0.5897  0.1820 -0.2228
 1636TIP3    H126323   5.102   1.886   4.440  0.9314  0.3329  0.4824
 1636TIP3    H226324   5.075   2.003   4.532 -1.1097 -0.0736  0.4512
 1637TIP3   OH226325   4.486   0.137  14.677  0.2768  0.3843 -0.1005
 1637TIP3    H126326   4.410   0.191  14.700 -1.2161 -1.5794 -0.1252
 1637TIP3    H226327   4.495   0.076  14.750  0.7157 -0.5643 -0.9247
 1638TIP3   OH226328   2.498   5.568  13.238 -0.5731  0.2773 -0.3349
 1638TIP3    H126329   2.572   5.605  13.286 -0.6558 -0.6339  0.5188
 1638TIP3    H226330   2.533   5.488  13.198 -1.4133 -0.9076  1.2014
 1639TIP3   OH226331   4.717   0.577   2.616 -0.1409 -0.3003 -0.1802
 1639TIP3    H126332   4.776   0.529   2.674  1.1993  2.0947  0.5733
 1639TIP3    H226333   4.750   0.558   2.528  2.3265  1.5025  0.2427
 1640TIP3   OH226334   3.208   0.499   2.892  0.1782  0.6822 -0.1401
 1640TIP3    H126335   3.126   0.512   2.845  0.7805 -1.2503 -1.8805
 1640TIP3    H226336   3.232   0.408   2.874  2.5410  1.0914  0.5910
 1641TIP3   OH226337   1.578   6.472  13.687  0.1825  0.2062  0.0734
 1641TIP3    H126338   1.607   6.386  13.654  0.0879  0.3659 -0.4357
 1641TIP3    H226339   1.511   6.451  13.752  1.1250 -0.1500  0.9560
 1642TIP3   OH226340   1.427   1.626  14.913 -0.2034  0.0531 -0.2849
 1642TIP3    H126341   1.367   1.613  14.986 -1.4380  3.7119 -0.4457
 1642TIP3    H226342   1.370   1.631  14.836  0.1949  2.9269 -0.5228
 1643TIP3   OH226343   5.213   0.339  13.679  0.2313  0.1253  0.6521
 1643TIP3    H126344   5.304   0.310  13.688  0.1411 -0.6473 -0.6612
 1643TIP3    H226345   5.208   0.373  13.590 -1.3782 -2.2890 -0.2681
 1644TIP3   OH226346   3.401   2.421  13.349 -0.1243  0.1563  0.4603
 1644TIP3    H126347   3.444   2.502  13.377  1.2748 -0.9037  1.5490
 1644TIP3    H226348   3.398   2.426  13.254  2.8471  0.1284  0.2926
 1645TIP3   OH226349   5.084   2.029   2.337 -0.3147  0.9540  0.3979
 1645TIP3    H126350   5.031   2.053   2.261 -0.6670  1.3112  0.7515
 1645TIP3    H226351   5.028   1.971   2.388 -0.0431  0.6375  0.3501
 1646TIP3   OH226352   0.354   0.131   4.266 -0.0399 -0.0866 -0.2893
 1646TIP3    H126353   0.348   0.147   4.360  1.6421 -1.4522  0.1087
 1646TIP3    H226354   0.267   0.153   4.232 -1.4612 -1.7840  1.9499
 1647TIP3   OH226355   5.797   5.764   5.219 -0.6462 -0.0708  0.0885
 1647TIP3    H126356   5.801   5.726   5.131 -0.8827  1.3590 -0.5697
 1647TIP3    H226357   5.888   5.767   5.248  0.0892  3.4818 -1.9732
 1648TIP3   OH226358   3.046   3.642  17.020 -0.3987  0.3387  0.3383
 1648TIP3    H126359   2.978   3.603  17.075 -1.2332  1.5795  0.2465
 1648TIP3    H226360   3.116   3.578  17.018 -2.0353 -1.5191 -0.4936
 1649TIP3   OH226361   3.494   4.193  12.457 -0.0377 -0.0216  0.4507
 1649TIP3    H126362   3.473   4.154  12.542 -0.9487  0.4861  0.4800
 1649TIP3    H226363   3.426   4.260  12.445  0.3305  0.1918 -0.4896
 1650TIP3   OH226364   1.114   0.284   2.313 -0.6336  0.3274 -0.0170
 1650TIP3    H126365   1.205   0.300   2.335 -0.6354  0.3364 -0.0154
 1650TIP3    H226366   1.080   0.370   2.288 -0.5657  0.2704 -0.3009
 1651TIP3   OH226367   5.388   0.692   3.838  0.3545 -0.2598 -0.0942
 1651TIP3    H126368   5.398   0.706   3.932 -1.5739 -0.4585  0.1878
 1651TIP3    H226369   5.426   0.605   3.823  1.6009  0.1936  0.2839
 1652TIP3   OH226370   3.161   3.625  12.527  0.2520 -0.7047 -0.4112
 1652TIP3    H126371   3.239   3.577  12.499  0.2170 -0.6032 -0.6855
 1652TIP3    H226372   3.128   3.666  12.447 -0.3130 -1.0764 -0.3739
 1653TIP3   OH226373   1.864   6.336  14.961 -0.3212  0.3658 -0.0099
 1653TIP3    H126374   1.836   6.264  14.903 -1.5758 -0.0419  1.0521
 1653TIP3    H226375   1.828   6.414  14.919 -0.9789  0.1069  0.0564
 1654TIP3   OH226376   0.889   6.658  13.832  0.2012 -0.3805 -0.7169
 1654TIP3    H126377   0.817   6.650  13.769 -0.3282 -4.5082  0.1228
 1654TIP3    H226378   0.964   6.684  13.780 -1.2650  1.4510 -2.0675
 1655TIP3   OH226379   1.039   0.747   4.508 -0.3001 -0.3876 -0.3011
 1655TIP3    H126380   0.991   0.806   4.566 -0.8388  0.7914 -1.8693
 1655TIP3    H226381   1.077   0.805   4.442 -0.5644 -1.7703 -1.7119
 1656TIP3   OH226382   0.796   3.727   1.876 -0.3746 -0.2251 -0.4828
 1656TIP3    H126383   0.717   3.712   1.823  0.6784  0.6708 -2.4201
 1656TIP3    H226384   0.795   3.820   1.895  0.1161 -0.2473 -0.3367
 1657TIP3   OH226385   0.177   4.815   1.550  0.5185 -0.2282  0.2674
 1657TIP3    H126386   0.239   4.779   1.613 -0.8119  1.0960  2.5062
 1657TIP3    H226387   0.113   4.745   1.536 -0.1460  0.0230  1.8468
 1658TIP3   OH226388   5.788   1.727   3.934 -0.5319  0.0032 -0.2529
 1658TIP3    H126389   5.814   1.751   3.845  3.9207  1.7515  1.2455
 1658TIP3    H226390   5.734   1.801   3.964  0.6692  1.0083 -0.4928
 1659TIP3   OH226391   1.085   2.588  14.342  0.7712 -0.3195 -0.2598
 1659TIP3    H126392   1.083   2.617  14.433  1.1595  2.1806 -0.9719
 1659TIP3    H226393   1.158   2.636  14.303 -0.1944 -0.3048 -2.1854
 1660TIP3   OH226394   0.016   2.446   2.777  0.5337  0.3146  0.0611
 1660TIP3    H126395   0.048   2.482   2.695  1.8018 -0.8240  0.0210
 1660TIP3    H226396  -0.056   2.388   2.751  0.1637  0.8447 -0.1147
 1661TIP3   OH226397   3.480   3.912   3.701 -0.1936 -0.4245  0.3271
 1661TIP3    H126398   3.476   4.006   3.683 -2.9460  0.1192  3.0530
 1661TIP3    H226399   3.453   3.871   3.618  1.0340  1.1353 -0.9004
 1662TIP3   OH226400   0.222   0.685   3.138  0.3297 -0.5179 -0.1539
 1662TIP3    H126401   0.155   0.681   3.069 -0.2984 -0.8132  0.4655
 1662TIP3    H226402   0.255   0.775   3.133 -0.7354 -0.1007  0.1085
 1663TIP3   OH226403   1.111   1.130   5.349 -0.5774  0.3223 -0.2027
 1663TIP3    H126404   1.137   1.042   5.375 -0.6130  0.6230  0.9343
 1663TIP3    H226405   1.039   1.117   5.288 -0.4915 -0.4399 -0.1498
 1664TIP3   OH226406   5.802   6.592   1.360  0.4920 -0.7519 -0.2256
 1664TIP3    H126407   5.848   6.546   1.290  0.3133 -1.9937  0.4613
 1664TIP3    H226408   5.752   6.660   1.314  1.1150 -0.9282 -1.2040
 1665TIP3   OH226409   6.521   1.962   0.127  0.2184  0.0636  0.2878
 1665TIP3    H126410   6.487   2.051   0.133  1.4143  0.6045 -0.6139
 1665TIP3    H226411   6.522   1.943   0.033  0.6392 -0.6416  0.4276
 1666TIP3   OH226412   6.189   4.515  16.000  0.1196 -0.7052  0.3162
 1666TIP3    H126413   6.098   4.486  15.996 -0.0222 -0.1812 -0.4848
 1666TIP3    H226414   6.240   4.434  15.992 -0.2611 -1.0259  1.0008
 1667TIP3   OH226415   4.587   2.359  12.336  0.0857 -0.1400  0.3760
 1667TIP3    H126416   4.526   2.366  12.409  0.8057 -0.0059  0.9819
 1667TIP3    H226417   4.643   2.285  12.360  0.3820 -0.0386 -0.0023
 1668TIP3   OH226418   3.408   5.693  16.570  0.1977 -0.4603 -0.4737
 1668TIP3    H126419   3.421   5.769  16.627 -0.9869 -0.7836  0.2651
 1668TIP3    H226420   3.337   5.719  16.511 -2.2200 -1.8946  1.6024
 1669TIP3   OH226421   4.509   3.071   3.984 -0.0424  0.3662 -0.6980
 1669TIP3    H126422   4.463   3.091   3.902  0.7652  1.1214 -0.9785
 1669TIP3    H226423   4.595   3.112   3.974  0.1709  0.2134  0.4149
 1670TIP3   OH226424   2.630   2.583   5.837  0.2145  0.1078  0.8769
 1670TIP3    H126425   2.540   2.596   5.807  0.4153  1.2356  0.7111
 1670TIP3    H226426   2.682   2.640   5.780  1.0972 -0.9286  0.6284
 1671TIP3   OH226427   2.714   6.345  11.411 -0.7519  0.6122 -0.5257
 1671TIP3    H126428   2.677   6.432  11.424 -1.5466  0.1938  0.1243
 1671TIP3    H226429   2.733   6.314  11.499 -1.0178 -0.0937 -0.7089
 1672TIP3   OH226430   1.071   2.735   2.193  0.1100 -0.2748 -0.3351
 1672TIP3    H126431   1.076   2.820   2.237  0.8497 -0.9809  1.0423
 1672TIP3    H226432   1.092   2.753   2.102 -0.1629  1.0759 -0.1493
 1673TIP3   OH226433   6.493   5.971  14.418 -0.5777  0.4189 -0.5472
 1673TIP3    H126434   6.414   5.962  14.364  0.4919  0.3717 -2.1953
 1673TIP3    H226435   6.563   5.936  14.362  0.7451  1.3066  0.5137
 1674TIP3   OH226436   3.352   2.988   1.001  0.0255 -0.7486  0.2163
 1674TIP3    H126437   3.401   3.022   0.926 -0.6552  0.2925  0.2269
 1674TIP3    H226438   3.407   2.917   1.035  0.3700 -1.2004 -1.2191
 1675TIP3   OH226439   6.695   1.910  13.139  0.8460  0.4070  0.4415
 1675TIP3    H126440   6.738   1.830  13.171 -0.3243 -1.5758 -2.5055
 1675TIP3    H226441   6.742   1.931  13.058 -0.9262  0.7627 -0.5372
 1676TIP3   OH226442   4.954   6.413  15.906  0.5722  0.7664  0.2407
 1676TIP3    H126443   4.902   6.345  15.863 -1.0881  2.5804 -0.7787
 1676TIP3    H226444   5.002   6.456  15.835 -0.9227  2.7230  0.3281
 1677TIP3   OH226445   2.976   3.646  14.312 -0.3044 -0.3962  0.2868
 1677TIP3    H126446   2.896   3.596  14.293 -0.5763 -0.0061  0.3972
 1677TIP3    H226447   2.978   3.713  14.244  1.6132 -2.2982 -1.7128
 1678TIP3   OH226448   3.776   0.179  12.912 -0.0994  0.0312  0.0432
 1678TIP3    H126449   3.786   0.112  12.979  1.7560 -0.4306 -0.6287
 1678TIP3    H226450   3.711   0.239  12.947  1.2721  0.1714  2.5340
 1679TIP3   OH226451   4.096   3.082   1.257  0.5921  0.1502  0.1019
 1679TIP3    H126452   4.070   3.022   1.328  0.7883 -0.2739 -0.1776
 1679TIP3    H226453   4.050   3.163   1.276 -0.3061 -0.3395  0.0572
 1680TIP3   OH226454   0.986   5.911   1.523  0.3851  0.4241  0.1689
 1680TIP3    H126455   0.959   5.967   1.596  0.4791  0.3401  0.2679
 1680TIP3    H226456   1.068   5.872   1.552 -1.2775 -2.3933  1.5361
 1681TIP3   OH226457   2.251   4.809   1.279  0.2828 -0.2286  0.3435
 1681TIP3    H126458   2.296   4.792   1.197 -0.8845 -1.0063 -0.1486
 1681TIP3    H226459   2.278   4.898   1.302  0.7273 -0.0476 -0.7994
 1682TIP3   OH226460   1.203   2.044  13.143 -0.0440 -0.6549  0.4054
 1682TIP3    H126461   1.115   2.008  13.134 -0.4036  0.6213 -1.9090
 1682TIP3    H226462   1.240   2.038  13.055  1.2301  1.1974  0.7706
 1683TIP3   OH226463   5.232   2.618   5.168 -0.2695  0.3133  0.1641
 1683TIP3    H126464   5.323   2.641   5.187 -0.0384  0.4886 -1.0843
 1683TIP3    H226465   5.212   2.663   5.086 -1.5131  0.3450  0.4620
 1684TIP3   OH226466   5.763   0.259   1.388 -0.1936  0.8288 -0.2429
 1684TIP3    H126467   5.747   0.250   1.294  2.4020 -0.3486 -0.6452
 1684TIP3    H226468   5.791   0.349   1.400  0.9227  0.5882 -0.8886
 1685TIP3   OH226469   6.791   5.928  14.563 -0.3224 -0.2315  0.1657
 1685TIP3    H126470   6.827   5.860  14.620  0.2961  0.6287  0.8383
 1685TIP3    H226471   6.862   5.992  14.553 -1.2439  0.9038  0.5359
 1686TIP3   OH226472   0.566   6.240   1.814  0.0736 -0.7307 -0.4328
 1686TIP3    H126473   0.502   6.297   1.770  0.7790  0.0634 -0.4461
 1686TIP3    H226474   0.522   6.155   1.818 -1.2954 -0.0363  0.2300
 1687TIP3   OH226475   0.054   3.388   5.796 -0.0680  0.4390 -0.1796
 1687TIP3    H126476   0.025   3.303   5.763 -1.1895  0.5988  0.3524
 1687TIP3    H226477   0.149   3.389   5.780 -0.1470 -0.6283 -0.7976
 1688TIP3   OH226478   3.533   0.839   4.613  0.3542  0.3128  0.1068
 1688TIP3    H126479   3.588   0.787   4.555 -1.1397 -0.6891 -0.4633
 1688TIP3    H226480   3.529   0.788   4.694  2.0661  1.4905  1.0018
 1689TIP3   OH226481   1.315   1.696  14.669 -0.0131  0.6395  0.4873
 1689TIP3    H126482   1.401   1.735  14.652 -0.4730  1.2897 -0.3729
 1689TIP3    H226483   1.257   1.770  14.683 -1.2790  0.4782 -2.8838
 1690TIP3   OH226484   5.822   3.728  15.373 -0.1709  0.9551  0.0841
 1690TIP3    H126485   5.849   3.705  15.284  0.9556 -0.1469  0.6848
 1690TIP3    H226486   5.737   3.771  15.361  0.5150  1.9212 -1.6108
 1691TIP3   OH226487   5.071   6.495  15.687  0.1683  0.2511  0.0918
 1691TIP3    H126488   5.066   6.529  15.598 -0.0445 -1.2087 -0.4796
 1691TIP3    H226489   5.160   6.461  15.694  0.7153  1.7634  1.0014
 1692TIP3   OH226490   6.748   0.828  12.398  0.1594 -0.3080  0.7601
 1692TIP3    H126491   6.664   0.796  12.366  0.4996 -0.1426 -0.3409
 1692TIP3    H226492   6.764   0.778  12.478 -0.9381 -0.4017  0.9281
 1693TIP3   OH226493   0.411   6.028  11.064  0.1830 -0.0788  0.0225
 1693TIP3    H126494   0.453   5.942  11.060  1.5434  0.5898 -0.7427
 1693TIP3    H226495   0.370   6.038  10.978 -0.3351 -0.1287  0.2613
 1694TIP3   OH226496   1.266   2.901   2.405  0.2093  0.7346 -0.1797
 1694TIP3    H126497   1.183   2.934   2.371  1.2341  1.7171 -1.9093
 1694TIP3    H226498   1.323   2.978   2.408  1.5126 -0.1731 -0.5644
 1695TIP3   OH226499   5.403   5.518  14.285  0.6240 -0.1201  0.2671
 1695TIP3    H126500   5.473   5.579  14.309  1.3655 -1.2618  1.1718
 1695TIP3    H226501   5.323   5.561  14.313  1.1597  0.3378  1.1611
 1696TIP3   OH226502   1.864   3.382  14.471  0.4135  0.1422  0.4733
 1696TIP3    H126503   1.825   3.428  14.396  0.8234  1.4526  1.0335
 1696TIP3    H226504   1.810   3.303  14.481 -1.5524  1.4248  0.6403
 1697TIP3   OH226505   2.047   6.499   1.474  0.1840 -0.8519 -0.3084
 1697TIP3    H126506   2.066   6.560   1.545 -1.3107 -0.0224 -0.5522
 1697TIP3    H226507   2.082   6.543   1.396 -2.9073  0.9712 -0.8514
 1698TIP3   OH226508   6.081   5.640  15.477 -0.0439 -0.1542  0.2369
 1698TIP3    H126509   6.102   5.697  15.403  1.0760  0.3771  0.9241
 1698TIP3    H226510   6.152   5.656  15.540 -0.8092 -0.7950  1.3022
 1699TIP3   OH226511   6.557   5.132  12.326  0.4375 -0.1176  0.1261
 1699TIP3    H126512   6.584   5.082  12.403  0.4555  0.7691  0.7165
 1699TIP3    H226513   6.464   5.150  12.340  0.5458  0.4385  0.1820
 1700TIP3   OH226514   3.666   0.575   5.982 -0.5122 -0.0668  0.5136
 1700TIP3    H126515   3.670   0.666   5.952  0.4549 -0.1929  0.2329
 1700TIP3    H226516   3.749   0.537   5.953 -0.3281 -0.6797  1.8016
 1701TIP3   OH226517   5.503   3.412  16.915  0.1383  0.0582  0.2193
 1701TIP3    H126518   5.483   3.476  16.983 -0.1235 -0.0953  0.2890
 1701TIP3    H226519   5.462   3.449  16.836 -0.5765 -0.3336  0.3960
 1702TIP3   OH226520   0.861   4.017  11.723 -0.2601 -0.0944 -0.1586
 1702TIP3    H126521   0.913   4.073  11.666 -1.4343  0.9295 -0.2634
 1702TIP3    H226522   0.797   4.076  11.763 -0.7290 -1.1464  0.6892
 1703TIP3   OH226523   3.837   6.071  11.719  0.0594 -0.0663 -0.3440
 1703TIP3    H126524   3.746   6.092  11.698  0.0369  0.5304  0.3226
 1703TIP3    H226525   3.831   5.992  11.773 -0.0306 -0.2735 -0.6542
 1704TIP3   OH226526   1.968   4.677   5.704 -0.2132 -0.4809 -0.0389
 1704TIP3    H126527   1.906   4.676   5.777  0.1006  0.6200  0.2644
 1704TIP3    H226528   2.049   4.712   5.741 -0.4114  1.2761 -1.1457
 1705TIP3   OH226529   0.878   3.289  16.908 -0.1664  0.3250 -1.0711
 1705TIP3    H126530   0.806   3.328  16.957 -0.3597  0.3312 -1.3581
 1705TIP3    H226531   0.956   3.306  16.962 -0.3239  0.6453 -0.9436
 1706TIP3   OH226532   1.932   6.621  16.329  0.3354 -0.0311 -0.2128
 1706TIP3    H126533   1.976   6.610  16.414  1.8474 -0.7685 -1.0480
 1706TIP3    H226534   1.991   6.580  16.266 -0.3334  1.2775 -1.7579
 1707TIP3   OH226535   5.753   6.516  10.962  0.4345 -0.3471  0.3275
 1707TIP3    H126536   5.659   6.503  10.971  0.4061 -0.5582 -0.2261
 1707TIP3    H226537   5.785   6.521  11.052 -0.1920  0.3754  0.5193
 1708TIP3   OH226538   4.564   6.553   5.173  0.1860 -0.7625 -0.3420
 1708TIP3    H126539   4.636   6.555   5.110 -1.1618  0.5107 -1.9461
 1708TIP3    H226540   4.554   6.644   5.200 -0.8510 -0.9054 -0.2057
 1709TIP3   OH226541   0.485   0.504   1.202  0.4896 -0.2654 -0.0771
 1709TIP3    H126542   0.437   0.504   1.285 -0.3582  0.5039 -0.5418
 1709TIP3    H226543   0.465   0.419   1.163 -0.9561  0.2419 -0.4987
 1710TIP3   OH226544   1.895   4.116   1.096  0.0524  0.2915  0.5737
 1710TIP3    H126545   1.880   4.210   1.110  0.9942  0.9343 -2.0775
 1710TIP3    H226546   1.988   4.104   1.117  0.4196  0.4061 -0.8743
 1711TIP3   OH226547   1.052   1.595   2.653  0.2383 -0.2388  0.2066
 1711TIP3    H126548   1.088   1.514   2.689  0.4693 -0.5181 -0.6239
 1711TIP3    H226549   0.960   1.576   2.635  0.1369 -0.1169  0.5986
 1712TIP3   OH226550   5.309   4.326  16.005  0.3164 -0.0983 -0.5832
 1712TIP3    H126551   5.377   4.359  15.947 -1.1350  1.3752 -1.5492
 1712TIP3    H226552   5.232   4.379  15.984 -0.3441  0.4059  2.5555
 1713TIP3   OH226553   2.713   1.810   1.554  0.0144 -0.4406  0.4239
 1713TIP3    H126554   2.702   1.864   1.476 -0.3612  0.2398  0.9392
 1713TIP3    H226555   2.742   1.870   1.622  1.4960 -1.2352  0.5351
 1714TIP3   OH226556   3.235   4.504  14.060 -0.3663 -0.1159  0.3216
 1714TIP3    H126557   3.206   4.414  14.076  0.0249 -0.1743  0.7421
 1714TIP3    H226558   3.308   4.516  14.121 -1.9624  1.3097  2.0996
 1715TIP3   OH226559   4.225   3.035  13.027 -0.2108 -0.0142  0.2351
 1715TIP3    H126560   4.316   3.030  12.998  0.2181 -0.7414  1.6157
 1715TIP3    H226561   4.174   3.007  12.951  0.7612 -0.3123 -0.3265
 1716TIP3   OH226562   2.411   5.753   1.449 -0.4625 -0.3327  0.8666
 1716TIP3    H126563   2.426   5.676   1.395 -0.1649  1.7626 -2.2925
 1716TIP3    H226564   2.326   5.787   1.419  0.6010  1.9570  0.2592
 1717TIP3   OH226565   4.234   3.272  12.216  0.3528 -0.5090 -0.0479
 1717TIP3    H126566   4.311   3.282  12.160  0.8454  0.6483  0.8007
 1717TIP3    H226567   4.190   3.194  12.182  2.2341 -1.5830 -0.1725
 1718TIP3   OH226568   1.283   5.696  15.480  0.7696  0.9137 -0.3318
 1718TIP3    H126569   1.216   5.663  15.540  1.7174 -0.9201 -0.1822
 1718TIP3    H226570   1.351   5.731  15.537  1.0232  0.4869 -0.3603
 1719TIP3   OH226571   6.576   0.759  14.536  0.2737  0.7346 -0.2275
 1719TIP3    H126572   6.507   0.822  14.514 -0.9637 -0.5846 -0.2947
 1719TIP3    H226573   6.541   0.675  14.506  1.2867 -0.1926  1.0895
 1720TIP3   OH226574   2.804   1.008  16.176  0.8630 -0.1836  0.3378
 1720TIP3    H126575   2.879   1.022  16.118  1.4891 -0.6304  1.0209
 1720TIP3    H226576   2.736   1.067  16.142  1.0071 -0.8568 -1.1947
 1721TIP3   OH226577   1.717   0.232  11.034  0.3017  0.1845  0.0791
 1721TIP3    H126578   1.631   0.274  11.034  1.1172  1.9503  0.8316
 1721TIP3    H226579   1.741   0.225  11.126  0.0867 -2.2698  0.0042
 1722TIP3   OH226580   3.427   2.737  14.484  0.0516  0.4154 -0.2851
 1722TIP3    H126581   3.419   2.799  14.412  2.4833  1.7130  0.4617
 1722TIP3    H226582   3.495   2.774  14.541 -0.4088 -1.5244  1.6839
 1723TIP3   OH226583   3.291   3.592  12.780 -0.1212  0.1296  0.7822
 1723TIP3    H126584   3.212   3.577  12.729 -1.1232 -1.0418  2.5957
 1723TIP3    H226585   3.265   3.579  12.871  2.4044 -1.5756  1.3823
 1724TIP3   OH226586   3.779   6.110   1.814 -0.1178 -0.0442  0.1730
 1724TIP3    H126587   3.829   6.085   1.735  2.1389  0.9379  1.1938
 1724TIP3    H226588   3.839   6.092   1.886 -2.7360 -2.5188  1.9157
 1725TIP3   OH226589   5.670   2.170   3.494 -0.0239 -0.5483 -0.0312
 1725TIP3    H126590   5.659   2.193   3.586 -1.8933  0.1534 -0.3774
 1725TIP3    H226591   5.754   2.124   3.490  0.4321  0.0316  1.8862
 1726TIP3   OH226592   2.516   2.545  11.980  0.2465 -0.2410  0.0237
 1726TIP3    H126593   2.484   2.468  11.933  0.6367  0.0772 -0.7700
 1726TIP3    H226594   2.439   2.600  11.992  0.0736 -0.4974  0.1024
 1727TIP3   OH226595   3.942   2.353  15.591 -0.1930  0.0558  0.6285
 1727TIP3    H126596   3.984   2.345  15.505 -0.0367 -0.8802  0.7902
 1727TIP3    H226597   3.978   2.281  15.642 -1.5345 -0.3991  0.9668
 1728TIP3   OH226598   6.092   3.177  14.536  0.4410 -0.2349 -0.3343
 1728TIP3    H126599   6.061   3.260  14.571 -1.1636 -0.8186 -0.2918
 1728TIP3    H226600   6.070   3.180  14.443  2.3265  0.2295 -0.8236
 1729TIP3   OH226601   0.605   6.783   2.404  0.0287  0.4152 -0.5085
 1729TIP3    H126602   0.638   6.752   2.488 -0.2809 -2.2874 -1.2863
 1729TIP3    H226603   0.510   6.769   2.408  0.0366  0.0102 -1.3686
 1730TIP3   OH226604   4.855   1.753  16.055 -0.5638 -0.1993 -0.1412
 1730TIP3    H126605   4.874   1.819  16.122 -0.1873 -0.1062 -0.3358
 1730TIP3    H226606   4.837   1.804  15.976 -0.8471 -0.3127 -0.1507
 1731TIP3   OH226607   4.907   0.910  14.767 -0.5711  0.0502  0.7014
 1731TIP3    H126608   4.844   0.981  14.779  0.0575  0.5284  1.2795
 1731TIP3    H226609   4.854   0.832  14.757 -1.3418  0.7942 -1.5334
 1732TIP3   OH226610   4.076   3.029  12.796  0.1776  0.2659  0.5023
 1732TIP3    H126611   4.151   2.975  12.772 -1.2156 -1.2560 -0.6643
 1732TIP3    H226612   4.036   3.052  12.713 -0.5450  1.2286  1.0962
 1733TIP3   OH226613   0.125   0.361  16.998  0.6508 -0.0763  0.0173
 1733TIP3    H126614   0.192   0.308  16.954  0.3603 -0.5361  0.1251
 1733TIP3    H226615   0.174   0.413  17.062  0.9682 -0.0304 -0.2621
 1734TIP3   OH226616   0.037   2.168   2.523  0.2620  0.2617 -0.0668
 1734TIP3    H126617   0.092   2.245   2.539  1.0757 -0.3550  0.2083
 1734TIP3    H226618  -0.052   2.202   2.521  0.7268  1.6139 -2.3877
 1735TIP3   OH226619   3.870   0.199  17.117 -0.5127  0.1598 -0.2164
 1735TIP3    H126620   3.913   0.184  17.201 -0.1904  0.6511 -0.2907
 1735TIP3    H226621   3.837   0.113  17.091  2.3496 -0.7249 -1.2288
 1736TIP3   OH226622   3.613   1.601   0.092 -0.3211  0.0143 -0.6560
 1736TIP3    H126623   3.694   1.642   0.063 -0.4271  0.2657 -0.6011
 1736TIP3    H226624   3.555   1.674   0.113 -1.0272 -0.1437 -1.9474
 1737TIP3   OH226625   6.174   0.408   3.597  0.0972  0.1236  0.2013
 1737TIP3    H126626   6.096   0.435   3.645  0.2950  0.0604  0.5661
 1737TIP3    H226627   6.149   0.326   3.554 -0.6909  1.1644 -1.3970
 1738TIP3   OH226628   4.224   4.889   0.219 -0.8116 -0.2377  0.4382
 1738TIP3    H126629   4.129   4.897   0.214 -0.6151  2.4287 -0.5326
 1738TIP3    H226630   4.250   4.864   0.130 -0.4828  1.3472  0.0646
 1739TIP3   OH226631   4.378   1.557   4.574 -0.1162  0.3474  0.1576
 1739TIP3    H126632   4.288   1.532   4.551  0.2774  0.4963 -1.7108
 1739TIP3    H226633   4.425   1.553   4.491  1.8801 -0.8116  1.2685
 1740TIP3   OH226634   5.799   0.810   5.064 -0.2082 -0.5742 -0.0703
 1740TIP3    H126635   5.806   0.896   5.107 -1.6853  0.3498 -1.5650
 1740TIP3    H226636   5.711   0.780   5.084  0.1876 -1.6315  0.1714
 1741TIP3   OH226637   3.798   2.636   0.648 -0.0245  0.3194  0.0561
 1741TIP3    H126638   3.829   2.692   0.577  2.7547 -0.5241  0.4855
 1741TIP3    H226639   3.832   2.676   0.728 -2.2881  0.7092  0.9204
 1742TIP3   OH226640   2.760   1.453  12.099 -0.0200 -0.5262 -0.2042
 1742TIP3    H126641   2.720   1.394  12.036 -3.4618 -0.5276  1.7322
 1742TIP3    H226642   2.747   1.411  12.184 -0.2502  1.7698  0.9954
 1743TIP3   OH226643   3.034   3.081  16.654  0.6196  0.2750  0.5482
 1743TIP3    H126644   2.997   3.027  16.585 -0.3841  0.4469  0.9400
 1743TIP3    H226645   3.070   3.018  16.717  2.3736  0.1238 -0.5404
 1744TIP3   OH226646   1.380   1.997  15.955 -0.0161  0.2924 -0.0580
 1744TIP3    H126647   1.342   2.016  16.041 -0.4725  1.5496 -0.5133
 1744TIP3    H226648   1.397   1.903  15.956 -0.8147  0.1442  1.0917
 1745TIP3   OH226649   4.664   5.085   0.094 -0.2068 -0.0959 -0.6894
 1745TIP3    H126650   4.574   5.104   0.121 -0.2883  0.2850 -1.2136
 1745TIP3    H226651   4.706   5.052   0.174 -0.0010  2.4591  0.3547
 1746TIP3   OH226652   5.224   4.999  16.467 -0.1260  0.5476 -0.1767
 1746TIP3    H126653   5.291   4.950  16.420  1.0039  0.0075  1.8585
 1746TIP3    H226654   5.141   4.960  16.439  0.6913 -2.0351  0.7484
 1747TIP3   OH226655   0.463   6.422  16.263 -0.2711 -0.0821 -0.3166
 1747TIP3    H126656   0.529   6.370  16.309  0.1247  0.0798 -0.6953
 1747TIP3    H226657   0.460   6.384  16.175 -1.0562 -0.4188 -0.1538
 1748TIP3   OH226658   0.401   0.264   5.425 -0.2018  0.0142 -0.2736
 1748TIP3    H126659   0.426   0.231   5.339 -0.3731  0.4831 -0.5023
 1748TIP3    H226660   0.394   0.185   5.479  0.0148 -0.2721 -0.6578
 1749TIP3   OH226661   0.498   1.338  12.650  0.9753  0.6875  0.2011
 1749TIP3    H126662   0.490   1.410  12.712  0.5036  1.1667 -0.3977
 1749TIP3    H226663   0.592   1.328  12.636  1.0438  1.1317  0.3543
 1750TIP3   OH226664   6.157   2.577   1.586  0.6334 -0.1561 -0.3827
 1750TIP3    H126665   6.233   2.523   1.567  1.8765  0.2840  2.7279
 1750TIP3    H226666   6.119   2.538   1.664 -1.4265  0.5852 -0.9411
 1751TIP3   OH226667   6.569   2.309   4.759  0.1550  0.4235 -0.2660
 1751TIP3    H126668   6.485   2.355   4.764  0.7969  1.4998  1.8220
 1751TIP3    H226669   6.556   2.229   4.811  0.0080 -0.1593 -1.1790
 1752TIP3   OH226670   0.845   1.218   2.683  0.3224  0.1239 -0.1959
 1752TIP3    H126671   0.790   1.221   2.761  0.9712  0.9117  0.2355
 1752TIP3    H226672   0.813   1.142   2.634 -1.9240  1.2204 -0.5341
 1753TIP3   OH226673   2.193   6.738   4.802  0.5847  0.2639  0.3017
 1753TIP3    H126674   2.282   6.703   4.813 -0.3133 -1.3923  3.7366
 1753TIP3    H226675   2.142   6.664   4.770 -0.1122  0.3199  1.2656
 1754TIP3   OH226676   1.768   6.094  17.152  0.1616 -0.1362 -0.0014
 1754TIP3    H126677   1.862   6.097  17.135 -0.1996 -1.9558 -2.9656
 1754TIP3    H226678   1.756   6.020  17.210  0.5406  0.1449  0.4464
 1755TIP3   OH226679   4.805   3.604  12.246  0.0250  0.3928 -0.6606
 1755TIP3    H126680   4.845   3.520  12.220 -0.5641  0.1334 -0.7652
 1755TIP3    H226681   4.859   3.670  12.204  0.0472  0.0296 -1.2216
 1756TIP3   OH226682   6.006   2.781   6.616  0.0377  0.4544  0.2681
 1756TIP3    H126683   6.040   2.724   6.684 -0.7227  2.1202  2.1361
 1756TIP3    H226684   6.027   2.869   6.646 -0.8570  1.2728 -1.3744
 1757TIP3   OH226685   2.080   3.599  13.082 -0.0833 -0.5558 -0.2871
 1757TIP3    H126686   1.987   3.589  13.103 -0.6133  0.5957 -1.9267
 1757TIP3    H226687   2.099   3.691  13.099  0.3761 -0.4479 -1.3217
 1758TIP3   OH226688   5.048   6.769  16.368 -0.6350  0.0321 -0.0488
 1758TIP3    H126689   5.112   6.701  16.387  0.3032  0.6758 -0.7501
 1758TIP3    H226690   5.069   6.839  16.430 -1.7424 -0.3895  0.8238
 1759TIP3   OH226691   5.513   6.659  10.987  0.4293  0.8252  0.6609
 1759TIP3    H126692   5.494   6.739  10.937  0.4764 -0.3875 -1.4134
 1759TIP3    H226693   5.428   6.630  11.018 -0.0259  0.1839 -1.0486
 1760TIP3   OH226694   0.018   0.261  15.677  0.1935  0.2469  0.3163
 1760TIP3    H126695  -0.045   0.194  15.653  0.2249 -0.5746  2.3243
 1760TIP3    H226696   0.008   0.271  15.772  1.9419  1.2600  0.4507
 1761TIP3   OH226697   1.345   3.631   3.754  0.4503  0.4465  0.1280
 1761TIP3    H126698   1.364   3.667   3.668 -1.5089 -1.0466 -1.0135
 1761TIP3    H226699   1.391   3.547   3.756  0.1170  0.2653  0.3487
 1762TIP3   OH226700   4.594   0.689   1.242  0.5779 -0.1819 -0.2461
 1762TIP3    H126701   4.685   0.720   1.238  0.6093 -0.3314 -0.6611
 1762TIP3    H226702   4.574   0.660   1.153 -0.0201  0.2581 -0.2583
 1763TIP3   OH226703   1.023   3.259   4.324  0.5965  0.0636  0.4999
 1763TIP3    H126704   0.985   3.268   4.412 -0.4129  0.0911  0.0697
 1763TIP3    H226705   0.988   3.334   4.276 -1.1030 -1.4258 -0.7101
 1764TIP3   OH226706   5.396   1.180  13.134  0.5174  0.4258  0.7212
 1764TIP3    H126707   5.380   1.160  13.226 -0.2168  0.5849  0.6328
 1764TIP3    H226708   5.329   1.244  13.111 -1.4897 -2.0278 -0.8228
 1765TIP3   OH226709   0.368   5.505   5.606  0.0469 -0.1500 -0.5821
 1765TIP3    H126710   0.456   5.495   5.642 -0.8304 -0.9999  1.4578
 1765TIP3    H226711   0.336   5.415   5.597 -0.2702  0.1022 -2.3209
 1766TIP3   OH226712   1.108   4.508  15.681 -0.7299 -0.9703 -0.0040
 1766TIP3    H126713   1.089   4.591  15.724 -1.6471 -1.4795  0.6247
 1766TIP3    H226714   1.148   4.531  15.598 -0.3806  0.0803  0.4490
 1767TIP3   OH226715   5.468   3.065   0.884  0.1129  0.3079  0.0284
 1767TIP3    H126716   5.466   3.013   0.804 -0.1535  1.6595 -0.8882
 1767TIP3    H226717   5.552   3.111   0.880 -0.6109  1.6389 -0.3362
 1768TIP3   OH226718   2.881   0.888   1.471 -0.0937 -0.1368 -0.0177
 1768TIP3    H126719   2.806   0.894   1.413 -0.5674 -1.8701  0.3572
 1768TIP3    H226720   2.935   0.964   1.449 -0.7043 -0.2425 -2.0665
 1769TIP3   OH226721   6.416   4.122  12.965  0.1941  0.7763 -0.0921
 1769TIP3    H126722   6.386   4.091  13.051  0.0040  2.0773  0.3254
 1769TIP3    H226723   6.454   4.208  12.982 -0.2081  1.2309 -1.3670
 1770TIP3   OH226724   2.794   5.106   5.212  0.0296 -0.5423  0.5155
 1770TIP3    H126725   2.793   5.062   5.297 -0.8332 -0.1908  0.6939
 1770TIP3    H226726   2.810   5.035   5.150 -2.1041 -1.3038  0.7323
 1771TIP3   OH226727   3.005   6.281  14.018 -0.4780 -0.4216 -0.4667
 1771TIP3    H126728   3.050   6.338  13.955 -1.7938 -0.2475 -1.2783
 1771TIP3    H226729   3.055   6.199  14.015 -0.8052 -0.6044 -2.1454
 1772TIP3   OH226730   2.048   6.547   3.501  0.1995  0.3202  0.2341
 1772TIP3    H126731   2.019   6.460   3.529 -1.1530  0.8450  0.5272
 1772TIP3    H226732   2.004   6.607   3.560  0.5951  1.2496 -0.3940
 1773TIP3   OH226733   4.251   4.454   3.729  0.5567 -0.0639 -0.1281
 1773TIP3    H126734   4.226   4.521   3.666  0.8785  0.2899  0.1185
 1773TIP3    H226735   4.245   4.497   3.814 -1.5083 -1.0110  0.2491
 1774TIP3   OH226736   5.222   4.956   5.703  0.5777 -0.4208  0.4890
 1774TIP3    H126737   5.174   5.038   5.713  0.1971 -0.3905 -1.3213
 1774TIP3    H226738   5.199   4.905   5.781 -1.1984  0.1884  0.3976
 1775TIP3   OH226739   3.935   6.418  16.199 -0.4980  0.9575  0.7199
 1775TIP3    H126740   3.905   6.468  16.123 -3.0540  0.2382  1.1386
 1775TIP3    H226741   3.869   6.436  16.266 -0.4471 -1.4357  1.4884
 1776TIP3   OH226742   3.745   5.257   3.513  0.0924  0.4810 -0.1875
 1776TIP3    H126743   3.739   5.189   3.446  1.4175 -0.2169  0.3835
 1776TIP3    H226744   3.821   5.234   3.565 -0.6073  1.2981  1.2674
 1777TIP3   OH226745   2.754   0.264  14.903 -0.3525 -0.4522 -0.1818
 1777TIP3    H126746   2.729   0.295  14.990 -1.1535  1.4891 -1.0394
 1777TIP3    H226747   2.672   0.261  14.854  0.2487 -0.2803 -1.2215
 1778TIP3   OH226748   5.568   6.715   4.913  0.4231  0.6006 -0.8014
 1778TIP3    H126749   5.556   6.808   4.898  1.5576  0.9885  0.5031
 1778TIP3    H226750   5.571   6.676   4.826  0.7668  1.8940 -1.3751
 1779TIP3   OH226751   5.430   2.205  11.402  0.2491  0.0593  0.2374
 1779TIP3    H126752   5.458   2.267  11.469  2.2545  0.3058 -0.7651
 1779TIP3    H226753   5.510   2.181  11.355 -1.1455  0.7257 -2.7913
 1780TIP3   OH226754   2.226   0.132   0.455 -0.2165  0.1119  0.1838
 1780TIP3    H126755   2.207   0.220   0.420 -0.4622 -0.2895 -0.7181
 1780TIP3    H226756   2.179   0.130   0.538  0.3372  1.0747  0.5418
 1781TIP3   OH226757   6.073   1.258   6.081  0.1038 -0.2492  0.3655
 1781TIP3    H126758   6.028   1.331   6.125  2.1996  1.3464  0.0157
 1781TIP3    H226759   6.148   1.239   6.138  1.5262  0.2621 -1.2443
 1782TIP3   OH226760   2.426   2.454  16.647 -0.4161 -0.1958  0.0546
 1782TIP3    H126761   2.455   2.419  16.732 -1.2570  0.9231  0.8238
 1782TIP3    H226762   2.482   2.410  16.583  1.5787  0.3941  1.3221
 1783TIP3   OH226763   6.047   3.098   4.035  0.4279 -0.5393  0.4724
 1783TIP3    H126764   6.044   3.024   3.974  2.3590 -0.8931  0.7470
 1783TIP3    H226765   6.125   3.082   4.088  0.0966  0.9864  1.4684
 1784TIP3   OH226766   0.555   5.954   3.831 -0.3534  0.1723  0.1866
 1784TIP3    H126767   0.498   5.891   3.787 -1.7901  2.7100 -1.8842
 1784TIP3    H226768   0.632   5.961   3.775 -0.4068  0.5755  0.1624
 1785TIP3   OH226769   1.343   2.404  12.452  0.0755  0.0446 -0.0753
 1785TIP3    H126770   1.371   2.350  12.527  1.1429  1.2817  0.4464
 1785TIP3    H226771   1.264   2.360  12.420  0.2014 -1.1222  1.1066
 1786TIP3   OH226772   2.067   4.741  11.329 -0.0429 -0.2634  0.6221
 1786TIP3    H126773   2.092   4.743  11.421 -0.7033  0.7039  0.8021
 1786TIP3    H226774   2.073   4.833  11.301  2.3267 -0.7804 -0.9273
 1787TIP3   OH226775   2.634   1.859   0.460  0.2409 -0.2143 -0.3968
 1787TIP3    H126776   2.662   1.930   0.402  0.0747 -1.1939 -1.7283
 1787TIP3    H226777   2.650   1.779   0.409 -0.3589 -1.0841  0.7342
 1788TIP3   OH226778   2.980   0.622   4.241  0.4701  0.1982  0.1361
 1788TIP3    H126779   3.014   0.705   4.274  0.8462  0.6279 -1.2610
 1788TIP3    H226780   3.056   0.580   4.199  0.7116 -1.6460  2.2523
 1789TIP3   OH226781   2.967   3.943   1.127  0.0747 -0.2733  0.1678
 1789TIP3    H126782   2.873   3.934   1.144 -0.0343 -0.1681 -0.3563
 1789TIP3    H226783   2.997   3.854   1.108  0.3338 -0.5016  1.5270
 1790TIP3   OH226784   0.570   0.179   3.017  0.0636  0.1876 -0.3242
 1790TIP3    H126785   0.500   0.236   3.050 -1.1124 -1.1194 -0.4854
 1790TIP3    H226786   0.650   0.214   3.057 -0.8784  0.7646  1.1315
 1791TIP3   OH226787   2.017   5.958   2.343 -0.5488  0.3516  0.3212
 1791TIP3    H126788   1.975   6.013   2.277 -1.0382  0.0974  0.4191
 1791TIP3    H226789   1.968   5.876   2.341  0.3917 -0.2135 -0.0616
 1792TIP3   OH226790   3.084   0.633  16.244  0.6041 -0.9674  0.4745
 1792TIP3    H126791   3.065   0.679  16.162 -2.0505 -1.2725  0.8353
 1792TIP3    H226792   3.148   0.689  16.289 -0.5532  1.0543 -0.2489
 1793TIP3   OH226793   1.295   1.727   2.105  0.0815 -0.1307  0.0958
 1793TIP3    H126794   1.225   1.706   2.043 -0.6876 -0.7720  1.1442
 1793TIP3    H226795   1.339   1.643   2.120 -0.5067 -0.2418  1.3129
 1794TIP3   OH226796   5.753   0.073   5.746 -0.6170 -0.2869 -0.0488
 1794TIP3    H126797   5.756   0.150   5.689 -1.2399 -0.0850  0.1813
 1794TIP3    H226798   5.660   0.063   5.767 -0.6227 -1.4422 -0.5370
 1795TIP3   OH226799   5.328   0.435   5.467 -0.0878 -0.2048 -0.0625
 1795TIP3    H126800   5.296   0.372   5.531 -1.2056  0.2532 -0.1583
 1795TIP3    H226801   5.395   0.386   5.418 -1.4481 -1.5845 -0.6418
 1796TIP3   OH226802   5.097   6.046   5.683  0.2485  0.7327 -0.3617
 1796TIP3    H126803   5.064   5.956   5.688  0.3626  0.7211  0.1419
 1796TIP3    H226804   5.072   6.074   5.595 -1.3648  0.8197  0.0837
 1797TIP3   OH226805   6.251   1.595   2.304  0.1235 -0.2524 -0.1243
 1797TIP3    H126806   6.169   1.545   2.301 -0.9449  1.4720 -1.2964
 1797TIP3    H226807   6.256   1.637   2.218  2.7768 -1.0847 -0.4637
 1798TIP3   OH226808   6.175   2.427  13.319 -0.3989  0.4007  0.4914
 1798TIP3    H126809   6.136   2.379  13.392  0.9340 -1.9541 -0.2539
 1798TIP3    H226810   6.136   2.389  13.241 -0.5169  1.6949 -0.1100
 1799TIP3   OH226811   4.578   0.551   0.998 -0.4935  0.3394  0.5926
 1799TIP3    H126812   4.502   0.494   0.986 -0.0196 -0.0799 -0.5656
 1799TIP3    H226813   4.653   0.493   0.990 -0.0175  0.9983  0.1442
 1800TIP3   OH226814   3.316   1.043  10.630 -0.3158  0.6750 -0.0543
 1800TIP3    H126815   3.285   1.079  10.713 -1.8800  1.2419 -0.8251
 1800TIP3    H226816   3.346   1.119  10.580  1.6109  0.2183  0.3508
 1801TIP3   OH226817   4.514   6.005   4.768  0.5023  0.1545  0.2495
 1801TIP3    H126818   4.579   5.976   4.832  0.4271  1.7170  1.0635
 1801TIP3    H226819   4.460   6.068   4.815 -0.3085  0.4369 -1.0178
 1802TIP3   OH226820   0.739   2.724   1.636 -0.2378 -0.1798 -0.2029
 1802TIP3    H126821   0.775   2.670   1.566  0.0613 -0.1289 -0.0903
 1802TIP3    H226822   0.646   2.702   1.638  0.2345 -2.3591  1.2899
 1803TIP3   OH226823   6.727   5.569  17.026  0.3197  0.0451  0.4608
 1803TIP3    H126824   6.788   5.632  16.988  0.9532  0.0616  1.4646
 1803TIP3    H226825   6.674   5.538  16.952  0.5478  1.1390 -0.1775
 1804TIP3   OH226826   3.603   0.162   5.741  0.4678  0.0759  0.0531
 1804TIP3    H126827   3.621   0.140   5.649  2.0969 -0.3843  0.4555
 1804TIP3    H226828   3.597   0.078   5.785 -0.5754  0.2918  0.3400
 1805TIP3   OH226829   3.270   4.282  17.088 -0.5215  0.5138  0.4135
 1805TIP3    H126830   3.261   4.350  17.021 -0.2140  0.2315  0.0790
 1805TIP3    H226831   3.181   4.268  17.120 -1.1553 -1.2292 -1.8216
 1806TIP3   OH226832   5.253   1.607   2.019 -0.7973  0.4391  0.7991
 1806TIP3    H126833   5.303   1.647   2.090 -1.3204  0.0892  1.3730
 1806TIP3    H226834   5.178   1.665   2.007 -0.1793  1.0536 -0.1735
 1807TIP3   OH226835   2.679   5.649   0.188 -0.1716 -0.2490 -0.4711
 1807TIP3    H126836   2.620   5.652   0.262  2.0183  0.6260  1.3617
 1807TIP3    H226837   2.677   5.558   0.158 -2.5335 -0.1945 -0.6627
 1808TIP3   OH226838   3.483   1.855  13.214  0.5011  0.1482 -0.2974
 1808TIP3    H126839   3.570   1.839  13.251 -0.3096 -0.7221  1.3590
 1808TIP3    H226840   3.461   1.943  13.243  0.7070  0.2610 -0.4774
 1809TIP3   OH226841   1.516   1.719  12.566 -0.4167 -0.1887 -0.7158
 1809TIP3    H126842   1.477   1.797  12.604  0.0800 -0.4574  0.4037
 1809TIP3    H226843   1.442   1.659  12.552 -0.3585 -1.8905  4.1947
 1810TIP3   OH226844   1.257   5.019   0.965  0.5721  0.4683  0.0635
 1810TIP3    H126845   1.240   4.926   0.950  1.8412  0.2825 -0.3674
 1810TIP3    H226846   1.179   5.063   0.930  0.6378 -0.3567 -1.2138
 1811TIP3   OH226847   4.114   0.253  10.260 -0.3831  0.1040 -0.1212
 1811TIP3    H126848   4.206   0.225  10.263 -0.8437 -1.4701  0.2275
 1811TIP3    H226849   4.080   0.216  10.179 -0.7461  0.5865 -0.1955
 1812TIP3   OH226850   6.312   0.478   2.343 -0.3134  0.7211  0.0474
 1812TIP3    H126851   6.395   0.518   2.318 -0.0915 -1.0685 -2.4459
 1812TIP3    H226852   6.249   0.551   2.342  0.6235  1.5576 -1.3541
 1813TIP3   OH226853   4.935   1.495   1.456  0.1962  0.0669 -0.2077
 1813TIP3    H126854   4.861   1.436   1.463  0.9613 -0.7752  1.2482
 1813TIP3    H226855   4.902   1.569   1.405 -1.3346 -0.7282 -0.4244
 1814TIP3   OH226856   4.804   2.977   4.646 -0.2931  0.7030 -0.0408
 1814TIP3    H126857   4.888   2.946   4.679 -0.9403 -1.3638 -0.1458
 1814TIP3    H226858   4.751   2.992   4.724 -0.4945 -0.1193 -0.0076
 1815TIP3   OH226859   0.285   3.373  14.392 -0.5640 -0.2849  0.2089
 1815TIP3    H126860   0.333   3.451  14.363 -0.3203 -0.7349 -0.6336
 1815TIP3    H226861   0.350   3.323  14.441  0.6332 -2.0350 -2.8807
 1816TIP3   OH226862   5.106   0.151  13.836 -0.1307  0.1658 -0.1415
 1816TIP3    H126863   5.165   0.221  13.807 -2.1459  2.5658  1.1899
 1816TIP3    H226864   5.114   0.150  13.931 -1.6550  0.0346  0.0097
 1817TIP3   OH226865   4.287   0.084  11.173  0.1823 -0.3504  0.1891
 1817TIP3    H126866   4.379   0.109  11.181  0.3908 -1.2377  0.6718
 1817TIP3    H226867   4.288   0.012  11.110  0.1295 -1.8482  1.8044
 1818TIP3   OH226868   0.531   6.192   2.624  0.3222  0.4497 -0.6008
 1818TIP3    H126869   0.625   6.186   2.607  0.1588  1.8271 -2.3502
 1818TIP3    H226870   0.523   6.242   2.705  1.0844  0.8309 -0.7630
 1819TIP3   OH226871   0.223   4.848  14.507  0.1496  0.4034  0.5657
 1819TIP3    H126872   0.294   4.822  14.448 -0.3948  0.6026 -0.1902
 1819TIP3    H226873   0.144   4.812  14.467 -0.2212  0.4736  1.2195
 1820TIP3   OH226874   2.524   0.820   0.861  0.6151  0.0055 -0.0617
 1820TIP3    H126875   2.464   0.831   0.787  1.4942 -0.0698 -0.7943
 1820TIP3    H226876   2.527   0.725   0.875 -1.5874  0.1058  1.8080
 1821TIP3   OH226877   0.869   6.311  11.577 -0.3435  0.0940 -0.1564
 1821TIP3    H126878   0.901   6.288  11.490  0.6902  2.7005 -0.5652
 1821TIP3    H226879   0.774   6.311  11.568 -0.3444 -1.9289 -0.5955
 1822TIP3   OH226880   1.187   5.450   0.963  0.3350  0.4646  0.7144
 1822TIP3    H126881   1.214   5.443   1.055  1.9156  1.0266  0.3133
 1822TIP3    H226882   1.094   5.425   0.964 -0.0585  1.7542  2.6685
 1823TIP3   OH226883   1.157   1.483  13.178  0.1267  0.1541 -0.0967
 1823TIP3    H126884   1.155   1.458  13.086  0.2378  0.7218 -0.2592
 1823TIP3    H226885   1.073   1.455  13.213  0.8753 -1.9686  0.1525
 1824TIP3   OH226886   6.674   0.851   5.261  0.2507  0.5682  0.7578
 1824TIP3    H126887   6.739   0.821   5.323  0.8964  1.4277  0.5142
 1824TIP3    H226888   6.633   0.926   5.303  0.1275  0.6562  0.4843
 1825TIP3   OH226889   0.168   3.644   3.001  0.6290 -0.9666 -0.1982
 1825TIP3    H126890   0.073   3.643   3.015  0.5563  1.2470 -0.2278
 1825TIP3    H226891   0.179   3.632   2.907  0.4155 -1.7047 -0.1343
 1826TIP3   OH226892   4.957   4.989  15.476 -0.4716 -0.0202  0.1271
 1826TIP3    H126893   4.932   5.056  15.413  0.5548  0.6865  0.4487
 1826TIP3    H226894   5.018   5.033  15.535 -0.1229 -1.1160  0.6086
 1827TIP3   OH226895   4.561   1.151   5.926 -0.0342 -0.2433 -0.1142
 1827TIP3    H126896   4.522   1.105   5.851 -1.6980  1.7846 -0.5838
 1827TIP3    H226897   4.612   1.221   5.887 -1.0617  0.9493  0.6149
 1828TIP3   OH226898   4.818   2.800  14.204  0.0770 -0.0103  0.4183
 1828TIP3    H126899   4.773   2.718  14.221 -0.1970 -0.3278 -1.5549
 1828TIP3    H226900   4.750   2.857  14.167  0.6868  0.4181 -0.0638
 1829TIP3   OH226901   0.781   6.773  14.864 -0.2041  0.4409 -0.3346
 1829TIP3    H126902   0.838   6.809  14.932 -0.4247  0.1235  0.0179
 1829TIP3    H226903   0.818   6.687  14.845 -0.7266  0.1239  0.0873
 1830TIP3   OH226904   4.277   3.567  13.628 -0.2503  0.2173 -0.4376
 1830TIP3    H126905   4.187   3.571  13.659  0.2139  1.5460  0.8333
 1830TIP3    H226906   4.312   3.655  13.644  0.7270  0.2923 -2.6386
 1831TIP3   OH226907   3.312   2.158   0.071 -0.2856  0.1673  0.4114
 1831TIP3    H126908   3.386   2.140   0.129  0.6373  2.3851  0.0273
 1831TIP3    H226909   3.335   2.115  -0.011 -0.7557 -1.4689  1.1066
 1832TIP3   OH226910   6.037   2.872  10.999 -0.2191  0.3422 -0.2355
 1832TIP3    H126911   6.046   2.954  10.951  0.3828  0.7776  0.6100
 1832TIP3    H226912   5.958   2.832  10.963  0.7887  0.1401 -2.3451
 1833TIP3   OH226913   2.794   4.809   4.981 -0.5489 -0.2141 -0.0262
 1833TIP3    H126914   2.864   4.767   4.931 -0.2763  0.2105 -0.0129
 1833TIP3    H226915   2.713   4.781   4.938 -0.2904  0.9722 -1.3893
 1834TIP3   OH226916   6.327   0.806  13.985  0.4614 -0.2825  0.3151
 1834TIP3    H126917   6.245   0.769  14.018  0.5655  0.0766  0.9889
 1834TIP3    H226918   6.306   0.897  13.964  0.1805 -0.7228 -1.4420
 1835TIP3   OH226919   3.098   5.508   2.882 -0.4985  0.2944  0.2893
 1835TIP3    H126920   3.117   5.493   2.975  1.9097 -3.0166 -0.5697
 1835TIP3    H226921   3.173   5.559   2.850 -0.2513 -0.4057 -0.2573
 1836TIP3   OH226922   4.373   4.768   3.614 -0.3867  0.1886 -0.1401
 1836TIP3    H126923   4.300   4.826   3.637 -1.7297 -0.9372 -1.3891
 1836TIP3    H226924   4.440   4.827   3.581 -1.0320  1.1885  0.2713
 1837TIP3   OH226925   5.406   1.793   6.706  0.2428 -0.3948 -0.7865
 1837TIP3    H126926   5.433   1.704   6.731 -0.5332 -1.4263 -3.2571
 1837TIP3    H226927   5.313   1.797   6.727  0.4068  0.0933 -0.1089
 1838TIP3   OH226928   3.716   5.788   6.088 -0.3458  0.2671  0.1370
 1838TIP3    H126929   3.651   5.806   6.156  0.2949  1.7824  0.3687
 1838TIP3    H226930   3.761   5.709   6.119 -1.3775 -0.2234  0.4621
 1839TIP3   OH226931   4.725   4.926  13.537  0.0644  0.0424 -0.5208
 1839TIP3    H126932   4.770   4.925  13.453  0.4616  0.8751 -0.3276
 1839TIP3    H226933   4.632   4.934  13.513  0.3392  3.5602 -0.9024
 1840TIP3   OH226934   2.060   2.240  12.098 -0.2580 -0.3249  0.1765
 1840TIP3    H126935   2.055   2.226  12.193 -1.0739 -2.3234 -0.1178
 1840TIP3    H226936   2.149   2.215  12.075 -0.1580 -0.1492  0.3688
 1841TIP3   OH226937   2.331   5.874   5.583 -0.2911 -0.1879 -0.4291
 1841TIP3    H126938   2.246   5.835   5.605  0.0797 -1.0025 -0.4087
 1841TIP3    H226939   2.314   5.923   5.502 -0.6335 -0.8972 -0.7962
 1842TIP3   OH226940   5.229   5.829  16.021  0.2695  0.3619 -0.4824
 1842TIP3    H126941   5.209   5.781  15.941  0.2133 -1.1557  0.3998
 1842TIP3    H226942   5.193   5.916  16.007 -3.1443 -0.9254 -0.6849
 1843TIP3   OH226943   0.394   0.273  12.470  0.1891  0.0823 -0.8437
 1843TIP3    H126944   0.478   0.316  12.487  1.1783 -1.4844 -1.5440
 1843TIP3    H226945   0.402   0.188  12.513 -1.2384  0.0800 -0.5251
 1844TIP3   OH226946   1.109   3.103  15.457 -0.1497 -0.0615  0.5588
 1844TIP3    H126947   1.113   3.077  15.365  1.1575  0.5912  0.3994
 1844TIP3    H226948   1.191   3.069  15.494  0.5287  1.8055  0.8630
 1845TIP3   OH226949   2.590   0.551   5.796  0.2837 -0.3321 -0.2555
 1845TIP3    H126950   2.674   0.582   5.829  0.8389 -0.3968 -1.5856
 1845TIP3    H226951   2.535   0.545   5.875  0.7665  1.9948  0.3441
 1846TIP3   OH226952   5.249   6.798  17.048  0.2398  0.3932 -0.5560
 1846TIP3    H126953   5.334   6.781  17.005  0.5258  0.8315 -0.1683
 1846TIP3    H226954   5.272   6.827  17.136 -0.2823  1.3192 -0.7122
 1847TIP3   OH226955   1.205   2.900   1.195  0.2800 -0.2237 -0.1736
 1847TIP3    H126956   1.188   2.953   1.273 -0.1662  0.4457 -0.7026
 1847TIP3    H226957   1.220   2.965   1.126  2.1984 -0.8013 -0.3339
 1848TIP3   OH226958   4.610   0.146   1.246 -0.1340 -0.7858  0.0147
 1848TIP3    H126959   4.546   0.098   1.300  0.0641 -1.2512 -0.1567
 1848TIP3    H226960   4.620   0.091   1.168  2.7556 -2.3347  1.3260
 1849TIP3   OH226961   6.630   6.775  11.376 -0.2716  0.6273 -0.0753
 1849TIP3    H126962   6.568   6.704  11.394  0.0000 -0.2313 -2.2926
 1849TIP3    H226963   6.657   6.761  11.286  0.7076  2.8854 -0.1890
 1850TIP3   OH226964   3.807   2.626  13.597  0.1289 -0.0934 -0.5129
 1850TIP3    H126965   3.790   2.700  13.656  1.4312 -1.2707  1.4695
 1850TIP3    H226966   3.882   2.653  13.544  1.0348 -0.1955  0.6760
 1851TIP3   OH226967   2.083   4.760   6.294 -0.3799 -0.0022 -0.1038
 1851TIP3    H126968   2.022   4.773   6.366 -1.2562 -0.1122 -0.8148
 1851TIP3    H226969   2.137   4.840   6.294 -0.4465  0.0523  0.5794
 1852TIP3   OH226970   5.619   4.538  14.866  0.8690  0.0218 -0.3610
 1852TIP3    H126971   5.605   4.551  14.959  3.1919  0.2590  0.0364
 1852TIP3    H226972   5.586   4.450  14.848  0.3976 -0.0273  0.6750
 1853TIP3   OH226973   1.058   1.749  15.481  0.1780  0.1367  0.5450
 1853TIP3    H126974   1.105   1.750  15.564 -1.7458 -0.1158  1.7082
 1853TIP3    H226975   1.090   1.672  15.435  0.9333  0.0179  1.2501
 1854TIP3   OH226976   3.041   3.633   3.812  0.3741 -0.4846 -0.2102
 1854TIP3    H126977   3.069   3.585   3.889 -1.0429 -0.1364  0.5567
 1854TIP3    H226978   2.988   3.571   3.762  1.6205 -0.8351 -1.1335
 1855TIP3   OH226979   1.206   5.386  15.455 -0.9256 -0.0707  0.9321
 1855TIP3    H126980   1.112   5.396  15.466 -1.7152 -2.8777 -1.9707
 1855TIP3    H226981   1.234   5.466  15.411 -2.5876 -0.4431 -0.9138
 1856TIP3   OH226982   6.773   4.648   1.499 -0.0621  0.4994 -0.2239
 1856TIP3    H126983   6.700   4.707   1.477 -0.8212 -0.5031 -0.4700
 1856TIP3    H226984   6.734   4.561   1.497  0.9961  0.0013  0.3577
 1857TIP3   OH226985   1.838   2.710  15.433 -0.4626 -0.2802  0.2663
 1857TIP3    H126986   1.877   2.652  15.498  0.7716  0.7654  0.5169
 1857TIP3    H226987   1.745   2.713  15.455 -0.0409  0.2418  2.1776
 1858TIP3   OH226988   6.332   3.129   1.262 -0.6025  0.0880  0.4983
 1858TIP3    H126989   6.368   3.101   1.177 -0.9234 -0.1861  0.4486
 1858TIP3    H226990   6.341   3.224   1.262  1.4930 -0.0656  1.1122
 1859TIP3   OH226991   1.178   2.170  14.928 -0.6569  0.4639  0.2140
 1859TIP3    H126992   1.124   2.247  14.909  0.1628  0.8151 -0.7621
 1859TIP3    H226993   1.125   2.119  14.990 -1.9096  1.0086 -0.3702
 1860TIP3   OH226994   6.286   1.826  16.971 -0.4172  0.1868  0.1314
 1860TIP3    H126995   6.301   1.877  17.051  2.4768 -1.8325  1.0387
 1860TIP3    H226996   6.328   1.877  16.902 -3.1816  2.0868 -0.3144
 1861TIP3   OH226997   0.733   6.508   3.326 -0.2790  0.0611 -0.2386
 1861TIP3    H126998   0.733   6.537   3.417 -2.1685  1.2850 -0.5681
 1861TIP3    H226999   0.670   6.565   3.283  0.3914 -0.6473 -2.2852
 1862TIP3   OH227000   2.612   3.712  15.218 -0.0587 -0.2003 -0.0428
 1862TIP3    H127001   2.586   3.799  15.248  1.5794  0.0493  0.7546
 1862TIP3    H227002   2.654   3.727  15.133 -1.1945 -0.4379 -0.6730
 1863TIP3   OH227003   4.049   1.153  11.436 -0.3084  0.2341  0.6721
 1863TIP3    H127004   4.145   1.156  11.433 -0.1577  0.1130  2.9939
 1863TIP3    H227005   4.030   1.064  11.465 -1.2604 -0.3607 -1.6261
 1864TIP3   OH227006   2.624   0.584  12.554  0.0102  0.2824 -0.5502
 1864TIP3    H127007   2.627   0.502  12.506  0.4853 -0.1099  0.1212
 1864TIP3    H227008   2.716   0.604  12.575 -0.2036  0.2062  0.5502
 1865TIP3   OH227009   3.489   3.253   1.347 -0.3174 -0.0965 -0.2594
 1865TIP3    H127010   3.581   3.231   1.355  0.0801  1.4463 -0.2056
 1865TIP3    H227011   3.481   3.294   1.261 -0.6267  1.1605  0.3445
 1866TIP3   OH227012   0.968   5.065   0.898 -0.8241 -0.1576 -0.5025
 1866TIP3    H127013   0.975   4.982   0.853  1.3483 -0.2615 -0.1062
 1866TIP3    H227014   0.892   5.056   0.956 -1.2384 -1.4559 -1.2298
 1867TIP3   OH227015   3.921   4.965   4.692 -0.1772 -0.0398  0.2387
 1867TIP3    H127016   3.929   4.874   4.721  1.2962 -0.4420 -1.2888
 1867TIP3    H227017   4.005   5.004   4.713 -1.3279  1.4906  2.3563
 1868TIP3   OH227018   4.603   1.350   0.270 -0.0284 -0.2521 -0.2714
 1868TIP3    H127019   4.593   1.360   0.364 -0.5280 -0.1747 -0.3247
 1868TIP3    H227020   4.623   1.258   0.257  0.3074 -0.2066 -0.0697
 1869TIP3   OH227021   6.078   0.450  14.000  0.4813 -0.1167  0.2384
 1869TIP3    H127022   6.151   0.396  14.031 -0.4225 -1.9625 -0.6836
 1869TIP3    H227023   6.096   0.465  13.908 -0.1608 -0.3517  0.0702
 1870TIP3   OH227024   0.349   6.298   0.945  0.0332 -0.1896  0.4982
 1870TIP3    H127025   0.289   6.325   0.875  0.1043 -1.8377 -0.2294
 1870TIP3    H227026   0.292   6.261   1.013  0.1446 -0.8940  0.2138
 1871TIP3   OH227027   4.230   3.556   0.082 -1.1557  0.5319  0.7547
 1871TIP3    H127028   4.225   3.638   0.130 -1.1920  3.0615 -3.1308
 1871TIP3    H227029   4.166   3.565   0.011  1.3672 -1.1450 -2.0125
 1872TIP3   OH227030   4.286   5.244  16.551 -0.2819 -0.9401  0.3075
 1872TIP3    H127031   4.246   5.305  16.489 -2.0305 -0.6600  1.6202
 1872TIP3    H227032   4.264   5.158  16.518  0.8279 -0.8669 -0.6928
 1873TIP3   OH227033   0.941   1.573   3.355 -0.5500 -0.3353 -0.3951
 1873TIP3    H127034   0.914   1.568   3.446  0.1387  1.8772  0.0051
 1873TIP3    H227035   0.859   1.579   3.306 -0.9750 -2.7265 -0.1009
 1874TIP3   OH227036   2.566   0.908   5.522  0.1312 -0.9314 -0.3407
 1874TIP3    H127037   2.588   0.815   5.523  2.0049 -0.5453 -1.3002
 1874TIP3    H227038   2.615   0.944   5.448 -0.1143  0.9241  0.3345
 1875TIP3   OH227039   6.612   1.787   2.467  0.2189 -0.2866 -0.2166
 1875TIP3    H127040   6.643   1.846   2.536 -2.0241 -0.0198  0.6343
 1875TIP3    H227041   6.663   1.707   2.479  1.8096  0.7140 -0.0338
 1876TIP3   OH227042   6.665   5.325   1.621 -0.1566 -0.0749  0.3442
 1876TIP3    H127043   6.648   5.258   1.686 -0.0443  1.5814  2.1686
 1876TIP3    H227044   6.579   5.348   1.585 -0.7334  1.4959  2.5540
 1877TIP3   OH227045   5.137   6.596   4.399 -0.0960 -0.7578 -0.1761
 1877TIP3    H127046   5.122   6.522   4.340  1.1446 -1.5638  0.4804
 1877TIP3    H227047   5.053   6.609   4.444 -1.1904  0.1173 -2.3132
 1878TIP3   OH227048   4.341   2.791   4.284  0.2271 -0.1376 -0.0163
 1878TIP3    H127049   4.265   2.794   4.341 -0.8334  1.9691 -1.3876
 1878TIP3    H227050   4.336   2.706   4.241 -0.1717 -0.8422  1.3792
 1879TIP3   OH227051   4.732   5.767  11.077  0.1908 -0.0614  0.5167
 1879TIP3    H127052   4.813   5.816  11.065  1.0637 -1.5577  0.0562
 1879TIP3    H227053   4.738   5.730  11.165  0.8551 -1.5806 -0.1188
 1880TIP3   OH227054   6.411   4.302  12.576 -0.1683 -0.1725  0.1378
 1880TIP3    H127055   6.423   4.272  12.486  0.7887 -1.1598  0.5828
 1880TIP3    H227056   6.331   4.258  12.605 -0.4117  0.0534 -0.1769
 1881TIP3   OH227057   0.855   0.999   5.775 -0.5352 -0.3772 -0.0136
 1881TIP3    H127058   0.891   0.919   5.737 -0.1459 -0.0910 -0.2485
 1881TIP3    H227059   0.916   1.022   5.845  0.0913  0.4651 -0.8308
 1882TIP3   OH227060   1.119   5.603   4.902 -0.3985 -0.2778  0.0947
 1882TIP3    H127061   1.120   5.685   4.951  1.5318  0.2848 -0.8286
 1882TIP3    H227062   1.037   5.606   4.853 -1.2156  0.2409  1.4199
 1883TIP3   OH227063   4.403   6.390   5.372  0.0248 -0.3189  0.6897
 1883TIP3    H127064   4.414   6.393   5.467 -0.4356  0.4834  0.7281
 1883TIP3    H227065   4.474   6.443   5.337 -0.6459  0.5997  0.6747
 1884TIP3   OH227066   3.454   5.550   1.907  0.0548  0.1539 -0.6274
 1884TIP3    H127067   3.398   5.475   1.886 -0.2196 -0.0038  0.5773
 1884TIP3    H227068   3.393   5.622   1.923  0.2935  0.4886 -1.1772
 1885TIP3   OH227069   0.646   5.046  14.613 -0.7008  0.7194 -0.2098
 1885TIP3    H127070   0.675   5.138  14.612 -2.4833  1.3510  0.8479
 1885TIP3    H227071   0.665   5.014  14.525  2.1082  1.3503  0.0814
 1886TIP3   OH227072   4.137   2.308   4.849 -0.7096 -0.0477  0.1488
 1886TIP3    H127073   4.144   2.403   4.835 -0.4693  0.2652  2.0913
 1886TIP3    H227074   4.051   2.295   4.888 -1.4072 -0.8635 -1.6042
 1887TIP3   OH227075   0.026   6.785   5.691  0.1244 -0.2718 -0.2891
 1887TIP3    H127076   0.045   6.876   5.714  0.1705 -0.5805  1.0005
 1887TIP3    H227077   0.112   6.744   5.683  0.1117 -0.6412  1.1330
 1888TIP3   OH227078   0.776   1.332  16.845  0.0064 -0.0203 -0.0536
 1888TIP3    H127079   0.736   1.389  16.778 -0.0615  1.0451  0.8742
 1888TIP3    H227080   0.847   1.288  16.799  1.9568  2.9790 -0.1380
 1889TIP3   OH227081   1.492   3.009   1.421 -0.0826  0.2865  0.4753
 1889TIP3    H127082   1.556   2.952   1.378 -0.3898 -1.0377  1.6961
 1889TIP3    H227083   1.461   3.066   1.351  0.5078 -0.8197 -0.7365
 1890TIP3   OH227084   0.605   3.390   0.755 -0.0113  0.0452  0.2389
 1890TIP3    H127085   0.528   3.344   0.722 -0.5801  0.8285  0.4378
 1890TIP3    H227086   0.679   3.332   0.735 -0.6408 -0.6716 -0.0375
 1891TIP3   OH227087   5.042   0.265   1.751  0.7170 -0.5235  0.2862
 1891TIP3    H127088   5.099   0.320   1.695 -0.6331 -0.2233 -0.8507
 1891TIP3    H227089   5.031   0.184   1.701  1.1747 -1.1057  1.1048
 1892TIP3   OH227090   1.148   5.675  12.017 -0.3969 -0.2434  0.5319
 1892TIP3    H127091   1.217   5.721  12.064 -0.6148  1.0091 -0.3092
 1892TIP3    H227092   1.156   5.706  11.927 -2.4706  0.5018  0.5419
 1893TIP3   OH227093   6.805   5.986   3.513 -0.0993  0.1083 -0.0471
 1893TIP3    H127094   6.761   5.916   3.562  0.1036  0.1563  0.2049
 1893TIP3    H227095   6.775   5.974   3.423 -3.5202  2.3079  0.5897
 1894TIP3   OH227096   4.723   5.503  16.179 -0.0024  0.6627  0.1893
 1894TIP3    H127097   4.650   5.559  16.152 -0.5001  0.0239  0.1885
 1894TIP3    H227098   4.739   5.446  16.104  0.7412  1.0298  0.0533
 1895TIP3   OH227099   3.842   1.824   4.680  0.3033  0.4824  0.1683
 1895TIP3    H127100   3.752   1.829   4.648 -1.0929 -0.0179  3.5277
 1895TIP3    H227101   3.854   1.904   4.731  0.8984 -0.4522  1.5766
 1896TIP3   OH227102   3.616   3.848  15.017 -0.0907 -0.0456  0.7375
 1896TIP3    H127103   3.529   3.870  14.985 -0.5698 -0.6433  1.5811
 1896TIP3    H227104   3.670   3.923  14.994 -0.2791 -0.6035 -1.8307
 1897TIP3   OH227105   5.292   2.677   2.663  0.3938  0.0013 -0.0292
 1897TIP3    H127106   5.207   2.707   2.696 -1.0324 -2.4686 -1.2120
 1897TIP3    H227107   5.324   2.750   2.610 -1.7138  0.4653 -0.7662
 1898TIP3   OH227108   3.866   5.543  14.219 -0.9825 -0.2562  0.1712
 1898TIP3    H127109   3.913   5.465  14.247  0.1574  0.4971  0.4439
 1898TIP3    H227110   3.839   5.585  14.301 -0.6060  0.2114  0.0600
 1899TIP3   OH227111   2.942   0.585  12.616  0.6294 -0.3528  0.3892
 1899TIP3    H127112   3.024   0.609  12.659  0.5542 -2.1814  1.6525
 1899TIP3    H227113   2.965   0.513  12.559  0.1641  0.1324 -0.4212
 1900TIP3   OH227114   5.767   2.756  15.363 -0.2068  0.1886  1.0042
 1900TIP3    H127115   5.690   2.803  15.394 -0.0761  3.2165 -2.6526
 1900TIP3    H227116   5.732   2.675  15.326 -1.5192  1.0209  0.3591
 1901TIP3   OH227117   0.785   0.817   0.624 -0.3319  0.0556 -0.0892
 1901TIP3    H127118   0.766   0.900   0.581  0.1218  0.2159  0.0136
 1901TIP3    H227119   0.719   0.809   0.693  0.1278  0.7326  0.4381
 1902TIP3   OH227120   5.994   5.712   0.738 -0.4474  0.5893 -0.4469
 1902TIP3    H127121   6.012   5.629   0.695 -0.6565  0.6321 -0.6198
 1902TIP3    H227122   5.999   5.693   0.831  4.0705  1.3064 -0.3240
 1903TIP3   OH227123   4.604   5.579  16.685 -0.1400 -0.0709 -0.4645
 1903TIP3    H127124   4.628   5.510  16.747 -0.0675  0.1186 -0.2786
 1903TIP3    H227125   4.557   5.644  16.738 -3.6337 -1.7113 -1.3080
 1904TIP3   OH227126   6.693   3.633  17.037  1.1120  0.7327  0.4573
 1904TIP3    H127127   6.686   3.682  17.118  1.6872  0.5510  0.6219
 1904TIP3    H227128   6.690   3.541  17.063 -0.0816  0.6711  0.1380
 1905TIP3   OH227129   2.968   5.852  14.370 -0.6392  0.3303  0.2026
 1905TIP3    H127130   3.022   5.823  14.443  0.3843  1.5509 -0.0270
 1905TIP3    H227131   2.956   5.946  14.385 -0.0637  0.6921 -1.3844
 1906TIP3   OH227132   5.445   1.889   4.481  0.0740  0.0904 -0.2022
 1906TIP3    H127133   5.487   1.806   4.455  1.3821 -0.4279  3.1358
 1906TIP3    H227134   5.352   1.874   4.466  0.4453 -1.1861 -1.5873
 1907TIP3   OH227135   1.951   2.584   1.584  0.0347 -0.8926 -0.3977
 1907TIP3    H127136   2.034   2.628   1.570  0.6925 -1.8001  0.5518
 1907TIP3    H227137   1.906   2.636   1.650 -0.9270  0.5634 -2.1078
 1908TIP3   OH227138   1.713   5.556   5.237  0.0957 -0.3869 -0.3960
 1908TIP3    H127139   1.682   5.477   5.280 -0.5927  0.2509  0.3134
 1908TIP3    H227140   1.658   5.626   5.273  2.5775  0.8862  1.2314
 1909TIP3   OH227141   3.603   2.750  15.799  0.3390  0.2126  0.6661
 1909TIP3    H127142   3.697   2.749  15.778  0.1729  0.1775 -0.1241
 1909TIP3    H227143   3.582   2.659  15.818  0.3552  0.1295  0.2973
 1910TIP3   OH227144   5.175   3.878  14.924 -0.6396  0.4152  0.3079
 1910TIP3    H127145   5.158   3.815  14.855 -0.6319  0.1529  0.5442
 1910TIP3    H227146   5.239   3.836  14.981  2.5949  2.1966 -1.7280
 1911TIP3   OH227147   3.824   0.863  16.012 -0.2107 -0.4800 -0.2331
 1911TIP3    H127148   3.798   0.828  15.927  2.4871 -1.0551 -0.9094
 1911TIP3    H227149   3.893   0.927  15.992  0.6313 -0.7788  1.5098
 1912TIP3   OH227150   5.464   2.920  11.932  0.5874 -0.2562  0.0426
 1912TIP3    H127151   5.458   2.836  11.885 -0.7766  0.0732 -0.4234
 1912TIP3    H227152   5.388   2.970  11.901  0.4438  0.5152  1.5589
 1913TIP3   OH227153   4.577   4.157   4.270  0.3057  0.1433 -0.8835
 1913TIP3    H127154   4.593   4.252   4.270  1.3556 -0.0271 -0.6921
 1913TIP3    H227155   4.550   4.138   4.180 -0.4249  0.6929 -0.7985
 1914TIP3   OH227156   2.560   0.797  10.790  0.1969 -0.0645  0.1229
 1914TIP3    H127157   2.521   0.769  10.873 -0.7157  0.7881  0.0021
 1914TIP3    H227158   2.654   0.798  10.807  0.0365 -0.1525  1.0668
 1915TIP3   OH227159   4.853   3.387  11.900  1.0847 -0.4344 -0.7464
 1915TIP3    H127160   4.825   3.349  11.983  0.5516  0.8127 -0.3159
 1915TIP3    H227161   4.777   3.377  11.843 -0.2601  2.5377  0.2822
 1916TIP3   OH227162   5.930   2.195   0.585  0.1528  0.1892  0.1809
 1916TIP3    H127163   5.835   2.181   0.579  0.1989 -0.4235  0.7734
 1916TIP3    H227164   5.961   2.187   0.494 -0.5675  2.1096 -0.2774
 1917TIP3   OH227165   3.650   2.510   5.613  0.2928 -0.0066 -0.6000
 1917TIP3    H127166   3.638   2.587   5.668  3.4325  0.4481 -0.3428
 1917TIP3    H227167   3.626   2.436   5.669  0.9109  0.6020  0.4995
 1918TIP3   OH227168   1.662   5.748  14.515 -0.0821  0.0207  0.3508
 1918TIP3    H127169   1.735   5.728  14.457 -0.5672 -1.1217  0.0929
 1918TIP3    H227170   1.702   5.761  14.601  0.2741 -3.3995  0.8460
 1919TIP3   OH227171   0.313   3.474  15.011  0.4232 -0.3075 -0.3352
 1919TIP3    H127172   0.364   3.501  15.087 -0.8579 -1.2536  0.9113
 1919TIP3    H227173   0.375   3.429  14.955  1.4252  0.5399  0.0695
 1920TIP3   OH227174   6.227   5.453  13.696  0.4584 -0.0425 -0.4029
 1920TIP3    H127175   6.316   5.466  13.663  0.8941 -0.5928  0.5301
 1920TIP3    H227176   6.180   5.533  13.672  1.4453  0.6341 -0.1087
 1921TIP3   OH227177   6.476   5.152  16.018  0.0978 -0.0378  0.0915
 1921TIP3    H127178   6.416   5.144  16.092  0.9828  3.8877  1.4910
 1921TIP3    H227179   6.540   5.082  16.031 -1.6747 -1.5733  1.0087
 1922TIP3   OH227180   6.095   3.776   0.512 -0.4278  0.0548 -0.6011
 1922TIP3    H127181   6.128   3.858   0.549 -0.4502  0.2731 -1.0548
 1922TIP3    H227182   6.072   3.798   0.422  2.0010 -1.0322 -1.5702
 1923TIP3   OH227183   0.669   0.533   2.554  0.3152  0.2143 -0.4934
 1923TIP3    H127184   0.612   0.457   2.547  0.6886 -0.1597  0.3578
 1923TIP3    H227185   0.660   0.578   2.470 -0.2313 -0.5390 -0.8480
 1924TIP3   OH227186   3.195   1.987  11.831 -0.2431 -0.2349 -0.1236
 1924TIP3    H127187   3.274   2.038  11.816  0.7236 -1.5462  0.4133
 1924TIP3    H227188   3.205   1.909  11.777 -0.3176 -1.2645  1.2846
 1925TIP3   OH227189   3.155   2.678   4.283  0.0636 -0.0945 -0.8820
 1925TIP3    H127190   3.226   2.742   4.279  0.0150 -0.0259 -0.6302
 1925TIP3    H227191   3.195   2.596   4.253  0.2900 -0.0883 -0.6041
 1926TIP3   OH227192   4.527   1.211  13.125 -0.5114  0.4509  0.4269
 1926TIP3    H127193   4.613   1.211  13.082  1.0822  1.4549  3.3255
 1926TIP3    H227194   4.510   1.119  13.146 -1.4954 -0.1234 -2.3855
 1927TIP3   OH227195   4.987   3.138  14.783 -0.3417 -0.3122 -0.7357
 1927TIP3    H127196   4.994   3.173  14.694  0.6449  1.3692 -0.0649
 1927TIP3    H227197   4.905   3.176  14.817 -0.1476 -0.0277 -0.5763
 1928TIP3   OH227198   1.447   4.469  13.663  0.7571  0.2372 -0.0086
 1928TIP3    H127199   1.499   4.424  13.730 -2.2481 -0.9364  1.7621
 1928TIP3    H227200   1.469   4.562  13.674  0.6617  0.0352  2.4093
 1929TIP3   OH227201   2.066   3.270  14.127 -0.4287  0.0185  0.0494
 1929TIP3    H127202   1.984   3.239  14.164 -0.0846 -0.2256  0.6263
 1929TIP3    H227203   2.091   3.201  14.064 -0.8850  0.3116 -0.4647
 1930TIP3   OH227204   4.950   0.422  13.233 -0.1803 -0.0912  0.8696
 1930TIP3    H127205   4.935   0.371  13.312  0.5574 -1.9630 -0.1255
 1930TIP3    H227206   4.979   0.358  13.168 -0.9720  1.3217 -0.9939
 1931TIP3   OH227207   6.598   5.749   2.476  0.1024 -0.0675  0.2653
 1931TIP3    H127208   6.642   5.820   2.522 -0.9058  0.4558  0.4464
 1931TIP3    H227209   6.556   5.698   2.545  0.9837 -0.9714  0.1528
 1932TIP3   OH227210   4.961   1.276   4.021  0.3009 -0.5532 -0.1031
 1932TIP3    H127211   5.053   1.253   4.008  0.4811  0.0358  0.0914
 1932TIP3    H227212   4.916   1.192   4.029  0.5804 -0.8938 -1.7142
 1933TIP3   OH227213   1.139   3.137  14.961 -0.0539  0.1331 -0.2999
 1933TIP3    H127214   1.226   3.169  14.983 -0.8076  1.5389  0.7544
 1933TIP3    H227215   1.102   3.204  14.904 -0.9872  0.2898  0.4698
 1934TIP3   OH227216   6.683   3.107   3.722  0.4794  0.1121  0.3443
 1934TIP3    H127217   6.642   3.036   3.674  1.6454 -0.7958  0.6292
 1934TIP3    H227218   6.715   3.066   3.803 -0.2151  1.3032  1.2622
 1935TIP3   OH227219   5.354   3.783   4.811 -0.9902 -0.0868 -0.7570
 1935TIP3    H127220   5.357   3.878   4.803 -1.0084  0.0770  0.8715
 1935TIP3    H227221   5.340   3.752   4.722  0.1522  1.3748 -1.4978
 1936TIP3   OH227222   2.867   5.693   4.277  0.4799  0.1509 -0.1425
 1936TIP3    H127223   2.824   5.716   4.195  0.9465 -0.8786 -0.6839
 1936TIP3    H227224   2.829   5.754   4.341  3.1405  3.9545 -1.8089
 1937TIP3   OH227225   2.824   2.310  16.693 -0.2936 -0.1370 -0.2496
 1937TIP3    H127226   2.787   2.244  16.634  0.8495 -1.0129 -0.0183
 1937TIP3    H227227   2.797   2.281  16.781 -0.5549  0.2182 -0.2107
 1938TIP3   OH227228   1.305   6.720   1.866  1.0343  0.2445  0.3324
 1938TIP3    H127229   1.211   6.736   1.872  0.9518  0.6237 -1.5040
 1938TIP3    H227230   1.340   6.797   1.823  1.8830 -0.7708 -0.8719
 1939TIP3   OH227231   3.599   2.798   0.120  0.2850 -0.4176 -0.2795
 1939TIP3    H127232   3.612   2.706   0.144  0.6311 -0.6023 -1.1266
 1939TIP3    H227233   3.679   2.842   0.151  0.2970 -0.4740 -0.2295
 1940TIP3   OH227234   3.295   3.654   1.192 -0.4450  0.0079  0.1528
 1940TIP3    H127235   3.319   3.562   1.204  1.8332  0.6642  1.0922
 1940TIP3    H227236   3.202   3.658   1.215 -0.1965 -1.7788  1.6597
 1941TIP3   OH227237   0.810   2.785  13.549  0.5011 -0.3991 -0.0406
 1941TIP3    H127238   0.719   2.807  13.571  0.2805 -1.1566 -0.1559
 1941TIP3    H227239   0.814   2.792  13.453  1.1612  1.7867  0.0994
 1942TIP3   OH227240   5.108   1.225  16.419 -0.1063 -0.2244 -0.1690
 1942TIP3    H127241   5.142   1.179  16.496  0.1219  1.2153  0.6262
 1942TIP3    H227242   5.098   1.157  16.353  0.5989 -1.3383  0.8313
 1943TIP3   OH227243   5.431   4.626  14.690 -0.4309 -0.1289  0.0297
 1943TIP3    H127244   5.388   4.701  14.731 -2.7742 -1.5365  0.2732
 1943TIP3    H227245   5.492   4.594  14.756 -0.7558  0.4612  0.6241
 1944TIP3   OH227246   1.379   3.786   0.549 -0.2334 -0.2277 -0.0794
 1944TIP3    H127247   1.330   3.826   0.477  0.6684 -0.8958 -1.0963
 1944TIP3    H227248   1.395   3.696   0.520  1.6966 -0.0070  0.1189
 1945TIP3   OH227249   1.746   4.714  13.553 -0.3282 -0.2235  0.5315
 1945TIP3    H127250   1.778   4.797  13.587 -0.5885 -0.2524  0.8474
 1945TIP3    H227251   1.663   4.735  13.512  0.2870 -0.0688 -0.6830
 1946TIP3   OH227252   2.791   6.336   3.969 -0.3486  0.2438  0.1987
 1946TIP3    H127253   2.834   6.421   3.981  1.2815 -0.3702 -0.9399
 1946TIP3    H227254   2.720   6.354   3.907  0.1259  0.7175 -0.2095
 1947TIP3   OH227255   5.469   5.520   1.510 -0.4661 -0.4566 -0.4315
 1947TIP3    H127256   5.518   5.480   1.582 -1.6217 -0.0974  0.5984
 1947TIP3    H227257   5.440   5.447   1.456 -0.3268 -0.8095 -0.0302
 1948TIP3   OH227258   0.904   6.420   5.708  0.0125  0.0696  0.6256
 1948TIP3    H127259   0.833   6.357   5.716  0.3135 -0.5698 -1.2519
 1948TIP3    H227260   0.868   6.492   5.656  0.1177  0.7789  1.4988
 1949TIP3   OH227261   0.760   1.458  15.816 -0.0193 -0.4600  0.0468
 1949TIP3    H127262   0.753   1.431  15.908  1.1397  1.4942  0.7649
 1949TIP3    H227263   0.832   1.405  15.782  0.7173  0.0449  0.7827
 1950TIP3   OH227264   2.907   4.032  16.756 -0.0993  0.3561  0.4069
 1950TIP3    H127265   2.815   4.013  16.776  0.4843 -1.0339  1.9224
 1950TIP3    H227266   2.954   4.011  16.836  1.3345  3.1753  0.4271
 1951TIP3   OH227267   0.562   4.063   5.280  0.2022 -0.4079 -0.0762
 1951TIP3    H127268   0.480   4.082   5.326  1.1291 -0.9870  1.9678
 1951TIP3    H227269   0.581   3.972   5.303  1.2806 -0.3572 -0.7145
 1952TIP3   OH227270   0.910   6.773   3.568  0.3876  0.2793 -0.6909
 1952TIP3    H127271   0.856   6.814   3.635 -1.3261  0.2214 -1.9800
 1952TIP3    H227272   0.871   6.687   3.554  1.9408 -0.5179 -0.3750
 1953TIP3   OH227273   4.452   5.289   5.656 -0.3995 -0.8463 -0.2091
 1953TIP3    H127274   4.484   5.310   5.744 -1.5199 -0.5328  0.1471
 1953TIP3    H227275   4.385   5.222   5.671 -3.9706  2.3708 -0.2281
 1954TIP3   OH227276   4.571   5.561  14.840  0.6333 -0.7441 -0.2047
 1954TIP3    H127277   4.493   5.518  14.875 -0.2170  1.3838  0.7604
 1954TIP3    H227278   4.583   5.638  14.897  3.4477 -0.9833 -0.3395
 1955TIP3   OH227279   5.702   3.256   4.104  0.0079 -0.2052  0.6767
 1955TIP3    H127280   5.680   3.248   4.196  2.1162  1.0333  1.3724
 1955TIP3    H227281   5.667   3.341   4.078 -1.5516 -1.0205 -0.0244
 1956TIP3   OH227282   3.355   2.425   2.572  0.0929 -0.6860  0.0695
 1956TIP3    H127283   3.364   2.478   2.493 -2.1868  1.2193  0.9930
 1956TIP3    H227284   3.444   2.392   2.588  1.6782  2.8010 -0.6019
 1957TIP3   OH227285   3.816   0.699  15.279 -0.2613  1.2371  0.5589
 1957TIP3    H127286   3.816   0.735  15.367 -1.2309 -0.3951  1.2869
 1957TIP3    H227287   3.874   0.623  15.285 -0.5143  0.9844 -0.1505
 1958TIP3   OH227288   3.295   0.427  12.571 -0.2347  0.2732  0.2787
 1958TIP3    H127289   3.380   0.409  12.530 -1.2617 -0.4988 -1.6958
 1958TIP3    H227290   3.293   0.521  12.584  0.4943  0.4422 -0.7234
 1959TIP3   OH227291   5.206   3.380  14.360  0.0086  0.2052 -0.5130
 1959TIP3    H127292   5.188   3.412  14.272 -0.1016  0.3107 -0.4522
 1959TIP3    H227293   5.300   3.397  14.373 -0.3692  1.9343  0.1054
 1960TIP3   OH227294   5.661   6.190  15.962 -0.3497  0.1026 -0.3014
 1960TIP3    H127295   5.611   6.171  15.882 -1.1117  0.5172  0.0677
 1960TIP3    H227296   5.729   6.250  15.933 -1.0996  0.8702 -0.5123
 1961TIP3   OH227297   2.670   5.977  11.560  0.2802  0.1176  0.3259
 1961TIP3    H127298   2.580   5.946  11.571  0.9248 -1.8119  0.5552
 1961TIP3    H227299   2.712   5.911  11.504  2.5322 -1.1789  3.2224
 1962TIP3   OH227300   1.150   3.000   2.704  0.3654 -0.2533 -0.0400
 1962TIP3    H127301   1.127   3.092   2.708  0.2765 -0.3097  1.2502
 1962TIP3    H227302   1.242   2.998   2.676  0.3596  0.2136 -0.0855
 1963TIP3   OH227303   4.543   1.305   4.615 -0.1006 -0.6446  0.1343
 1963TIP3    H127304   4.515   1.397   4.607  0.1646 -0.6353 -0.8450
 1963TIP3    H227305   4.461   1.256   4.613 -0.3059 -0.3961  1.5503
 1964TIP3   OH227306   3.271   0.737   2.653 -0.1841  0.0413  0.0002
 1964TIP3    H127307   3.351   0.747   2.602  0.0502 -1.2516  0.1016
 1964TIP3    H227308   3.300   0.701   2.737 -0.6984  1.0871  0.6507
 1965TIP3   OH227309   0.065   2.225  16.882  0.3300  0.5503  0.4249
 1965TIP3    H127310   0.009   2.301  16.865  0.4368  0.5986  0.2799
 1965TIP3    H227311   0.060   2.212  16.976  0.2631  0.7021  0.4444
 1966TIP3   OH227312   6.075   0.961  14.384  0.1672 -0.0539 -0.1066
 1966TIP3    H127313   6.009   0.935  14.448  4.0565 -2.3855  3.3995
 1966TIP3    H227314   6.081   1.056  14.393 -3.1941  0.4232 -1.3280
 1967TIP3   OH227315   2.173   0.051   2.544 -0.2351 -0.0080 -0.1255
 1967TIP3    H127316   2.201   0.077   2.632 -0.4474 -0.5839  0.1226
 1967TIP3    H227317   2.085   0.087   2.535 -1.4185 -2.3662  1.0636
 1968TIP3   OH227318   5.057   5.905  13.379  0.9170 -0.2559 -0.1407
 1968TIP3    H127319   5.058   5.866  13.291 -1.5778  0.5518 -0.6108
 1968TIP3    H227320   4.985   5.860  13.424  0.1871  1.4111  0.4377
 1969TIP3   OH227321   4.855   4.838  13.303 -0.0795 -0.5880  0.6008
 1969TIP3    H127322   4.936   4.794  13.278 -0.1676 -0.0321 -0.7342
 1969TIP3    H227323   4.789   4.804  13.243 -0.1002  1.4929 -0.6221
 1970TIP3   OH227324   0.142   6.266  15.516 -0.2329  0.6015 -0.8496
 1970TIP3    H127325   0.129   6.172  15.528  1.0000  0.3664 -1.1499
 1970TIP3    H227326   0.190   6.293  15.594 -0.0680  0.8513 -1.0349
 1971TIP3   OH227327   6.105   1.257  13.077  0.2591 -0.3793 -0.3789
 1971TIP3    H127328   6.068   1.283  12.993 -0.8026 -0.3245  0.0902
 1971TIP3    H227329   6.082   1.327  13.137 -1.9879 -1.9427  0.7272
 1972TIP3   OH227330   0.366   3.880   3.341 -0.0906 -0.2040 -0.0120
 1972TIP3    H127331   0.437   3.936   3.309  0.2380 -0.6694 -0.1104
 1972TIP3    H227332   0.400   3.839   3.420 -0.4232 -0.0709  0.2039
 1973TIP3   OH227333   1.083   1.522   5.529 -0.4182  0.4957 -0.1466
 1973TIP3    H127334   1.072   1.427   5.542 -0.8355  0.4357 -0.8543
 1973TIP3    H227335   1.009   1.561   5.574  0.7530  0.6299  1.7481
 1974TIP3   OH227336   2.181   0.601   5.457 -0.5175 -0.0686 -0.2359
 1974TIP3    H127337   2.138   0.614   5.373 -1.0406  1.0028  0.1788
 1974TIP3    H227338   2.233   0.681   5.470 -0.0271 -0.4530  0.2126
 1975TIP3   OH227339   0.752   4.783  14.268  0.6705  0.1669 -0.0758
 1975TIP3    H127340   0.706   4.865  14.283  0.1487 -0.4523  2.0067
 1975TIP3    H227341   0.827   4.786  14.326  1.6499 -0.0944 -1.2941
 1976TIP3   OH227342   0.449   4.757  14.035 -0.0335 -0.0782  0.9841
 1976TIP3    H127343   0.453   4.851  14.056 -0.2704 -0.0809  1.0576
 1976TIP3    H227344   0.536   4.735  14.002 -0.3030  0.4199 -0.1125
 1977TIP3   OH227345   0.553   4.713  12.778 -0.1499 -0.3171 -0.6264
 1977TIP3    H127346   0.534   4.804  12.754  0.1876  0.4422  1.7531
 1977TIP3    H227347   0.467   4.674  12.792 -0.2566  0.3526  0.7024
 1978TIP3   OH227348   0.666   6.073  13.113 -0.3626  0.1082  0.1190
 1978TIP3    H127349   0.577   6.077  13.149 -0.4971  1.0915 -0.2955
 1978TIP3    H227350   0.672   6.150  13.056  0.6409 -0.1424 -0.1240
 1979TIP3   OH227351   1.254   0.476  15.477 -0.4165  0.4822  0.2472
 1979TIP3    H127352   1.344   0.443  15.476  0.3042  2.3712 -1.1225
 1979TIP3    H227353   1.223   0.461  15.388 -1.4439 -0.0203  0.6752
 1980TIP3   OH227354   1.235   5.541   0.487  0.4639 -0.3252  0.7621
 1980TIP3    H127355   1.289   5.512   0.414 -2.3641  0.5442 -1.8809
 1980TIP3    H227356   1.191   5.461   0.517 -1.0387 -0.2273 -0.9777
 1981TIP3   OH227357   2.246   0.008   3.537  0.7915  0.0177 -0.0593
 1981TIP3    H127358   2.190   0.083   3.518  1.7908  0.3469 -1.9200
 1981TIP3    H227359   2.191  -0.068   3.519 -0.1995  0.2336  1.7518
 1982TIP3   OH227360   2.277   1.446   3.693  0.1557 -0.0730  0.2501
 1982TIP3    H127361   2.369   1.443   3.719 -0.3503  0.6860  2.2770
 1982TIP3    H227362   2.249   1.354   3.695  1.0320 -0.3885 -1.1003
 1983TIP3   OH227363   3.626   3.199   6.738 -0.3853  0.1868  0.1500
 1983TIP3    H127364   3.682   3.143   6.791 -0.2750  0.5156  0.3841
 1983TIP3    H227365   3.649   3.288   6.764 -1.7828  0.3062  1.0489
 1984TIP3   OH227366   5.139   0.959   4.852 -0.2685  0.3895  0.7487
 1984TIP3    H127367   5.063   0.990   4.902 -0.3303 -0.0344  0.9172
 1984TIP3    H227368   5.191   0.911   4.915 -0.2593 -0.0026  0.4472
 1985TIP3   OH227369   0.058   2.731   1.090 -0.5288  0.0606  0.2945
 1985TIP3    H127370  -0.023   2.745   1.041 -0.0541  1.6733 -0.0768
 1985TIP3    H227371   0.128   2.746   1.026  0.0772  0.7336  1.0914
 1986TIP3   OH227372   3.261   0.626   0.828 -0.8706 -0.1766 -0.6353
 1986TIP3    H127373   3.186   0.577   0.861 -0.5457  0.1225  0.5913
 1986TIP3    H227374   3.230   0.665   0.745 -1.7642 -0.7969 -0.6035
 1987TIP3   OH227375   5.986   2.284   5.903  0.5704 -0.3796 -0.3904
 1987TIP3    H127376   5.917   2.218   5.892 -0.7312  0.7873  0.4103
 1987TIP3    H227377   6.045   2.247   5.969 -0.0710 -0.8106 -0.0495
 1988TIP3   OH227378   2.175   6.441   0.170  0.2621  0.2011  0.0951
 1988TIP3    H127379   2.109   6.433   0.238 -0.7177  0.3452 -0.8178
 1988TIP3    H227380   2.231   6.364   0.181 -1.0895 -0.8586 -0.1871
 1989TIP3   OH227381   0.219   4.226   1.518  1.0013  0.1706  0.1542
 1989TIP3    H127382   0.287   4.292   1.501  1.0013  0.0525 -0.3279
 1989TIP3    H227383   0.147   4.276   1.558  0.2267  0.8473 -1.9420
 1990TIP3   OH227384   5.731   5.121   5.194 -0.1096  0.3608  0.0099
 1990TIP3    H127385   5.692   5.202   5.228  1.5134  0.6180  1.4334
 1990TIP3    H227386   5.667   5.087   5.132 -2.0787  1.2754  1.4384
 1991TIP3   OH227387   6.337   3.378  12.832 -0.2129 -0.3754 -0.6524
 1991TIP3    H127388   6.391   3.299  12.838 -2.0700 -1.6574  0.1073
 1991TIP3    H227389   6.383   3.434  12.770  2.6384 -0.8258  0.8993
 1992TIP3   OH227390   5.674   2.628   2.345  0.5256 -0.1601  0.6264
 1992TIP3    H127391   5.715   2.561   2.291 -1.1294  0.9203 -2.1447
 1992TIP3    H227392   5.580   2.607   2.342  0.1031  1.5641  0.7163
 1993TIP3   OH227393   0.818   6.032   3.765  0.2908 -0.0828  0.8000
 1993TIP3    H127394   0.765   6.072   3.834 -1.1500  0.9568 -0.8044
 1993TIP3    H227395   0.887   6.095   3.748 -0.3183  0.4449  0.2110
 1994TIP3   OH227396   0.411   4.661   6.296 -0.2834 -0.3885  0.1436
 1994TIP3    H127397   0.450   4.621   6.373 -0.1407  2.8178  1.9360
 1994TIP3    H227398   0.485   4.692   6.244 -0.2339  2.5897  1.7827
 1995TIP3   OH227399   3.478   6.336   5.033  0.2194 -0.3863 -0.4562
 1995TIP3    H127400   3.561   6.377   5.057  0.4903 -0.0616 -1.8548
 1995TIP3    H227401   3.503   6.253   4.992 -0.2083 -0.7870  0.0771
 1996TIP3   OH227402   2.088   1.857  16.731  0.1544 -0.3240 -0.0637
 1996TIP3    H127403   2.108   1.802  16.807  3.3400 -1.2444 -1.4029
 1996TIP3    H227404   2.126   1.942  16.752 -2.2695  0.6029  0.8315
 1997TIP3   OH227405   4.628   2.319   5.325  0.2651  0.0552  0.2511
 1997TIP3    H127406   4.561   2.356   5.268 -0.8783 -0.1999  1.3816
 1997TIP3    H227407   4.711   2.339   5.282 -0.5747 -0.6960 -1.8248
 1998TIP3   OH227408   0.470   4.487   2.988 -0.0154 -0.2726  0.7072
 1998TIP3    H127409   0.394   4.538   3.014 -0.7931 -1.7282  1.4754
 1998TIP3    H227410   0.462   4.477   2.893 -0.7593 -0.3506  0.7709
 1999TIP3   OH227411   2.293   4.007  16.259 -0.2068  0.3785 -0.3860
 1999TIP3    H127412   2.341   4.080  16.298  0.6825 -0.3160 -0.1499
 1999TIP3    H227413   2.314   4.011  16.166 -1.3413  1.2902 -0.6292
 2000TIP3   OH227414   5.969   5.176  12.834 -0.1977 -0.6921  0.1666
 2000TIP3    H127415   5.929   5.263  12.828  1.8452  0.2723 -0.2582
 2000TIP3    H227416   5.990   5.166  12.927 -1.9670 -1.5113  0.5229
 2001TIP3   OH227417   2.587   4.670   5.872  0.3920 -0.4714 -0.4590
 2001TIP3    H127418   2.561   4.759   5.893 -2.1508 -0.9670 -1.1775
 2001TIP3    H227419   2.682   4.668   5.887  0.0893  1.5111  2.4551
 2002TIP3   OH227420   3.935   6.696   0.305 -0.1173 -0.1459  0.0481
 2002TIP3    H127421   3.878   6.730   0.374 -0.5418  2.4785 -1.4656
 2002TIP3    H227422   3.879   6.636   0.256 -0.5932 -0.0441  0.4533
 2003TIP3   OH227423   1.372   5.861  12.469  0.1472  0.0171 -0.0132
 2003TIP3    H127424   1.318   5.933  12.435  0.2004  0.8112  1.5183
 2003TIP3    H227425   1.326   5.781  12.441 -0.3263  0.6344 -1.0664
 2004TIP3   OH227426   2.707   2.112  16.531  0.2623 -0.2461  0.4873
 2004TIP3    H127427   2.679   2.023  16.550  1.6047 -0.9095 -0.4580
 2004TIP3    H227428   2.626   2.163  16.526 -0.4813 -1.2296  1.7949
 2005TIP3   OH227429   5.701   0.417  16.464  0.0962 -0.4319  0.0119
 2005TIP3    H127430   5.624   0.364  16.487 -2.3675  2.4593 -0.8423
 2005TIP3    H227431   5.682   0.449  16.376  0.8307  2.6887  0.8738
 2006TIP3   OH227432   3.039   2.615  12.447 -0.3264  0.4093 -0.7585
 2006TIP3    H127433   3.003   2.702  12.462  0.0562  0.4945 -0.2554
 2006TIP3    H227434   3.086   2.595  12.529  0.4082  0.1439 -1.2360
 2007TIP3   OH227435   6.165   0.171   3.431 -0.2286  0.0633  0.2767
 2007TIP3    H127436   6.244   0.116   3.426  1.3633  2.2011  0.3239
 2007TIP3    H227437   6.096   0.118   3.392  1.3343 -1.7389 -0.1925
 2008TIP3   OH227438   6.586   0.475  13.471  0.3020  0.3111 -0.1801
 2008TIP3    H127439   6.596   0.400  13.413 -2.7998 -1.1000  0.8690
 2008TIP3    H227440   6.623   0.447  13.554 -0.9143 -0.1539  0.2301
 2009TIP3   OH227441   4.033   4.985  12.701  0.3075 -0.1388  0.3996
 2009TIP3    H127442   4.123   4.956  12.718  0.4267  1.0094  1.9724
 2009TIP3    H227443   4.035   5.079  12.719 -1.1397 -0.0409  0.1231
 2010TIP3   OH227444   1.807   6.222   4.550 -0.3402  0.4476  0.4191
 2010TIP3    H127445   1.746   6.167   4.501 -0.4146  0.3670  0.6032
 2010TIP3    H227446   1.768   6.230   4.637 -1.0648  1.9991 -0.0275
 2011TIP3   OH227447   5.253   4.938   0.163  0.2578 -0.0796  0.7582
 2011TIP3    H127448   5.222   4.972   0.079  0.6269 -2.7018 -0.5429
 2011TIP3    H227449   5.305   5.010   0.200  0.8071  0.8745 -1.6634
 2012TIP3   OH227450   5.210   5.288   6.357  0.0025 -0.2372  0.1998
 2012TIP3    H127451   5.222   5.250   6.270  0.4296 -0.1221  0.2045
 2012TIP3    H227452   5.117   5.310   6.361  0.2249  0.9406 -0.7134
 2013TIP3   OH227453   6.081   4.485  10.309 -0.2868  0.3516  0.3781
 2013TIP3    H127454   6.132   4.405  10.324  0.5500  0.6510 -0.7838
 2013TIP3    H227455   6.143   4.556  10.320 -0.9871  0.8618  1.1944
 2014TIP3   OH227456   2.128   4.216  13.619  0.3129  0.0769  0.4664
 2014TIP3    H127457   2.052   4.163  13.642  1.2516 -1.8814 -0.7388
 2014TIP3    H227458   2.100   4.306  13.634 -3.0254 -0.3869 -1.9725
 2015TIP3   OH227459   4.386   1.571   5.530 -1.0627 -0.0962 -0.1184
 2015TIP3    H127460   4.306   1.569   5.477 -2.3143 -1.4227  1.6930
 2015TIP3    H227461   4.391   1.484   5.569  1.8059 -0.3603 -0.8571
 2016TIP3   OH227462   6.130   1.842  14.657  1.0816 -0.0337 -0.1769
 2016TIP3    H127463   6.066   1.772  14.665  1.6279 -0.6685 -1.0696
 2016TIP3    H227464   6.091   1.917  14.701  0.7643 -1.0766  1.3772
 2017TIP3   OH227465   5.567   1.418  15.820 -0.1424 -0.5065  0.0914
 2017TIP3    H127466   5.486   1.379  15.786 -0.8762  1.7037 -0.9201
 2017TIP3    H227467   5.553   1.512  15.812  2.0369 -0.0294  1.1460
 2018TIP3   OH227468   0.158   6.315   5.880 -0.3759 -0.1701  0.0405
 2018TIP3    H127469   0.114   6.374   5.941 -0.4818  0.6302 -0.7987
 2018TIP3    H227470   0.252   6.334   5.891 -0.0222 -2.6871  2.6837
 2019TIP3   OH227471   6.807   1.789  14.954 -0.2953  0.0240 -0.3424
 2019TIP3    H127472   6.835   1.726  15.020 -0.5989  0.0479 -0.1896
 2019TIP3    H227473   6.887   1.833  14.927 -0.4624  2.0083  2.0247
 2020TIP3   OH227474   5.508   0.614  13.979  0.5505  0.2026  0.1030
 2020TIP3    H127475   5.528   0.663  13.899  0.4013  3.8427  2.1046
 2020TIP3    H227476   5.573   0.644  14.043  0.0435 -1.8349  1.6671
 2021TIP3   OH227477   2.967   2.497   4.186  0.2199  0.2214 -0.1500
 2021TIP3    H127478   2.912   2.557   4.135  0.8029 -0.1312 -1.2156
 2021TIP3    H227479   3.029   2.554   4.231 -1.6381  0.7240  1.9185
 2022TIP3   OH227480   6.282   3.570  16.619  0.6179  0.6227 -0.4935
 2022TIP3    H127481   6.298   3.664  16.623 -0.7941  0.8494  0.9331
 2022TIP3    H227482   6.331   3.535  16.694 -3.2243  1.0437  2.5267
 2023TIP3   OH227483   4.748   2.265  16.155  0.2013  0.8416 -0.1105
 2023TIP3    H127484   4.728   2.226  16.240  0.1978 -2.2405 -1.3757
 2023TIP3    H227485   4.838   2.238  16.136  0.6505  2.5545 -0.5854
 2024TIP3   OH227486   4.746   5.905   5.272 -0.3481 -0.4076 -0.8963
 2024TIP3    H127487   4.838   5.894   5.296 -0.9032 -1.8734  0.7229
 2024TIP3    H227488   4.728   5.834   5.210 -0.5471 -0.4980 -0.7350
 2025TIP3   OH227489   6.321   5.119   2.414  0.3362  0.4959  0.0884
 2025TIP3    H127490   6.255   5.083   2.355  1.0210  0.3142 -0.5923
 2025TIP3    H227491   6.402   5.114   2.363  1.1576 -0.7179  1.4537
 2026TIP3   OH227492   2.616   5.826   1.587  0.0187 -0.7000  0.7296
 2026TIP3    H127493   2.549   5.791   1.528 -0.9235 -0.4065  1.5931
 2026TIP3    H227494   2.693   5.838   1.531 -0.4954 -1.4850 -0.1848
 2027TIP3   OH227495   0.468   1.661  15.644  0.0213 -0.0822  0.1813
 2027TIP3    H127496   0.482   1.733  15.706 -0.5153 -0.7963  1.1729
 2027TIP3    H227497   0.380   1.677  15.609  0.2301  0.1906 -0.2252
 2028TIP3   OH227498   3.582   4.718  15.712  0.0163  0.1510 -0.2157
 2028TIP3    H127499   3.555   4.798  15.666  1.2343 -0.2188 -1.6508
 2028TIP3    H227500   3.633   4.669  15.648  0.9118 -0.9040  1.2333
 2029TIP3   OH227501   4.600   5.361  13.890  0.3899 -0.3398  0.0420
 2029TIP3    H127502   4.582   5.296  13.821  1.9636 -1.0779  0.2885
 2029TIP3    H227503   4.516   5.373  13.933 -0.0781 -1.7682 -0.4068
 2030TIP3   OH227504   0.687   2.474  11.170 -0.2971  0.2591  0.0317
 2030TIP3    H127505   0.708   2.403  11.232 -1.8891  1.4259  2.0387
 2030TIP3    H227506   0.592   2.483  11.175 -0.4320  0.6813 -2.3663
 2031TIP3   OH227507   4.698   3.089  12.450 -0.2434  0.1143  0.0490
 2031TIP3    H127508   4.724   3.068  12.360  1.8670 -0.2638  0.7026
 2031TIP3    H227509   4.605   3.064  12.454 -0.3040 -0.1597 -1.9070
 2032TIP3   OH227510   1.665   3.611   1.335 -0.0888 -0.4912 -0.3779
 2032TIP3    H127511   1.631   3.675   1.397  0.9765 -0.5310  0.2769
 2032TIP3    H227512   1.723   3.556   1.388  0.7486 -0.6034 -1.3885
 2033TIP3   OH227513   5.495   1.581   4.883  0.3858 -0.8411 -0.2951
 2033TIP3    H127514   5.464   1.564   4.794 -0.5584 -0.0407 -0.1343
 2033TIP3    H227515   5.519   1.495   4.917  1.4142 -1.0859 -1.5469
 2034TIP3   OH227516   5.475   5.929  15.692  0.0568 -0.4805 -0.0030
 2034TIP3    H127517   5.498   5.841  15.664  0.7030 -0.5326  0.6652
 2034TIP3    H227518   5.483   5.927  15.788 -0.6564  0.0938  0.0806
 2035TIP3   OH227519   2.511   1.743  16.394 -0.0454 -0.3207  0.2103
 2035TIP3    H127520   2.548   1.793  16.466  1.4614 -0.7454 -0.2266
 2035TIP3    H227521   2.515   1.652  16.423  0.9225 -0.5326 -0.5283
 2036TIP3   OH227522   2.311   4.879   1.621  0.2971  0.1265  0.2718
 2036TIP3    H127523   2.400   4.886   1.587 -0.1411  1.0561 -0.7839
 2036TIP3    H227524   2.273   4.966   1.604 -0.9161 -0.3696  0.3643
 2037TIP3   OH227525   5.718   4.727   0.007 -0.6130  0.4605  0.9132
 2037TIP3    H127526   5.724   4.659  -0.059  1.4662  1.7829 -0.3755
 2037TIP3    H227527   5.690   4.805  -0.040 -1.5615  0.8525  2.0809
 2038TIP3   OH227528   0.870   5.918   1.910 -0.1173 -0.6776  0.4440
 2038TIP3    H127529   0.880   5.926   2.005  1.2443 -1.1766  0.3602
 2038TIP3    H227530   0.866   6.009   1.879 -0.8225 -0.5149  0.9914
 2039TIP3   OH227531   1.439   3.436  10.577  0.0892 -0.0618  0.3425
 2039TIP3    H127532   1.507   3.428  10.644  0.1570  0.7720  0.3889
 2039TIP3    H227533   1.360   3.461  10.626 -0.1818 -0.7345  0.2558
 2040TIP3   OH227534   3.691   5.530   4.353 -0.3076  0.0663 -0.3246
 2040TIP3    H127535   3.638   5.452   4.370  0.0052  0.1139  0.9547
 2040TIP3    H227536   3.781   5.498   4.358 -0.1731  0.0438 -2.1935
 2041TIP3   OH227537   2.696   4.314  15.538  0.0739 -0.1242 -0.0520
 2041TIP3    H127538   2.759   4.340  15.471 -0.1372 -0.8798 -0.5495
 2041TIP3    H227539   2.738   4.339  15.621  0.9979 -0.5678 -0.3765
 2042TIP3   OH227540   5.865   4.443  14.224  0.1901 -0.3530  0.1807
 2042TIP3    H127541   5.950   4.403  14.242  0.1691 -1.2903 -1.6290
 2042TIP3    H227542   5.866   4.461  14.130 -1.6756 -0.5132  0.0888
 2043TIP3   OH227543   1.100   4.761  14.012 -0.1199 -0.6587  0.2193
 2043TIP3    H127544   1.137   4.779  13.926 -0.8116 -3.3174 -0.7161
 2043TIP3    H227545   1.014   4.804  14.011  0.8999  1.5585  0.6613
 2044TIP3   OH227546   6.455   0.618   0.827  0.0525  0.4728 -0.6047
 2044TIP3    H127547   6.433   0.619   0.734 -1.3268  0.1275 -0.2922
 2044TIP3    H227548   6.455   0.710   0.853  1.1904  0.6360 -1.0889
 2045TIP3   OH227549   6.248   2.591   5.003  0.3229  0.1364 -0.0096
 2045TIP3    H127550   6.295   2.508   5.000 -0.5351 -0.3882  0.6028
 2045TIP3    H227551   6.197   2.593   4.922 -2.0547 -1.4349  1.3084
 2046TIP3   OH227552   4.080   0.675  10.375 -0.1858 -0.1190  0.0657
 2046TIP3    H127553   4.019   0.738  10.413  1.5171  0.9392  1.1979
 2046TIP3    H227554   4.031   0.592  10.373 -1.6965  0.7177  0.7500
 2047TIP3   OH227555   0.164   2.285  11.556 -0.4443 -0.1948 -0.3776
 2047TIP3    H127556   0.232   2.330  11.606 -1.7779  1.3016  0.1916
 2047TIP3    H227557   0.179   2.313  11.465  0.6345 -1.1596 -0.5269
 2048TIP3   OH227558   3.543   4.392  14.814 -0.3874  0.0065 -0.3049
 2048TIP3    H127559   3.493   4.417  14.892  1.7455  2.8776  0.3089
 2048TIP3    H227560   3.504   4.444  14.744  1.3212  1.9675  0.1044
 2049TIP3   OH227561   5.311   5.924  13.510  0.2420 -0.1041 -0.3427
 2049TIP3    H127562   5.222   5.917  13.475  0.4813 -2.0479 -0.6502
 2049TIP3    H227563   5.318   5.854  13.574  1.3758  0.3905  0.1033
 2050TIP3   OH227564   0.922   3.386  12.682 -0.2034  0.0041 -0.2225
 2050TIP3    H127565   0.830   3.379  12.708 -0.2489 -1.4435 -0.6655
 2050TIP3    H227566   0.962   3.442  12.748 -0.8948 -1.3238  1.4187
 2051TIP3   OH227567   3.687   3.039  15.186  0.3646 -0.2402  0.2333
 2051TIP3    H127568   3.607   2.992  15.165  1.2324 -0.7166 -2.3203
 2051TIP3    H227569   3.664   3.132  15.179 -0.2760 -0.3247  0.9973
 2052TIP3   OH227570   2.252   0.045  15.818 -0.4352  0.2966 -0.2976
 2052TIP3    H127571   2.337   0.038  15.862 -0.0233  0.0445 -1.1152
 2052TIP3    H227572   2.193  -0.007  15.872 -0.0466  0.3719  0.2107
 2053TIP3   OH227573   6.558   4.947  10.748  0.2030 -0.2140  0.0248
 2053TIP3    H127574   6.549   4.886  10.821 -0.0658 -0.7178 -0.4300
 2053TIP3    H227575   6.650   4.939  10.721  0.6952  1.0200  1.2138
 2054TIP3   OH227576   0.295   3.120  16.486 -0.8501 -0.5699 -0.2815
 2054TIP3    H127577   0.234   3.156  16.421  0.4587 -0.1778 -1.3392
 2054TIP3    H227578   0.366   3.082  16.434  0.7613  0.6781  0.9040
 2055TIP3   OH227579   4.560   3.818   3.160 -0.5366 -0.0547 -0.3586
 2055TIP3    H127580   4.624   3.768   3.111 -0.8818 -0.0195 -0.8527
 2055TIP3    H227581   4.584   3.806   3.252  0.0752 -0.1712 -0.5342
 2056TIP3   OH227582   1.944   6.758  14.577  0.0762  0.2397  0.4909
 2056TIP3    H127583   1.954   6.832  14.517  0.8838  0.6482  1.1310
 2056TIP3    H227584   1.914   6.686  14.520 -2.0826  1.3718  0.0717
 2057TIP3   OH227585   1.603   6.432   5.673  0.2965 -0.8882  0.2847
 2057TIP3    H127586   1.548   6.354   5.675  2.5098 -2.6394 -1.3154
 2057TIP3    H227587   1.543   6.504   5.657 -1.8704 -2.1767  2.0813
 2058TIP3   OH227588   1.525   1.800  14.324  0.0483 -0.1473 -0.5343
 2058TIP3    H127589   1.564   1.782  14.238  2.5019  1.4903  0.1310
 2058TIP3    H227590   1.499   1.892  14.320 -0.7724 -0.3391  0.1565
 2059TIP3   OH227591   3.763   0.631   3.490 -0.5300 -0.0752 -0.5414
 2059TIP3    H127592   3.754   0.656   3.398  0.4205 -0.4274 -0.7383
 2059TIP3    H227593   3.700   0.687   3.536 -1.9717 -0.7932 -1.5444
 2060TIP3   OH227594   6.579   3.863  16.904  0.0643 -0.2348 -0.0986
 2060TIP3    H127595   6.617   3.785  16.944  0.6401  0.7022  1.2737
 2060TIP3    H227596   6.628   3.936  16.944 -0.1193  0.8064 -1.7087
 2061TIP3   OH227597   0.654   5.626   2.853 -0.6232  0.2638  0.6617
 2061TIP3    H127598   0.746   5.647   2.873 -0.6057  0.2721  0.5745
 2061TIP3    H227599   0.617   5.709   2.823 -0.5152  0.1392  0.1723
 2062TIP3   OH227600   3.621   5.443   3.294 -0.1487 -0.5524 -0.0595
 2062TIP3    H127601   3.528   5.430   3.316 -0.9668  2.2536 -1.3312
 2062TIP3    H227602   3.633   5.398   3.211 -0.4943 -0.5863 -0.0922
 2063TIP3   OH227603   2.128   6.540  17.095 -0.1225 -0.6892  0.5380
 2063TIP3    H127604   2.132   6.520  17.188 -2.0591  0.2077  0.8788
 2063TIP3    H227605   2.107   6.457  17.053 -0.4663 -0.8726  1.0637
 2064TIP3   OH227606   6.140   2.779  13.256 -0.6351 -0.1908  0.7082
 2064TIP3    H127607   6.099   2.706  13.303 -1.7388  0.9933  1.6615
 2064TIP3    H227608   6.214   2.740  13.210 -1.8138 -2.0960  0.3451
 2065TIP3   OH227609   2.747   1.725  10.556 -0.5943  0.1279  0.1615
 2065TIP3    H127610   2.760   1.805  10.608  0.9459 -0.8787  1.3936
 2065TIP3    H227611   2.741   1.756  10.466  1.4292  1.5401  0.4574
 2066TIP3   OH227612   4.734   5.260  15.152 -0.0204 -0.1552  0.1703
 2066TIP3    H127613   4.806   5.237  15.212  0.3164  0.0786 -0.1393
 2066TIP3    H227614   4.723   5.181  15.098  0.5809  0.0997 -0.3443
 2067TIP3   OH227615   1.084   5.255   5.630 -0.5728  0.0782 -0.1575
 2067TIP3    H127616   1.055   5.263   5.539 -2.5270 -0.1395  0.4056
 2067TIP3    H227617   1.131   5.337   5.647 -0.0753  0.0701 -1.3789
 2068TIP3   OH227618   4.430   1.834   2.261 -0.0669  0.0178 -0.5055
 2068TIP3    H127619   4.486   1.908   2.283 -0.8127  0.6804 -0.7801
 2068TIP3    H227620   4.344   1.858   2.295 -0.0117 -1.3879  0.7296
 2069TIP3   OH227621   6.041   1.531  14.418 -0.2287 -0.5716 -0.0930
 2069TIP3    H127622   6.109   1.481  14.374 -0.3653 -0.3825 -0.5301
 2069TIP3    H227623   6.054   1.621  14.387 -0.6481 -0.5290 -0.1474
 2070TIP3   OH227624   5.693   1.467   0.506  0.3981  0.0739  0.3023
 2070TIP3    H127625   5.673   1.560   0.497  0.8749  0.1482 -0.0157
 2070TIP3    H227626   5.611   1.423   0.483  0.2178  0.4138  0.2920
 2071TIP3   OH227627   5.302   4.224  15.539 -0.2876  0.2433  0.4211
 2071TIP3    H127628   5.366   4.293  15.558  1.3866 -1.1434  0.0389
 2071TIP3    H227629   5.217   4.269  15.539  0.4290  1.8275  2.8916
 2072TIP3   OH227630   5.403   0.658  12.428 -0.6349 -0.2761  0.2513
 2072TIP3    H127631   5.387   0.669  12.334 -1.9700  3.2743  0.7334
 2072TIP3    H227632   5.320   0.627  12.463 -0.7057  0.1666  0.4777
 2073TIP3   OH227633   1.329   2.941   4.811  0.2508  0.0225  0.0590
 2073TIP3    H127634   1.388   2.895   4.871 -0.3442  1.2480  1.6725
 2073TIP3    H227635   1.311   3.024   4.855  0.0483  1.1257 -2.0213
 2074TIP3   OH227636   2.690   1.800  15.943  0.1238 -0.5257 -0.1130
 2074TIP3    H127637   2.686   1.756  16.028 -1.9603  0.6467  0.4717
 2074TIP3    H227638   2.752   1.871  15.956 -1.2244  0.5055  0.9069
 2075TIP3   OH227639   4.846   5.183   5.246  0.7065 -0.0390  0.3734
 2075TIP3    H127640   4.886   5.119   5.187  1.3606  0.4840  0.2334
 2075TIP3    H227641   4.813   5.252   5.189  0.7766  0.1632  0.5737
 2076TIP3   OH227642   2.244   0.730   1.143 -0.0654 -0.1328  0.9218
 2076TIP3    H127643   2.160   0.770   1.123 -0.1574  0.0144  1.5826
 2076TIP3    H227644   2.243   0.718   1.238 -0.1229 -1.9230  0.7205
 2077TIP3   OH227645   3.301   1.098  12.265  0.2888  0.1014  0.2516
 2077TIP3    H127646   3.241   1.168  12.290 -1.7347 -1.3361 -0.3905
 2077TIP3    H227647   3.280   1.080  12.173  1.6266 -0.5374  0.0387
 2078TIP3   OH227648   3.497   6.440   1.690 -0.4975  0.1545  0.1514
 2078TIP3    H127649   3.538   6.464   1.773  0.6623 -1.3597  0.0459
 2078TIP3    H227650   3.417   6.394   1.715  0.2399 -0.9849  0.4741
 2079TIP3   OH227651   6.006   1.239  15.638 -0.0649  0.2510  0.1293
 2079TIP3    H127652   5.943   1.293  15.685  0.0308  0.2452  0.2652
 2079TIP3    H227653   5.989   1.256  15.546  0.5838  1.2252  0.1805
 2080TIP3   OH227654   6.492   4.297   6.168  0.6492  0.4493  0.5993
 2080TIP3    H127655   6.579   4.311   6.131  0.6205 -0.7583  0.0215
 2080TIP3    H227656   6.506   4.287   6.262  1.0614  0.7786  0.5726
 2081TIP3   OH227657   1.492   3.900   1.218 -0.3012 -0.6042 -0.2529
 2081TIP3    H127658   1.493   3.881   1.312 -0.8796  3.2200  0.6885
 2081TIP3    H227659   1.400   3.893   1.193 -0.0693 -2.2356 -0.7449
 2082TIP3   OH227660   4.051   4.779  14.385  0.3363 -0.2263 -0.0925
 2082TIP3    H127661   4.127   4.782  14.443  0.6746  1.7184 -0.5724
 2082TIP3    H227662   4.089   4.782  14.297 -0.2847  0.4417 -0.3394
 2083TIP3   OH227663   5.054   0.112   4.426  0.4273 -0.0525  0.2921
 2083TIP3    H127664   5.077   0.154   4.343  1.7793  0.3910  0.8645
 2083TIP3    H227665   4.980   0.163   4.460  0.2204  0.0987 -0.3701
 2084TIP3   OH227666   2.572   1.654  11.218 -0.1262  0.0138  0.5423
 2084TIP3    H127667   2.664   1.664  11.244 -0.2693  0.9432  0.7051
 2084TIP3    H227668   2.576   1.609  11.133  0.4794  0.0553  0.5454
 2085TIP3   OH227669   4.444   4.806  16.113 -0.0306  0.0449  0.2752
 2085TIP3    H127670   4.366   4.802  16.058  0.5217 -0.3356 -0.5168
 2085TIP3    H227671   4.452   4.898  16.139 -2.0896 -0.2927  2.4177
 2086TIP3   OH227672   1.699   0.226  11.953 -0.0264 -0.3722  0.6139
 2086TIP3    H127673   1.726   0.306  11.999 -1.0223  0.8381 -0.8088
 2086TIP3    H227674   1.615   0.203  11.991  0.7811 -1.4441  1.8166
 2087TIP3   OH227675   2.835   4.653   1.913 -0.2764  0.0038 -0.0276
 2087TIP3    H127676   2.747   4.653   1.877  0.3884  0.8532 -1.7833
 2087TIP3    H227677   2.881   4.584   1.864  0.1494 -0.1520  0.5818
 2088TIP3   OH227678   2.032   0.893   5.593  0.1677 -0.3257  0.0990
 2088TIP3    H127679   2.122   0.896   5.560  0.0488 -1.0590 -0.3010
 2088TIP3    H227680   2.004   0.985   5.594 -0.0996 -0.3058 -2.6070
 2089TIP3   OH227681   2.200   5.336  14.461 -0.1291  0.2849 -0.1108
 2089TIP3    H127682   2.278   5.281  14.459  0.1709  0.7123 -1.8179
 2089TIP3    H227683   2.147   5.304  14.388 -0.4869  1.4890 -0.3984
 2090TIP3   OH227684   1.859   5.057  12.331 -0.4842  0.3923 -0.3506
 2090TIP3    H127685   1.785   5.033  12.387 -2.9769  0.4250 -3.3126
 2090TIP3    H227686   1.935   5.015  12.371 -2.2691 -0.5194  2.3252
 2091TIP3   OH227687   2.508   0.351   2.340 -0.1307 -0.0105 -0.0455
 2091TIP3    H127688   2.536   0.441   2.359  0.6346  0.2051 -1.9577
 2091TIP3    H227689   2.589   0.303   2.327 -0.5420 -0.2475 -2.0141
 2092TIP3   OH227690   2.693   5.643  16.185 -0.3042 -0.5875 -0.3658
 2092TIP3    H127691   2.750   5.720  16.179  0.5497 -1.0719  1.0398
 2092TIP3    H227692   2.679   5.632  16.279  0.8037 -3.0026 -0.4300
 2093TIP3   OH227693   1.567   2.664   5.225 -0.0632 -0.9970 -0.1076
 2093TIP3    H127694   1.508   2.593   5.198 -1.3861 -0.2674  0.7509
 2093TIP3    H227695   1.570   2.659   5.320 -0.8999  0.6208  0.0428
 2094TIP3   OH227696   5.958   1.097   2.060  0.2745 -0.1939  0.1347
 2094TIP3    H127697   5.875   1.068   2.097  0.6775  1.4677  2.6103
 2094TIP3    H227698   5.994   1.157   2.126  2.1828  1.2386 -2.0357
 2095TIP3   OH227699   4.922   0.601   4.563  0.9182  0.0745 -0.0827
 2095TIP3    H127700   4.904   0.640   4.648 -3.2454 -0.9611 -0.2705
 2095TIP3    H227701   4.882   0.661   4.500 -1.2871 -1.9316 -0.7320
 2096TIP3   OH227702   0.529   0.676  13.808 -0.0685  0.1139 -0.2432
 2096TIP3    H127703   0.591   0.736  13.848 -1.3625  1.1563  0.2954
 2096TIP3    H227704   0.472   0.732  13.755 -0.9455 -0.7088 -0.2129
 2097TIP3   OH227705   1.919   6.057   4.991 -0.6335 -0.0888  0.2214
 2097TIP3    H127706   1.955   6.144   5.008  0.1732 -0.7191  1.9352
 2097TIP3    H227707   1.995   5.999   4.991 -1.0500 -0.7360 -1.7639
 2098TIP3   OH227708   6.074   2.065   5.381  0.5455 -0.0083  0.0461
 2098TIP3    H127709   6.130   2.090   5.308  1.3849 -0.1352  0.6277
 2098TIP3    H227710   6.106   1.979   5.408 -0.8493 -0.7291 -0.4934
 2099TIP3   OH227711   5.962   4.168   3.493  0.2065 -0.1861 -0.3848
 2099TIP3    H127712   5.916   4.152   3.575  1.0598 -2.9100 -0.3193
 2099TIP3    H227713   5.897   4.149   3.425 -0.2844  1.3630 -0.3974
 2100TIP3   OH227714   1.764   1.716  15.754  1.0289  0.4744  0.2519
 2100TIP3    H127715   1.715   1.752  15.828  1.5709  0.2953  0.7083
 2100TIP3    H227716   1.720   1.751  15.676 -0.4519 -0.5242  0.6198
 2101TIP3   OH227717   6.238   3.313   4.358 -0.4395  0.7099 -0.0320
 2101TIP3    H127718   6.163   3.373   4.361 -0.5192  0.6608 -0.7557
 2101TIP3    H227719   6.278   3.320   4.444  0.1737  2.6223 -0.4122
 2102TIP3   OH227720   2.355   6.178   4.342  0.5211 -0.0440 -0.7487
 2102TIP3    H127721   2.311   6.181   4.257 -1.0930  0.2217  0.0522
 2102TIP3    H227722   2.353   6.269   4.373 -0.8370 -0.4444  0.4763
 2103TIP3   OH227723   2.201   5.432   2.051 -0.1373 -0.8518 -0.2363
 2103TIP3    H127724   2.268   5.477   2.000 -0.7588  0.7928  0.3591
 2103TIP3    H227725   2.250   5.389   2.121  0.3815 -0.4818 -0.3639
 2104TIP3   OH227726   3.144   1.585  14.722 -0.2938 -0.4108  0.3129
 2104TIP3    H127727   3.101   1.656  14.673 -0.2328 -1.1648 -0.8682
 2104TIP3    H227728   3.198   1.630  14.787 -1.0529  0.6037  0.2668
 2105TIP3   OH227729   4.544   2.377  16.854  0.7259  0.4223  0.6055
 2105TIP3    H127730   4.456   2.360  16.889 -0.0032  1.7413 -0.5127
 2105TIP3    H227731   4.565   2.299  16.803 -0.6189  0.8343 -0.6586
 2106TIP3   OH227732   4.985   4.883  13.910  0.0723 -0.5563 -0.2961
 2106TIP3    H127733   4.902   4.860  13.868  0.7375 -0.3281 -1.7891
 2106TIP3    H227734   4.977   4.977  13.928  0.0191 -0.5308 -0.4537
 2107TIP3   OH227735   0.684   5.685   2.235  0.0931  0.2766  0.1594
 2107TIP3    H127736   0.777   5.692   2.256  0.6004  0.4805 -1.9049
 2107TIP3    H227737   0.676   5.601   2.189 -0.8779 -0.0550  0.9110
 2108TIP3   OH227738   5.972   2.413  16.858 -0.1039  0.7841 -0.4818
 2108TIP3    H127739   6.052   2.452  16.894 -0.4938  1.0572  0.1041
 2108TIP3    H227740   5.999   2.378  16.773  0.8490  0.0603  0.1002
 2109TIP3   OH227741   0.216   0.231  15.149 -0.0519 -0.0059  0.1188
 2109TIP3    H127742   0.308   0.252  15.167  0.2232 -0.5056 -0.6595
 2109TIP3    H227743   0.175   0.316  15.130 -0.2504  0.4943  2.5106
 2110TIP3   OH227744   2.073   4.824  14.240  0.3016  0.4035 -0.1391
 2110TIP3    H127745   2.166   4.840  14.254  0.4897 -0.2251 -0.6144
 2110TIP3    H227746   2.044   4.897  14.186  0.6450  0.3160 -0.4455
 2111TIP3   OH227747   3.349   0.345   6.479 -0.4565  0.2879 -0.4294
 2111TIP3    H127748   3.259   0.329   6.451 -0.4647  1.7711 -1.3705
 2111TIP3    H227749   3.391   0.258   6.475 -1.3446 -0.1166 -1.8895
 2112TIP3   OH227750   2.605   6.024   2.289  0.1258 -0.2467 -0.3358
 2112TIP3    H127751   2.678   6.061   2.337  0.2261 -0.8831  0.0116
 2112TIP3    H227752   2.551   6.100   2.265  0.2445  0.1091  0.4884
 2113TIP3   OH227753   6.074   2.623  15.617 -0.0690  0.0402 -0.0640
 2113TIP3    H127754   6.003   2.559  15.602 -0.7793  0.9849 -0.8710
 2113TIP3    H227755   6.126   2.584  15.686 -1.6286 -0.5045  0.8698
 2114TIP3   OH227756   2.049   6.624  12.765  0.6683  0.3123  0.1448
 2114TIP3    H127757   2.052   6.539  12.722 -0.1803  0.2142  0.2686
 2114TIP3    H227758   1.980   6.672  12.719  0.6646  0.6878  0.5348
 2115TIP3   OH227759   0.910   2.030  14.345  0.1253  0.4570  0.2820
 2115TIP3    H127760   0.869   2.114  14.367 -2.1665 -0.7534  0.8924
 2115TIP3    H227761   0.880   2.011  14.257  0.5574  0.2091  0.1845
 2116TIP3   OH227762   6.652   0.847  16.249 -0.0808 -0.7168 -0.3898
 2116TIP3    H127763   6.691   0.787  16.312 -0.7611  0.6941  1.4506
 2116TIP3    H227764   6.725   0.872  16.192  1.1222 -0.2060  1.3101
 2117TIP3   OH227765   0.775   0.022   5.298 -0.3194  0.6210  0.2356
 2117TIP3    H127766   0.772  -0.062   5.252  2.3466  0.5119  0.0978
 2117TIP3    H227767   0.821   0.081   5.238  0.7485  1.2392  1.6118
 2118TIP3   OH227768   6.480   3.277  13.480  0.3669 -0.1533  0.2484
 2118TIP3    H127769   6.532   3.219  13.424 -1.8859 -0.2592 -1.8931
 2118TIP3    H227770   6.485   3.237  13.567  2.7213 -0.8505 -0.1260
 2119TIP3   OH227771   0.385   6.416   1.672  0.6156  0.7453 -0.0456
 2119TIP3    H127772   0.342   6.407   1.587  0.6421  1.6034 -0.1547
 2119TIP3    H227773   0.315   6.400   1.736  0.9555 -1.7245 -0.1764
 2120TIP3   OH227774   3.106   0.783   5.819 -0.0663 -0.3273  0.0789
 2120TIP3    H127775   3.113   0.865   5.868  1.6230 -1.4758  1.9029
 2120TIP3    H227776   3.194   0.766   5.786  0.0598 -2.1872  1.1814
 2121TIP3   OH227777   2.641   3.014   2.303 -0.2318 -0.3734  0.5182
 2121TIP3    H127778   2.552   2.979   2.293  0.9593 -2.8901 -3.1231
 2121TIP3    H227779   2.687   2.947   2.354  0.3637 -0.7006 -0.4388
 2122TIP3   OH227780   2.485   5.797   2.402 -0.4950  0.4651  0.5008
 2122TIP3    H127781   2.524   5.865   2.347  0.2400 -1.0350 -0.8845
 2122TIP3    H227782   2.560   5.753   2.442 -0.7183 -1.7337 -1.3349
 2123TIP3   OH227783   2.776   3.674  10.636 -0.1872  0.4145  0.5163
 2123TIP3    H127784   2.755   3.768  10.640  2.7283  1.2515 -0.7913
 2123TIP3    H227785   2.695   3.633  10.605 -1.0407  2.7416 -0.6028
 2124TIP3   OH227786   3.230   0.239   2.829 -0.2899  0.6676  0.2338
 2124TIP3    H127787   3.198   0.233   2.739  1.7210 -0.6522 -0.4867
 2124TIP3    H227788   3.186   0.167   2.875 -1.0974  1.1585  0.2371
 2125TIP3   OH227789   5.760   5.844  16.842  0.1608  0.1678 -0.5538
 2125TIP3    H127790   5.795   5.881  16.761  0.4959 -2.8717 -1.9488
 2125TIP3    H227791   5.829   5.785  16.873 -1.0101 -0.7061  0.4745
 2126TIP3   OH227792   5.882   2.677   0.697  0.1498 -0.6606 -0.0023
 2126TIP3    H127793   5.790   2.700   0.713 -0.0098 -1.1812 -0.1627
 2126TIP3    H227794   5.931   2.756   0.722 -0.4956  0.3893 -1.8932
 2127TIP3   OH227795   3.778   1.093   0.570 -0.0477 -0.1426 -0.3801
 2127TIP3    H127796   3.871   1.103   0.550  0.4782 -2.3407  0.6931
 2127TIP3    H227797   3.735   1.099   0.484  1.4327 -2.3019 -1.3577
 2128TIP3   OH227798   6.483   2.779   6.598 -0.4451 -0.4345 -0.7792
 2128TIP3    H127799   6.528   2.734   6.526  2.1608 -0.7460  0.9100
 2128TIP3    H227800   6.479   2.871   6.570  1.7107 -0.3125 -0.8410
 2129TIP3   OH227801   1.680   1.840   2.428  0.0364 -0.0386  0.1267
 2129TIP3    H127802   1.585   1.842   2.422 -0.0665 -0.3647  1.3689
 2129TIP3    H227803   1.699   1.762   2.480  1.0579 -0.6907 -1.1304
 2130TIP3   OH227804   4.163   6.758  10.361  0.1843 -0.1414  0.3618
 2130TIP3    H127805   4.155   6.720  10.273  0.7299 -2.1087  1.1031
 2130TIP3    H227806   4.077   6.796  10.379 -0.4454 -1.1725 -0.3953
 2131TIP3   OH227807   3.463   6.053  16.033 -0.2943  0.5622  0.0652
 2131TIP3    H127808   3.421   6.032  16.116  0.4321 -0.0796  0.2886
 2131TIP3    H227809   3.490   6.144  16.041  1.9904 -0.1494  1.5705
 2132TIP3   OH227810   5.494   4.642   4.938 -0.1351 -0.0707  0.0859
 2132TIP3    H127811   5.497   4.733   4.910 -0.6417 -0.1242 -0.1489
 2132TIP3    H227812   5.574   4.630   4.988  0.1500  0.3805 -0.2548
 2133TIP3   OH227813   2.903   0.392  11.396 -0.1031 -0.1984 -0.7035
 2133TIP3    H127814   2.921   0.486  11.391 -1.2998  0.3089  2.2493
 2133TIP3    H227815   2.815   0.382  11.360  0.2423 -0.3163 -1.5433
 2134TIP3   OH227816   3.497   0.704  12.024 -0.3343  0.2689  0.6364
 2134TIP3    H127817   3.416   0.755  12.026 -1.6406 -1.5678 -0.7488
 2134TIP3    H227818   3.490   0.652  11.944  0.9362 -1.9590  1.8677
 2135TIP3   OH227819   0.254   3.416   2.566  0.1082  0.0724  0.3082
 2135TIP3    H127820   0.199   3.349   2.525  0.7120  0.0004 -0.3949
 2135TIP3    H227821   0.341   3.401   2.530  0.2614  1.2141  0.1711
 2136TIP3   OH227822   5.240   0.053   3.228  0.6075 -0.3019  0.4467
 2136TIP3    H127823   5.214  -0.038   3.240 -0.5616  0.0069  0.3875
 2136TIP3    H227824   5.253   0.062   3.133  0.0967 -0.2566  0.3775
 2137TIP3   OH227825   0.495   2.001  11.227 -0.9631 -0.3198  0.3466
 2137TIP3    H127826   0.512   1.914  11.191 -2.3461  0.1877 -1.7321
 2137TIP3    H227827   0.444   1.985  11.307  1.7944 -1.4630  2.0179
 2138TIP3   OH227828   4.775   1.543   3.594  0.2680  0.2252  0.1552
 2138TIP3    H127829   4.740   1.455   3.608  0.9835 -0.3535 -1.3300
 2138TIP3    H227830   4.870   1.530   3.590  0.4463  1.2198  0.8416
 2139TIP3   OH227831   1.922   5.451   4.973 -0.2745  0.5869 -0.0816
 2139TIP3    H127832   1.996   5.512   4.965 -1.7747  2.1924 -3.1766
 2139TIP3    H227833   1.873   5.483   5.049  1.1461  0.6376  0.8540
 2140TIP3   OH227834   2.553   0.329  13.339 -0.5393 -0.4444  0.1093
 2140TIP3    H127835   2.475   0.272  13.345 -0.1149 -1.1419 -0.7159
 2140TIP3    H227836   2.616   0.277  13.289 -0.0456  0.6711 -0.4608
 2141TIP3   OH227837   4.572   2.791   3.996  0.3934  0.7145 -0.1778
 2141TIP3    H127838   4.565   2.871   4.049 -2.3518  0.0419  0.6234
 2141TIP3    H227839   4.526   2.812   3.915 -0.3223 -0.0216  0.0253
 2142TIP3   OH227840   1.952   5.058   0.815  0.2972 -0.1348 -0.0864
 2142TIP3    H127841   1.875   5.057   0.873  1.2332 -2.6938  1.2707
 2142TIP3    H227842   1.966   5.151   0.796 -2.9340  0.4599 -0.2068
 2143TIP3   OH227843   3.829   2.400  13.853  0.7791 -0.3973 -0.0574
 2143TIP3    H127844   3.915   2.359  13.863  1.1969  0.7939  1.5188
 2143TIP3    H227845   3.845   2.476  13.797  1.2250  1.0956  2.0204
 2144TIP3   OH227846   5.173   2.351   3.662 -0.2757 -0.3648 -0.0049
 2144TIP3    H127847   5.171   2.415   3.591 -2.3877 -1.0258 -0.6024
 2144TIP3    H227848   5.089   2.306   3.657  0.1025 -1.4355  2.0231
 2145TIP3   OH227849   4.288   0.331  13.594 -0.6981 -0.1904 -0.1339
 2145TIP3    H127850   4.374   0.295  13.616 -0.6690 -0.7792 -1.1488
 2145TIP3    H227851   4.291   0.421  13.625 -0.0316 -0.4621  0.6161
 2146TIP3   OH227852   4.139   6.758   2.295  0.3363  0.0047  0.1141
 2146TIP3    H127853   4.104   6.731   2.210 -0.8940  0.6951  0.3818
 2146TIP3    H227854   4.098   6.698   2.358  1.1957 -0.4643  0.2565
 2147TIP3   OH227855   3.077   0.916  15.749 -0.2373  0.4900  0.4928
 2147TIP3    H127856   3.073   0.985  15.683  1.8918 -0.5926 -0.9143
 2147TIP3    H227857   3.063   0.835  15.699  3.3868 -0.5367  0.8470
 2148TIP3   OH227858   3.036   4.821   3.705  0.5360 -0.2120  0.1399
 2148TIP3    H127859   3.108   4.800   3.644  0.2016  2.6780 -1.3934
 2148TIP3    H227860   3.079   4.864   3.779  0.6889 -1.6500  0.9270
 2149TIP3   OH227861   2.448   5.723  16.691  0.7280 -0.5657 -0.3023
 2149TIP3    H127862   2.369   5.776  16.683  0.8120 -0.2685  0.7068
 2149TIP3    H227863   2.489   5.753  16.772  2.6190  0.2717 -1.4966
 2150TIP3   OH227864   5.874   2.758  11.862 -0.4803 -1.0077  0.2777
 2150TIP3    H127865   5.794   2.709  11.880 -1.3420  0.6149  1.1878
 2150TIP3    H227866   5.931   2.739  11.937 -0.7280 -0.8084  0.5222
 2151TIP3   OH227867   6.253   1.383  16.456  0.7185 -0.0661 -0.2665
 2151TIP3    H127868   6.340   1.354  16.487  1.8663  2.8985 -0.4424
 2151TIP3    H227869   6.204   1.398  16.537  0.9558 -0.0936 -0.1131
 2152TIP3   OH227870   4.120   3.419   4.457  0.0070 -0.4783 -0.0710
 2152TIP3    H127871   4.123   3.431   4.362 -2.0989 -0.0303 -0.1275
 2152TIP3    H227872   4.068   3.492   4.489  1.4921 -0.0771  1.5689
 2153TIP3   OH227873   1.048   0.871  12.847 -0.2115  0.0737  0.6570
 2153TIP3    H127874   1.114   0.920  12.898 -0.4258 -1.7610  2.8620
 2153TIP3    H227875   1.065   0.779  12.868 -2.3302 -0.5642 -0.1666
 2154TIP3   OH227876   0.093   0.519  14.495 -0.1364 -0.1841  0.4719
 2154TIP3    H127877   0.128   0.536  14.408 -0.2266 -0.6349  0.3451
 2154TIP3    H227878   0.065   0.427  14.493 -0.5646 -0.0685  0.8269
 2155TIP3   OH227879   4.309   4.309  14.660 -0.7268  0.4249 -0.0235
 2155TIP3    H127880   4.316   4.214  14.668 -1.2220  0.2937 -1.0032
 2155TIP3    H227881   4.357   4.343  14.735  0.6896 -0.5771 -0.4320
 2156TIP3   OH227882   6.287   3.128   0.950  0.1236  0.9845  0.2110
 2156TIP3    H127883   6.253   3.115   0.861 -0.9502  0.1996  0.7130
 2156TIP3    H227884   6.373   3.167   0.937  0.6859 -0.6299 -1.2370
 2157TIP3   OH227885   3.868   0.153   2.556 -0.2262 -0.6139  0.2784
 2157TIP3    H127886   3.931   0.176   2.487  0.0039  0.1733  0.7453
 2157TIP3    H227887   3.907   0.076   2.598 -0.0153 -0.6612  0.0051
 2158TIP3   OH227888   4.452   3.826   3.658  0.0881 -0.0980  0.3722
 2158TIP3    H127889   4.462   3.827   3.754 -1.2400 -0.7113  0.5382
 2158TIP3    H227890   4.511   3.757   3.629  1.2288  0.7302  0.6299
 2159TIP3   OH227891   4.879   5.054   2.511  0.8977  0.1631 -0.1806
 2159TIP3    H127892   4.968   5.087   2.493  0.4039  1.7643  0.1230
 2159TIP3    H227893   4.824   5.102   2.449  0.0223  0.5499  0.8848
 2160TIP3   OH227894   3.229   3.188   5.772 -0.1354  0.3092  0.3786
 2160TIP3    H127895   3.251   3.226   5.856  1.8267  1.0575 -0.4187
 2160TIP3    H227896   3.298   3.218   5.713  0.0469 -2.3357 -0.9033
 2161TIP3   OH227897   2.070   2.998   2.651 -0.5060 -0.0441 -0.3477
 2161TIP3    H127898   2.098   3.086   2.623  1.6589 -0.3136  0.7067
 2161TIP3    H227899   2.133   2.939   2.610  0.2185 -0.7691  1.6739
 2162TIP3   OH227900   1.701   0.481  14.058  0.5215  0.1253 -0.6807
 2162TIP3    H127901   1.711   0.413  13.991  2.8094  0.9623 -1.2819
 2162TIP3    H227902   1.729   0.562  14.014 -1.8537  1.4895  0.0879
 2163TIP3   OH227903   3.733   0.426  16.136  0.1255  0.1052  0.1048
 2163TIP3    H127904   3.696   0.345  16.100  1.6505 -0.2311 -0.7948
 2163TIP3    H227905   3.667   0.492  16.120 -1.3984 -1.0285  1.3417
 2164TIP3   OH227906   3.726   5.820  15.271  0.3703  0.3565  0.0478
 2164TIP3    H127907   3.648   5.769  15.292  1.0352 -0.6828  0.1067
 2164TIP3    H227908   3.799   5.759  15.286  1.2122  1.3931  0.3077
 2165TIP3   OH227909   2.532   4.192  13.385 -0.2109  0.0842  0.4287
 2165TIP3    H127910   2.444   4.228  13.374 -0.4320 -0.7478 -0.7193
 2165TIP3    H227911   2.532   4.112  13.332  1.8477  1.0794 -1.2039
 2166TIP3   OH227912   3.813   4.058  12.549  0.1888 -0.3163 -0.2134
 2166TIP3    H127913   3.838   4.076  12.639 -0.2065 -0.6734 -0.0251
 2166TIP3    H227914   3.831   3.964  12.538  1.1064 -0.0794 -0.8002
 2167TIP3   OH227915   6.353   0.522  15.636  0.6956  0.2053  0.1058
 2167TIP3    H127916   6.435   0.564  15.611 -0.5706  3.2586  0.6095
 2167TIP3    H227917   6.289   0.555  15.572 -0.2823 -1.5595  0.1228
 2168TIP3   OH227918   6.546   1.361   2.306  0.3272  0.5490 -0.5120
 2168TIP3    H127919   6.568   1.425   2.374  2.0370 -0.2767 -0.2218
 2168TIP3    H227920   6.624   1.306   2.299 -1.5132 -2.3874  0.2304
 2169TIP3   OH227921   4.486   5.896  14.449 -0.1637 -0.1347  0.1253
 2169TIP3    H127922   4.393   5.890  14.428 -0.8264  1.7392  2.1011
 2169TIP3    H227923   4.506   5.990  14.443  2.4214 -0.7007 -3.1554
 2170TIP3   OH227924   0.075   6.712  11.617 -0.0729 -0.1182  0.4137
 2170TIP3    H127925   0.122   6.644  11.665  1.1480  1.0681  0.9461
 2170TIP3    H227926  -0.010   6.673  11.598  0.2744 -1.4691  1.4878
 2171TIP3   OH227927   0.608   6.407   0.251  0.4594  0.1918  0.0334
 2171TIP3    H127928   0.625   6.475   0.187  0.6022 -0.7055 -0.9143
 2171TIP3    H227929   0.690   6.358   0.258 -0.2074 -1.1379 -0.8751
 2172TIP3   OH227930   1.916   6.772  11.505 -0.5161  0.0216 -0.0746
 2172TIP3    H127931   1.962   6.793  11.424 -1.3401 -2.9295 -1.4483
 2172TIP3    H227932   1.824   6.792  11.487 -0.5335  0.6993  0.6861
 2173TIP3   OH227933   6.039   4.272  11.372 -0.6393 -0.1237  0.0234
 2173TIP3    H127934   6.086   4.355  11.366  1.2377 -1.2310 -1.1806
 2173TIP3    H227935   5.976   4.275  11.299 -1.3693  0.6684  0.6568
 2174TIP3   OH227936   1.777   4.711   3.286 -0.1585 -0.3589  0.0621
 2174TIP3    H127937   1.728   4.781   3.243 -0.6116  0.3583  1.6793
 2174TIP3    H227938   1.866   4.745   3.294  0.0411 -0.6774 -0.6681
 2175TIP3   OH227939   5.345   1.974   2.451  0.8226  0.4923  0.0272
 2175TIP3    H127940   5.366   2.067   2.446 -0.1964  0.6769 -1.5238
 2175TIP3    H227941   5.261   1.966   2.406  1.4077 -1.3414 -0.8266
 2176TIP3   OH227942   0.421   5.123   1.590  0.4505 -0.6209  0.1870
 2176TIP3    H127943   0.392   5.204   1.633  1.9792  0.8361 -1.3624
 2176TIP3    H227944   0.365   5.116   1.512 -1.4473 -2.5626  1.5896
 2177TIP3   OH227945   0.963   4.315   0.154  0.1867 -0.2819 -0.0913
 2177TIP3    H127946   1.016   4.329   0.075  3.2074 -0.6736  1.7133
 2177TIP3    H227947   1.027   4.300   0.223 -2.3762 -1.3670  2.2088
 2178TIP3   OH227948   0.496   2.178   5.516  0.2501  0.5492 -0.4311
 2178TIP3    H127949   0.491   2.167   5.611  1.7297  0.2661 -0.3667
 2178TIP3    H227950   0.463   2.096   5.481  0.5939  0.2726 -0.1295
 2179TIP3   OH227951   0.106   3.518  15.954 -0.3906  0.6156 -0.0441
 2179TIP3    H127952   0.077   3.593  16.006 -0.6473 -0.8307  2.0233
 2179TIP3    H227953   0.066   3.442  15.996  1.8968 -0.9453 -0.4484
 2180TIP3   OH227954   1.695   3.886   5.138 -0.2458  0.4533  0.4711
 2180TIP3    H127955   1.708   3.976   5.108 -0.7374  0.8487  1.4058
 2180TIP3    H227956   1.605   3.865   5.113 -0.2877  0.3958  0.6639
 2181TIP3   OH227957   4.790   3.099   2.625  0.5557 -0.2641  0.4173
 2181TIP3    H127958   4.763   3.049   2.548  0.9796 -0.6172  0.4985
 2181TIP3    H227959   4.885   3.096   2.623  0.5716 -1.6075  1.8238
 2182TIP3   OH227960   0.758   3.545  11.598 -0.1126 -0.3559  0.2246
 2182TIP3    H127961   0.754   3.633  11.561 -0.5386 -1.0946 -1.5484
 2182TIP3    H227962   0.851   3.521  11.592 -0.3163 -0.8478 -1.3533
 2183TIP3   OH227963   3.027   3.482  15.412  0.1896  0.4208 -0.3929
 2183TIP3    H127964   3.008   3.573  15.434 -0.6809  0.1578 -0.0389
 2183TIP3    H227965   3.040   3.439  15.496  3.4107  0.7730 -0.5941
 2184TIP3   OH227966   2.602   2.469   6.098  0.5699 -0.9524  0.4304
 2184TIP3    H127967   2.616   2.511   6.013 -0.6930  0.6490  0.9526
 2184TIP3    H227968   2.595   2.541   6.160 -1.2748 -1.9168  1.4518
 2185TIP3   OH227969   5.044   6.457   4.780 -0.3443  1.0242  0.4730
 2185TIP3    H127970   5.041   6.386   4.844 -3.7202  0.1879 -0.4232
 2185TIP3    H227971   5.062   6.414   4.696  0.8273  1.6793  0.3769
 2186TIP3   OH227972   4.404   2.026   3.583  0.2708  0.0188  0.5348
 2186TIP3    H127973   4.369   2.061   3.665 -1.7313  0.1398 -0.3059
 2186TIP3    H227974   4.350   2.066   3.515  1.3520 -0.7041 -0.8003
 2187TIP3   OH227975   2.482   1.588  12.120 -0.4990  0.2601  0.0023
 2187TIP3    H127976   2.564   1.541  12.131 -0.1600  0.5267 -1.1570
 2187TIP3    H227977   2.429   1.562  12.195  0.6043  0.0186  0.7296
 2188TIP3   OH227978   0.305   0.075  16.747 -0.0556 -0.3657  0.2126
 2188TIP3    H127979   0.360   0.045  16.675 -1.2770  0.9577 -1.3401
 2188TIP3    H227980   0.341   0.031  16.824  1.5520 -1.5094 -1.1146
 2189TIP3   OH227981   2.534   4.444   3.373 -0.2002  0.1977  0.8050
 2189TIP3    H127982   2.507   4.398   3.452  1.5243 -1.1779  0.6515
 2189TIP3    H227983   2.474   4.413   3.305  1.0595 -2.0941  0.6520
 2190TIP3   OH227984   3.392   3.718  11.753 -0.6940 -0.0670 -0.4202
 2190TIP3    H127985   3.460   3.777  11.722 -0.2382 -1.1453 -1.5791
 2190TIP3    H227986   3.427   3.679  11.833 -1.1666  1.4753  0.5900
 2191TIP3   OH227987   5.829   5.686  15.526  0.2787 -0.3697 -0.1201
 2191TIP3    H127988   5.781   5.626  15.469 -0.4131  0.7334 -0.7345
 2191TIP3    H227989   5.918   5.653  15.526  0.3558 -0.2749 -2.0504
 2192TIP3   OH227990   1.766   6.554  13.933 -0.3022 -0.1988 -0.4386
 2192TIP3    H127991   1.817   6.504  13.997  2.5276  1.6968 -1.0033
 2192TIP3    H227992   1.732   6.489  13.872  3.9620 -1.5685 -1.6879
 2193TIP3   OH227993   3.494   5.286  14.400 -0.3351 -0.2878  0.3386
 2193TIP3    H127994   3.519   5.245  14.483  1.5076 -1.4259 -0.7345
 2193TIP3    H227995   3.529   5.375  14.406  1.5462 -0.9811  0.0156
 2194TIP3   OH227996   3.335   4.442  13.728  0.2608  0.2318 -0.9189
 2194TIP3    H127997   3.411   4.385  13.743  0.1933 -0.0076 -1.4632
 2194TIP3    H227998   3.261   4.390  13.759  0.2120  0.0600 -1.3124
 2195TIP3   OH227999   5.738   6.231   2.459  0.4870 -0.0132  0.3103
 2195TIP3    H128000   5.774   6.187   2.536 -0.7797 -0.3714  0.7214
 2195TIP3    H228001   5.724   6.161   2.396 -0.2648 -0.0144  0.4687
 2196TIP3   OH228002   5.706   2.390   2.217  0.7148 -0.0315 -0.2654
 2196TIP3    H128003   5.619   2.351   2.222  0.3006  0.7223 -1.2488
 2196TIP3    H228004   5.761   2.335   2.273 -0.1881 -1.0643 -0.3773
 2197TIP3   OH228005   0.290   0.394  13.093  0.2545  0.0987 -0.1256
 2197TIP3    H128006   0.334   0.346  13.163  0.1076  0.4507  0.2108
 2197TIP3    H228007   0.215   0.434  13.136  0.4609  0.7514 -0.3740
 2198TIP3   OH228008   4.470   3.392   1.076 -0.0625  0.4818 -0.0321
 2198TIP3    H128009   4.502   3.367   1.162  0.3216  0.2990 -0.2296
 2198TIP3    H228010   4.497   3.483   1.066  1.9802 -0.1794 -0.9312
 2199TIP3   OH228011   0.911   2.790  13.944  0.2934  0.2074 -0.4672
 2199TIP3    H128012   0.971   2.825  14.010  0.5688 -1.4989  0.2223
 2199TIP3    H228013   0.866   2.718  13.987 -1.1449  0.4515 -1.4715
 2200TIP3   OH228014   0.468   3.143   2.683  0.6898 -0.3231 -0.0222
 2200TIP3    H128015   0.555   3.182   2.681 -0.1399  1.7075  0.2743
 2200TIP3    H228016   0.456   3.114   2.773  0.7785  0.0846  0.1210
 2201TIP3   OH228017   3.826   5.243  15.127  0.9360  1.0465 -0.0148
 2201TIP3    H128018   3.755   5.302  15.152  0.7236  0.0179  2.0013
 2201TIP3    H228019   3.797   5.157  15.156  2.4699  0.4035 -0.3012
 2202TIP3   OH228020   1.197   3.212   2.274  0.0225  0.0351  0.6603
 2202TIP3    H128021   1.278   3.162   2.281 -0.2948 -0.9804 -1.8098
 2202TIP3    H228022   1.209   3.285   2.334  2.1989 -0.8134  1.3641
 2203TIP3   OH228023   1.756   6.704  15.079 -0.3229  0.0135  0.2144
 2203TIP3    H128024   1.719   6.719  14.992  1.0792  2.1542 -0.0804
 2203TIP3    H228025   1.808   6.624  15.070 -1.5741 -0.7461 -0.4272
 2204TIP3   OH228026   0.673   6.227   5.666 -0.2657  0.0760 -0.1329
 2204TIP3    H128027   0.699   6.202   5.755  2.8945 -2.5481 -1.6118
 2204TIP3    H228028   0.599   6.170   5.646 -0.1599 -0.2435  0.3761
 2205TIP3   OH228029   5.601   2.987  13.535 -0.2728 -0.4022 -0.3019
 2205TIP3    H128030   5.582   3.054  13.470  1.0367  0.0743 -0.2413
 2205TIP3    H228031   5.553   2.910  13.506 -0.5239  0.1016 -1.2647
 2206TIP3   OH228032   2.165   1.586   4.670  0.4880  0.4009  0.3116
 2206TIP3    H128033   2.113   1.618   4.744 -3.2205 -1.1584 -1.3931
 2206TIP3    H228034   2.234   1.533   4.711 -0.7229  0.5540  2.7139
 2207TIP3   OH228035   6.587   1.106   0.083  0.8202  0.0238 -0.1280
 2207TIP3    H128036   6.510   1.122   0.137 -1.3566 -1.7569 -2.4393
 2207TIP3    H228037   6.622   1.023   0.114  0.3040 -0.3927 -0.6481
 2208TIP3   OH228038   5.609   6.732  12.031  0.4063  0.5730 -0.3959
 2208TIP3    H128039   5.612   6.773  12.117 -0.1852 -1.0207  0.4320
 2208TIP3    H228040   5.701   6.722  12.006  0.5870  0.9700  0.0955
 2209TIP3   OH228041   3.489   5.708  16.936 -0.3677 -0.5369  0.1749
 2209TIP3    H128042   3.476   5.650  16.861  1.7761 -0.6208 -0.1986
 2209TIP3    H228043   3.531   5.652  17.002 -0.0966  0.0949  0.5516
 2210TIP3   OH228044   3.780   5.962  12.141  0.2726  0.3752  0.0543
 2210TIP3    H128045   3.743   6.050  12.134  1.6252  0.9600 -0.1097
 2210TIP3    H228046   3.755   5.919  12.059  0.5510  0.9902 -0.3566
 2211TIP3   OH228047   6.213   1.585  15.955  0.2688  0.2045  0.0432
 2211TIP3    H128048   6.176   1.538  16.030  0.8188  1.3840  1.0918
 2211TIP3    H228049   6.136   1.614  15.905 -0.1312  0.0599  0.5602
 2212TIP3   OH228050   3.325   0.962  11.395 -0.3151 -0.3158 -0.2980
 2212TIP3    H128051   3.310   0.890  11.457  0.3081 -0.1255  0.0912
 2212TIP3    H228052   3.360   0.918  11.317 -0.1435 -0.4609 -0.1423
 2213TIP3   OH228053   3.362   0.211   0.262 -0.2083  0.4573 -0.4901
 2213TIP3    H128054   3.374   0.144   0.194  0.6804  1.6285 -1.5412
 2213TIP3    H228055   3.438   0.202   0.319 -0.6605 -0.1522  0.0191
 2214TIP3   OH228056   2.302   6.382   5.807 -0.6345 -0.3192  0.3340
 2214TIP3    H128057   2.334   6.364   5.896  0.4642 -0.5735 -0.0913
 2214TIP3    H228058   2.211   6.353   5.808 -0.4825 -0.8079  1.2347
 2215TIP3   OH228059   3.388   3.619  16.388  0.0602 -0.5304  0.1701
 2215TIP3    H128060   3.337   3.575  16.319 -0.0661  1.6467 -1.2257
 2215TIP3    H228061   3.323   3.646  16.453 -0.1304 -0.6100  0.0141
 2216TIP3   OH228062   6.375   0.962   6.500 -0.6235 -0.1148 -0.4254
 2216TIP3    H128063   6.448   1.014   6.531 -1.0986 -0.0363  0.6242
 2216TIP3    H228064   6.369   0.889   6.562 -0.8113 -0.6716 -1.0808
 2217TIP3   OH228065   0.198   2.616  13.090  0.4098  0.2879  0.3683
 2217TIP3    H128066   0.242   2.701  13.092  1.8994 -0.4362  0.3440
 2217TIP3    H228067   0.261   2.556  13.131 -0.9201 -0.6643  1.0758
 2218TIP3   OH228068   3.473   1.395  16.296 -0.1027  0.2225 -0.7086
 2218TIP3    H128069   3.456   1.373  16.204 -1.0333 -2.1733 -0.0570
 2218TIP3    H228070   3.394   1.366  16.341  1.6784 -1.8910  1.2645
 2219TIP3   OH228071   0.143   3.108   4.098  0.2645 -0.4172 -0.1590
 2219TIP3    H128072   0.073   3.063   4.051  0.2184 -1.9388  1.2613
 2219TIP3    H228073   0.137   3.200   4.071 -1.4560 -0.7669 -1.0183
 2220TIP3   OH228074   5.358   0.132   0.733  0.2007  0.7703 -0.0042
 2220TIP3    H128075   5.325   0.129   0.823 -0.7208  1.3973 -0.3204
 2220TIP3    H228076   5.282   0.152   0.680  0.6346 -0.1342 -0.9957
 2221TIP3   OH228077   1.724   3.487  16.000  0.1238 -0.0021  0.7472
 2221TIP3    H128078   1.751   3.436  16.076  1.6314  0.0136  0.2669
 2221TIP3    H228079   1.693   3.422  15.937  4.2738 -0.8194 -0.8189
 2222TIP3   OH228080   1.716   6.203   4.870 -0.5541 -0.7286 -0.0005
 2222TIP3    H128081   1.705   6.276   4.931  2.5762  2.0343 -2.3717
 2222TIP3    H228082   1.778   6.144   4.915 -0.7816 -0.4159  0.7425
 2223TIP3   OH228083   2.713   6.649  15.951  0.0614  1.0099  0.1223
 2223TIP3    H128084   2.631   6.697  15.959 -0.7407 -0.4643  1.4661
 2223TIP3    H228085   2.694   6.581  15.886  0.5883  1.3760 -0.4137
 2224TIP3   OH228086   6.023   2.998  11.266  0.6690 -0.5673 -0.0307
 2224TIP3    H128087   6.009   2.939  11.192  0.0021 -1.8605  1.0721
 2224TIP3    H228088   5.939   3.043  11.277  0.1247 -1.7800  1.0734
 2225TIP3   OH228089   6.659   4.273  11.570  0.3684 -0.6347 -0.5649
 2225TIP3    H128090   6.751   4.285  11.547  0.4506 -2.3686 -1.2778
 2225TIP3    H228091   6.662   4.229  11.655  0.2606 -2.2632 -1.3785
 2226TIP3   OH228092   5.306   6.107  10.805 -0.6059 -0.2569  0.9108
 2226TIP3    H128093   5.216   6.090  10.831 -1.0436 -1.0182 -0.9354
 2226TIP3    H228094   5.305   6.102  10.709  1.2385  0.5252  0.8017
 2227TIP3   OH228095   0.458   3.377   1.009 -0.1558  0.0074 -0.0683
 2227TIP3    H128096   0.482   3.383   0.916  0.6263 -0.1443  0.1184
 2227TIP3    H228097   0.540   3.390   1.056 -1.0087  3.6064  0.7244
 2228TIP3   OH228098   4.192   6.129   3.455 -0.6419  0.8734 -0.0800
 2228TIP3    H128099   4.203   6.034   3.463 -1.4381  0.7507 -0.2868
 2228TIP3    H228100   4.126   6.150   3.522  1.5491  1.7291  1.9360
 2229TIP3   OH228101   3.420   3.487  15.914 -0.7701  0.3699  0.0246
 2229TIP3    H128102   3.365   3.424  15.961 -1.1036 -0.6686 -1.6721
 2229TIP3    H228103   3.501   3.490  15.965 -1.6476  0.4301  1.4726
 2230TIP3   OH228104   6.261   6.403   1.845 -0.3728 -0.1642 -0.0725
 2230TIP3    H128105   6.356   6.392   1.847 -0.4055 -0.3410  0.8155
 2230TIP3    H228106   6.229   6.330   1.792 -0.0708 -0.5322  0.2462
 2231TIP3   OH228107   2.941   0.016   5.910  0.0841  0.0546  0.1159
 2231TIP3    H128108   2.966   0.036   6.000 -1.1675  0.3988  0.4142
 2231TIP3    H228109   2.948   0.099   5.864  1.7634 -0.3321 -0.3952
 2232TIP3   OH228110   3.695   5.522   1.243 -0.5073  0.4435  0.4082
 2232TIP3    H128111   3.772   5.494   1.193  0.3510  1.6050  1.0150
 2232TIP3    H228112   3.698   5.471   1.323 -1.5040 -0.9321 -0.3976
 2233TIP3   OH228113   3.440   1.076  14.608  0.3311  0.7570 -0.6762
 2233TIP3    H128114   3.437   1.097  14.514  0.3412  0.3236 -0.7759
 2233TIP3    H228115   3.478   0.988  14.611 -0.9084  0.2077 -0.3582
 2234TIP3   OH228116   2.845   1.098  12.487  0.2727  0.7750 -0.5697
 2234TIP3    H128117   2.792   1.021  12.507  3.0141 -0.8946  1.0401
 2234TIP3    H228118   2.869   1.088  12.395  0.3935 -0.1793 -0.4400
 2235TIP3   OH228119   3.496   2.683   4.729  0.8540  0.2069 -0.7904
 2235TIP3    H128120   3.470   2.596   4.701  0.3893  0.2392 -0.4859
 2235TIP3    H228121   3.499   2.678   4.825 -0.8229  0.9500 -0.6638
 2236TIP3   OH228122   1.495   4.678   5.466  0.1919  0.4462 -0.9888
 2236TIP3    H128123   1.476   4.735   5.541 -1.1578  1.5177 -2.0990
 2236TIP3    H228124   1.502   4.738   5.392 -0.1724 -0.7358 -2.0075
 2237TIP3   OH228125   1.061   3.744   3.778 -0.3816  0.5547  0.0168
 2237TIP3    H128126   1.138   3.690   3.795 -1.0247 -1.1854 -2.1784
 2237TIP3    H228127   0.993   3.706   3.834 -0.0813  1.0841  0.7613
 2238TIP3   OH228128   2.493   5.884   4.129 -0.0897 -0.2268  0.1553
 2238TIP3    H128129   2.505   5.951   4.197  1.7829  0.0146 -0.3608
 2238TIP3    H228130   2.459   5.931   4.054  2.0367  0.3677 -0.4909
 2239TIP3   OH228131   6.313   0.059   5.167  0.0290 -0.4542  0.1939
 2239TIP3    H128132   6.235   0.004   5.169 -0.1362 -0.4235 -2.6308
 2239TIP3    H228133   6.283   0.144   5.199 -0.4668 -1.0715  1.4548
 2240TIP3   OH228134   6.182   4.601   5.478  0.1780 -0.1380  0.2518
 2240TIP3    H128135   6.104   4.567   5.434 -0.6438 -1.6970  2.7001
 2240TIP3    H228136   6.254   4.581   5.418 -1.0792 -0.1390 -1.3379
 2241TIP3   OH228137   5.188   2.301   1.976 -0.5890 -0.7627 -0.4197
 2241TIP3    H128138   5.092   2.301   1.968 -0.7454 -0.2084  1.1635
 2241TIP3    H228139   5.210   2.391   1.996  0.3990 -0.6749 -1.7420
 2242TIP3   OH228140   3.471   2.732   3.578  0.4403 -0.0496 -0.8042
 2242TIP3    H128141   3.458   2.744   3.484  1.2483  2.6267 -0.6406
 2242TIP3    H228142   3.549   2.676   3.584  1.3313  1.0474 -1.7547
 2243TIP3   OH228143   0.955   1.004   4.507  0.4095 -0.8661  0.1471
 2243TIP3    H128144   0.886   0.963   4.455 -0.3714  0.3073  0.2152
 2243TIP3    H228145   1.020   1.033   4.443  0.4256 -1.2127  0.0069
 2244TIP3   OH228146   3.599   4.732  13.583  0.1763  0.2481  0.0189
 2244TIP3    H128147   3.691   4.743  13.608  0.2414 -0.6143  0.2032
 2244TIP3    H228148   3.550   4.762  13.659  0.3604 -1.4164  0.8486
 2245TIP3   OH228149   0.447   6.648   2.647  0.3637  0.1324  0.3427
 2245TIP3    H128150   0.468   6.684   2.733  2.3445  0.1765 -0.1011
 2245TIP3    H228151   0.391   6.714   2.607  2.6064  2.0805  0.1708
 2246TIP3   OH228152   6.614   0.435  13.974 -0.3521  0.4934 -0.6756
 2246TIP3    H128153   6.554   0.395  14.037  0.5903 -0.8091 -0.5846
 2246TIP3    H228154   6.688   0.376  13.970 -0.2662  0.6715 -2.8340
 2247TIP3   OH228155   4.461   2.176   3.216  0.5503  0.3631  0.0649
 2247TIP3    H128156   4.500   2.172   3.128  0.9098 -1.5954  0.2631
 2247TIP3    H228157   4.531   2.145   3.273 -0.0216  0.6603  0.9342
 2248TIP3   OH228158   1.020   6.772   5.499 -0.0968 -0.4440  0.8986
 2248TIP3    H128159   1.064   6.747   5.418 -1.3524 -0.9602  0.3506
 2248TIP3    H228160   0.977   6.855   5.478  0.9680  0.3131  1.5805
 2249TIP3   OH228161   0.731   0.012   3.788 -0.2414 -0.8201  0.0154
 2249TIP3    H128162   0.780  -0.054   3.837 -2.2969 -3.3031 -1.0240
 2249TIP3    H228163   0.645   0.015   3.830 -0.3667  0.8894 -0.2758
 2250TIP3   OH228164   1.368   0.978   3.032  0.4647 -0.5672  0.2622
 2250TIP3    H128165   1.395   0.953   3.120  1.1621 -1.1548 -0.1090
 2250TIP3    H228166   1.444   1.022   2.994 -0.3826  1.2370  0.5207
 2251TIP3   OH228167   2.127   0.390   6.251  0.1479  0.2629  0.0253
 2251TIP3    H128168   2.160   0.461   6.195 -0.3582  0.5061  0.0240
 2251TIP3    H228169   2.205   0.350   6.288  0.7180 -1.5540 -2.7945
 2252TIP3   OH228170   1.135   4.933  12.294  0.1214  0.1025  0.3014
 2252TIP3    H128171   1.066   4.868  12.310  1.0817 -0.6738  1.5445
 2252TIP3    H228172   1.108   4.978  12.214 -1.2211 -0.9724  0.1113
 2253TIP3   OH228173   0.551   6.320   0.763 -0.1235 -0.0581 -0.1546
 2253TIP3    H128174   0.494   6.308   0.839 -1.8844 -2.4772 -1.7508
 2253TIP3    H228175   0.495   6.358   0.696  1.6270  2.9458 -0.1395
 2254TIP3   OH228176   5.686   6.397  15.004  0.0979 -0.3112 -0.0650
 2254TIP3    H128177   5.645   6.390  15.091 -0.3309  1.3985 -0.0838
 2254TIP3    H228178   5.636   6.466  14.960  0.9032 -0.5178 -1.3396
 2255TIP3   OH228179   4.904   3.317  13.687  0.0598 -0.6529 -0.5953
 2255TIP3    H128180   4.818   3.359  13.685  0.2970 -0.1119 -2.9156
 2255TIP3    H228181   4.892   3.236  13.638  1.0573 -0.0924 -1.8269
 2256TIP3   OH228182   5.545   3.180   5.269  0.2492  0.7069  0.1055
 2256TIP3    H128183   5.531   3.273   5.290 -4.1578 -0.0448  1.7362
 2256TIP3    H228184   5.505   3.169   5.183 -1.3411  0.0229  0.8891
 2257TIP3   OH228185   4.049   2.908   3.079 -0.3249  0.0397  0.0044
 2257TIP3    H128186   4.138   2.938   3.099 -0.3008  0.2948 -0.4776
 2257TIP3    H228187   4.018   2.969   3.012 -1.0137  0.1999  0.4620
 2258TIP3   OH228188   2.364   2.288  11.455 -0.2310  0.2306  0.2598
 2258TIP3    H128189   2.316   2.350  11.400  0.5095  0.3416 -0.2871
 2258TIP3    H228190   2.301   2.260  11.521 -1.4154 -0.5252 -1.1298
 2259TIP3   OH228191   4.898   3.365   5.009 -0.1519  0.1832  0.1869
 2259TIP3    H128192   4.936   3.278   5.017  0.1789  0.3259  0.1844
 2259TIP3    H228193   4.967   3.417   4.968 -0.3825  0.4237  0.1006
 2260TIP3   OH228194   4.052   2.300  13.448  0.5518  0.0256 -0.0720
 2260TIP3    H128195   3.979   2.245  13.419  0.7218  1.0783 -2.7810
 2260TIP3    H228196   4.041   2.382  13.399  3.2839  0.3776 -0.2178
 2261TIP3   OH228197   6.594   2.117   5.686 -0.0661  0.0037  0.0935
 2261TIP3    H128198   6.655   2.168   5.739 -1.1445 -0.1117  1.4982
 2261TIP3    H228199   6.510   2.124   5.731 -0.0861 -3.8769  1.0961
 2262TIP3   OH228200   0.168   6.370  14.197 -0.0980 -0.3659 -0.3395
 2262TIP3    H128201   0.175   6.368  14.293 -1.9249  0.1312 -0.1483
 2262TIP3    H228202   0.237   6.429  14.169 -0.8754  1.2275  0.8915
 2263TIP3   OH228203   2.902   3.629   4.098 -0.1895 -0.0573 -0.2758
 2263TIP3    H128204   2.855   3.560   4.144 -0.8061 -0.9864 -2.2032
 2263TIP3    H228205   2.844   3.705   4.103  0.1229  0.1062  1.1437
 2264TIP3   OH228206   1.598   0.578  15.745  0.3847 -0.4657 -0.0021
 2264TIP3    H128207   1.599   0.652  15.684 -0.1351 -0.7222 -0.3290
 2264TIP3    H228208   1.661   0.602  15.813  2.1100 -0.8464 -1.4057
 2265TIP3   OH228209   6.091   1.432  16.673 -0.1839  0.4374 -0.0178
 2265TIP3    H128210   6.014   1.450  16.726  0.4200 -0.3758  1.1782
 2265TIP3    H228211   6.165   1.449  16.731  0.5114 -0.0021 -0.7481
 2266TIP3   OH228212   4.333   0.351   2.080  0.2119 -0.2625  1.0076
 2266TIP3    H128213   4.363   0.337   2.170 -0.3165 -0.3832  1.1707
 2266TIP3    H228214   4.285   0.271   2.058  1.0226 -0.5697  0.3260
 2267TIP3   OH228215   6.639   3.041  10.891  0.0565 -0.2511 -0.3186
 2267TIP3    H128216   6.668   3.117  10.941  1.3948 -1.0092  0.1027
 2267TIP3    H228217   6.589   3.078  10.818  1.1725  1.0612 -0.4480
 2268TIP3   OH228218   2.743   3.638  14.978  0.0917  0.5657 -0.2357
 2268TIP3    H128219   2.708   3.570  14.921 -2.0990  1.2942  0.1406
 2268TIP3    H228220   2.748   3.716  14.922  1.7526  0.3296 -0.4417
 2269TIP3   OH228221   6.494   2.160   4.392 -0.1962 -0.2076  0.0176
 2269TIP3    H128222   6.510   2.066   4.393 -1.4093 -0.5113 -2.1604
 2269TIP3    H228223   6.408   2.169   4.352 -0.9215  1.7803  1.8433
 2270TIP3   OH228224   3.055   1.673   2.565  0.1686 -0.2207 -0.2939
 2270TIP3    H128225   3.023   1.738   2.627  0.3803  0.4212 -0.8417
 2270TIP3    H228226   3.149   1.689   2.560  0.1533 -0.2641 -0.7782
 2271TIP3   OH228227   2.340   3.630  10.911  0.0157  0.5179  0.2868
 2271TIP3    H128228   2.419   3.595  10.870 -0.7222  0.3221 -0.9949
 2271TIP3    H228229   2.370   3.710  10.955  1.2179 -0.3577  1.1344
 2272TIP3   OH228230   6.571   5.108   4.840 -0.0569  0.3475  0.2409
 2272TIP3    H128231   6.657   5.074   4.863 -0.5610  0.3109  2.2975
 2272TIP3    H228232   6.573   5.200   4.866  0.0365  0.9221 -1.6990
 2273TIP3   OH228233   0.372   6.291  13.037 -0.0972  0.1303  0.1136
 2273TIP3    H128234   0.332   6.255  12.958  1.5464 -0.8478 -0.3209
 2273TIP3    H228235   0.426   6.363  13.005  1.9027 -1.3101  0.0514
 2274TIP3   OH228236   0.805   1.261  16.390 -0.3257 -0.3953  0.1455
 2274TIP3    H128237   0.833   1.242  16.479 -0.4108  1.0450  0.5062
 2274TIP3    H228238   0.761   1.181  16.361  1.9392 -1.8260  0.4395
 2275TIP3   OH228239   0.178   1.167   5.834 -0.5432 -0.0886 -0.9061
 2275TIP3    H128240   0.222   1.156   5.919 -1.2677 -1.4327 -0.6841
 2275TIP3    H228241   0.217   1.246   5.798 -1.2152  1.3595  1.3012
 2276TIP3   OH228242   5.261   2.747   0.465  0.3045 -0.4786  0.0778
 2276TIP3    H128243   5.235   2.819   0.407  1.0375  0.4219  0.8171
 2276TIP3    H228244   5.214   2.671   0.433 -0.1875  0.2543 -0.9807
 2277TIP3   OH228245   3.433   2.432   5.764 -0.0580 -0.3007  0.3034
 2277TIP3    H128246   3.424   2.340   5.788  0.0143 -0.4127 -0.0864
 2277TIP3    H228247   3.407   2.480   5.842 -0.2811 -0.6529  0.4498
 2278TIP3   OH228248   0.501   1.603   1.320 -0.0402  0.5050  0.2052
 2278TIP3    H128249   0.490   1.511   1.299 -2.0998  0.2673  1.9707
 2278TIP3    H228250   0.564   1.605   1.392  0.0717  0.4715  0.1068
 2279TIP3   OH228251   2.909   1.833  15.023 -0.1388 -0.6412  0.1035
 2279TIP3    H128252   2.817   1.859  15.022 -0.1892 -0.4084  3.0930
 2279TIP3    H228253   2.956   1.912  15.051  0.7247 -1.3123  0.6132
 2280TIP3   OH228254   3.126   1.094   1.751 -0.3463  0.0482 -0.0777
 2280TIP3    H128255   3.153   1.110   1.661 -1.4960  0.5094 -0.3670
 2280TIP3    H228256   3.205   1.106   1.803 -0.2282  2.6793 -0.7299
 2281TIP3   OH228257   3.527   3.699  12.136  0.0346  0.0057 -0.2472
 2281TIP3    H128258   3.592   3.769  12.144  1.0596 -0.7261 -1.7493
 2281TIP3    H228259   3.447   3.737  12.172  1.5646  0.4544  3.1092
 2282TIP3   OH228260   1.029   3.937   1.782  0.4101 -0.0125  0.0182
 2282TIP3    H128261   1.040   3.926   1.876 -0.5087 -1.3314 -0.0004
 2282TIP3    H228262   1.067   4.024   1.763  1.5050 -0.1487  1.4177
 2283TIP3   OH228263   3.318   4.885  17.126 -0.4770  0.1431  0.4931
 2283TIP3    H128264   3.294   4.793  17.116  1.2159 -0.7299  3.0914
 2283TIP3    H228265   3.236   4.933  17.116 -1.3107 -1.5374 -1.5283
 2284TIP3   OH228266   1.675   3.367   6.664  0.1122 -0.0066  0.6849
 2284TIP3    H128267   1.767   3.394   6.670  0.0674  0.2078  0.4328
 2284TIP3    H228268   1.680   3.275   6.638  0.2540  0.1795  0.0338
 2285TIP3   OH228269   5.659   2.761   6.236  0.1764  0.0851  0.2399
 2285TIP3    H128270   5.704   2.744   6.319 -0.6213  1.8458  1.1104
 2285TIP3    H228271   5.665   2.856   6.226  0.2195 -0.0978 -1.7217
 2286TIP3   OH228272   4.092   0.132  14.211 -0.2956 -0.2626 -0.5198
 2286TIP3    H128273   4.030   0.142  14.138 -1.2384 -2.2998 -0.0574
 2286TIP3    H228274   4.048   0.174  14.285  0.3295  1.1192 -0.8841
 2287TIP3   OH228275   0.704   4.786  10.929  0.0929 -0.1627  0.3529
 2287TIP3    H128276   0.658   4.870  10.938  0.1032 -0.0782 -0.2943
 2287TIP3    H228277   0.709   4.772  10.834  0.7360 -0.5388  0.4378
 2288TIP3   OH228278   2.155   2.087   2.707 -0.0521 -0.4472  0.1552
 2288TIP3    H128279   2.190   2.015   2.655  0.3788 -0.2540  0.1739
 2288TIP3    H228280   2.223   2.154   2.705 -0.1636 -0.3070  0.6982
 2289TIP3   OH228281   2.357   5.958  16.414  0.1254  0.2172 -0.2068
 2289TIP3    H128282   2.285   6.020  16.427 -0.3079  0.0144 -1.4991
 2289TIP3    H228283   2.434   6.013  16.401 -0.2077  0.4917 -1.0685
 2290TIP3   OH228284   3.796   1.596  14.977  0.3149 -0.6293 -0.1066
 2290TIP3    H128285   3.786   1.615  14.884 -0.1339 -0.8558 -0.1114
 2290TIP3    H228286   3.825   1.505  14.979  1.6886 -0.2050 -0.0627
 2291TIP3   OH228287   6.733   0.387   2.239 -0.2544  0.4383 -0.2101
 2291TIP3    H128288   6.791   0.329   2.191  3.3930  2.3086  1.4840
 2291TIP3    H228289   6.730   0.350   2.327  0.8166  1.8427  0.4614
 2292TIP3   OH228290   4.448   4.650  11.717 -0.6555  0.4338  0.0409
 2292TIP3    H128291   4.460   4.556  11.728 -2.7915  0.1695  0.5221
 2292TIP3    H228292   4.477   4.688  11.800 -1.5662 -0.0053  0.5744
 2293TIP3   OH228293   0.139   2.248   2.058  1.0459  0.3686 -0.1956
 2293TIP3    H128294   0.111   2.158   2.040 -1.0963  0.6643  1.2593
 2293TIP3    H228295   0.124   2.294   1.975 -0.3092 -0.1037 -0.2473
 2294TIP3   OH228296   3.860   5.682  11.667  0.5694  0.1585  0.3825
 2294TIP3    H128297   3.827   5.734  11.594  1.5581  1.1300  0.5886
 2294TIP3    H228298   3.807   5.710  11.742  0.5685  0.2947  0.3317
 2295TIP3   OH228299   4.942   5.830   4.583 -0.0600 -0.1240  0.0950
 2295TIP3    H128300   4.913   5.813   4.672  1.5576  1.3086  0.9462
 2295TIP3    H228301   4.870   5.797   4.528 -1.9250  0.5847  1.9574
 2296TIP3   OH228302   4.022   6.506  13.663  0.1066 -0.4767 -0.1811
 2296TIP3    H128303   3.997   6.524  13.753  2.1013  0.5813  0.2229
 2296TIP3    H228304   3.998   6.585  13.615  0.8639 -0.2071 -0.1439
 2297TIP3   OH228305   5.531   2.422  14.019  0.3821  0.2369  0.1154
 2297TIP3    H128306   5.494   2.384  14.098  0.5862  0.4234  0.3017
 2297TIP3    H228307   5.562   2.346  13.968 -2.9615 -0.2232 -1.4924
 2298TIP3   OH228308   3.007   0.755  11.992  0.4575 -0.2031  0.2782
 2298TIP3    H128309   2.913   0.761  11.975  0.3143 -1.5538  0.4942
 2298TIP3    H228310   3.047   0.762  11.905  0.0143 -1.9725 -0.0949
 2299TIP3   OH228311   4.775   6.549   5.007  0.0781 -0.5514  0.1203
 2299TIP3    H128312   4.866   6.529   5.025 -0.0764 -0.6782  0.7790
 2299TIP3    H228313   4.772   6.644   4.994  0.3226 -0.5679 -0.0568
 2300TIP3   OH228314   5.613   3.311  15.301  0.2793 -0.0807 -0.2932
 2300TIP3    H128315   5.597   3.296  15.207 -0.2077 -1.0137 -0.0767
 2300TIP3    H228316   5.707   3.300  15.311  0.1241 -1.7921 -0.3943
 2301TIP3   OH228317   6.531   4.663   1.213 -0.9047  0.1710 -0.2940
 2301TIP3    H128318   6.594   4.702   1.152  1.0239 -1.1870  0.7402
 2301TIP3    H228319   6.465   4.623   1.156 -0.5218  1.0938 -1.4279
 2302TIP3   OH228320   4.850   0.896  13.941 -0.1816 -0.0194  0.8273
 2302TIP3    H128321   4.831   0.806  13.914 -1.4826  0.0180  1.5338
 2302TIP3    H228322   4.857   0.891  14.037 -0.9165  0.7167  0.9369
 2303TIP3   OH228323   4.261   2.077   3.810 -0.2873  0.7819 -0.0147
 2303TIP3    H128324   4.200   2.150   3.811  1.7991  2.6579 -0.8291
 2303TIP3    H228325   4.262   2.045   3.900 -3.1501 -0.0006 -0.1881
 2304TIP3   OH228326   5.563   0.323  13.374  0.2778  0.1476 -0.0125
 2304TIP3    H128327   5.582   0.248  13.431 -0.1932  0.5551  0.6855
 2304TIP3    H228328   5.469   0.319  13.360  0.3812  0.0600 -0.7724
 2305TIP3   OH228329   3.231   1.470  11.128 -0.0600 -0.0283  0.4328
 2305TIP3    H128330   3.165   1.434  11.069  1.0212 -0.9343 -0.2555
 2305TIP3    H228331   3.301   1.501  11.071 -0.1328  1.5070  1.1183
 2306TIP3   OH228332   3.779   2.301   2.837  0.5311 -0.3856 -0.3308
 2306TIP3    H128333   3.832   2.379   2.820  0.2134  0.0307  0.5363
 2306TIP3    H228334   3.785   2.250   2.756  1.6251  0.0162 -0.5161
 2307TIP3   OH228335   4.016   3.427  16.296 -0.0216 -0.0057  0.0900
 2307TIP3    H128336   4.021   3.451  16.203  0.9795  0.9634  0.3595
 2307TIP3    H228337   4.021   3.332  16.297  3.4118  0.0376 -0.7482
 2308TIP3   OH228338   4.214   3.864   0.074 -0.1104 -0.0618  0.5504
 2308TIP3    H128339   4.245   3.951   0.100 -1.1759  0.4138  0.2936
 2308TIP3    H228340   4.134   3.881   0.024  0.0901 -1.1501 -0.1735
 2309TIP3   OH228341   1.231   4.892   1.542 -0.2622 -0.1199 -0.4738
 2309TIP3    H128342   1.265   4.976   1.573  0.1564 -0.5293  0.2022
 2309TIP3    H228343   1.185   4.855   1.618 -2.0633  0.3124 -1.2846
 2310TIP3   OH228344   1.675   5.721   4.438 -0.5817 -0.2022 -0.8545
 2310TIP3    H128345   1.586   5.724   4.404 -0.2748  0.1734 -1.6659
 2310TIP3    H228346   1.729   5.749   4.365  0.1082  0.7154 -0.0145
 2311TIP3   OH228347   3.396   3.620   4.507 -0.0340  0.1114 -0.0473
 2311TIP3    H128348   3.395   3.626   4.412 -0.1709 -0.0706 -0.0586
 2311TIP3    H228349   3.400   3.711   4.538 -1.8901  0.2854 -0.2036
 2312TIP3   OH228350   4.995   1.667   2.230  0.1201 -0.2804 -0.1815
 2312TIP3    H128351   5.010   1.703   2.143 -0.3602 -0.8111 -0.4926
 2312TIP3    H228352   5.081   1.667   2.272  0.1869  0.8724 -0.3033
 2313TIP3   OH228353   0.932   3.800  11.546 -0.3530 -0.2712  0.3640
 2313TIP3    H128354   0.939   3.810  11.451  1.1500 -0.8845  0.3713
 2313TIP3    H228355   0.893   3.882  11.576  0.1832  0.3956 -0.6835
 2314TIP3   OH228356   6.319   6.122   5.163 -0.9728 -0.2757  0.3895
 2314TIP3    H128357   6.343   6.029   5.157 -0.7028 -0.2266  0.6934
 2314TIP3    H228358   6.341   6.158   5.078  0.2733 -0.1797  0.7402
 2315TIP3   OH228359   6.785   4.709  12.252  0.1848 -0.0932  0.3685
 2315TIP3    H128360   6.815   4.799  12.235  1.7505 -0.6448  0.0341
 2315TIP3    H228361   6.823   4.658  12.181 -2.1128 -0.7871 -0.4335
 2316TIP3   OH228362   3.152   6.214  14.801  0.4410  0.2317  0.0615
 2316TIP3    H128363   3.128   6.275  14.731 -0.4616  0.4118  0.5205
 2316TIP3    H228364   3.097   6.239  14.875 -1.2980 -2.2389 -0.2566
 2317TIP3   OH228365   1.175   0.764  12.539  0.1304  0.1111 -0.4879
 2317TIP3    H128366   1.117   0.775  12.615 -0.8480  1.4491 -1.3843
 2317TIP3    H228367   1.180   0.851  12.500  3.8843  0.3947  0.2894
 2318TIP3   OH228368   3.394   0.270   3.103  0.5273  0.3747 -0.2826
 2318TIP3    H128369   3.329   0.244   3.168 -0.0774 -1.2452 -1.4856
 2318TIP3    H228370   3.350   0.261   3.019  1.7119  1.1357 -1.0225
 2319TIP3   OH228371   3.160   0.102   0.396 -0.4795 -0.4081  0.2054
 2319TIP3    H128372   3.082   0.148   0.364 -0.1601 -0.5929 -0.9008
 2319TIP3    H228373   3.234   0.155   0.364 -0.1115 -1.5131 -0.8750
 2320TIP3   OH228374   2.173   3.638  16.013  0.6979  0.7097 -0.2177
 2320TIP3    H128375   2.260   3.600  16.022  0.4385  0.0548 -0.4000
 2320TIP3    H228376   2.136   3.594  15.937  0.7849  2.1176 -1.1080
 2321TIP3   OH228377   5.569   6.590  16.653 -0.7691 -0.3302 -0.3333
 2321TIP3    H128378   5.598   6.670  16.697  0.5358 -0.4145 -0.9998
 2321TIP3    H228379   5.568   6.524  16.722 -1.8241  0.2330  0.2180
 2322TIP3   OH228380   4.221   4.783  10.796  0.1264 -0.0050  0.2266
 2322TIP3    H128381   4.134   4.793  10.757  0.0243 -0.3452  0.3679
 2322TIP3    H228382   4.277   4.840  10.744  0.0467 -0.6547 -0.5959
 2323TIP3   OH228383   5.528   2.962   0.339  0.1011 -0.8073 -0.2980
 2323TIP3    H128384   5.438   2.980   0.366 -0.3200 -0.1657 -2.0056
 2323TIP3    H228385   5.519   2.916   0.256  1.3457  0.4564 -1.1658
 2324TIP3   OH228386   5.938   6.271   5.573  0.0828  0.1679  0.7187
 2324TIP3    H128387   5.843   6.263   5.588 -0.1631 -0.5408 -0.9868
 2324TIP3    H228388   5.963   6.188   5.532  1.2741  0.6752  0.3702
 2325TIP3   OH228389   3.432   3.056   6.611  0.7021 -0.0788  0.2648
 2325TIP3    H128390   3.476   3.085   6.531  1.2146 -1.0853  0.1654
 2325TIP3    H228391   3.491   3.082   6.682 -0.8324  2.9710  0.5874
 2326TIP3   OH228392   2.702   4.093  15.842 -0.4078  0.1377  0.1157
 2326TIP3    H128393   2.694   4.016  15.787  1.7731 -1.1635  1.4650
 2326TIP3    H228394   2.784   4.080  15.889  0.6156  3.7876 -0.3564
 2327TIP3   OH228395   4.421   0.554  15.621 -0.5291 -0.9120 -0.2266
 2327TIP3    H128396   4.461   0.467  15.631 -1.0466 -1.1766 -0.4205
 2327TIP3    H228397   4.479   0.613  15.669  1.1880 -0.9753 -2.1036
 2328TIP3   OH228398   2.440   0.522   0.022 -0.2907  0.6334  0.1173
 2328TIP3    H128399   2.515   0.497  -0.031  0.0766  0.8685  0.5199
 2328TIP3    H228400   2.477   0.543   0.108 -1.1151 -2.1704  1.2643
 2329TIP3   OH228401   0.009   1.993   1.011 -0.4802 -0.5154  0.4866
 2329TIP3    H128402  -0.019   2.059   1.075 -1.4540 -1.6144  1.2298
 2329TIP3    H228403   0.095   1.965   1.042 -0.6434 -0.5400  0.9250
 2330TIP3   OH228404   1.512   4.018   3.970  0.0346 -0.1105 -0.0675
 2330TIP3    H128405   1.587   4.028   4.029 -1.0807 -1.8858  1.7892
 2330TIP3    H228406   1.445   4.077   4.005  0.1707  0.6896 -1.0956
 2331TIP3   OH228407   3.519   2.568  13.739 -0.2176  0.2732 -0.5781
 2331TIP3    H128408   3.478   2.655  13.738 -0.9100  0.0943  2.6175
 2331TIP3    H228409   3.609   2.585  13.712 -0.6234  1.7806 -1.1385
 2332TIP3   OH228410   5.680   0.650   2.290 -0.3954 -0.0231  0.7505
 2332TIP3    H128411   5.632   0.580   2.334 -1.2059  0.0340  0.0038
 2332TIP3    H228412   5.754   0.669   2.347  0.6846 -2.4869  0.2846
 2333TIP3   OH228413   5.917   1.152  11.350 -0.2059 -0.0254  1.2047
 2333TIP3    H128414   5.840   1.202  11.321 -1.2767 -0.5230  3.0579
 2333TIP3    H228415   5.974   1.149  11.273 -2.0319  0.3631 -0.2133
 2334TIP3   OH228416   3.132   0.815   4.004  1.0863 -0.5203  0.3681
 2334TIP3    H128417   3.164   0.901   3.975  0.4742 -0.5108 -0.3245
 2334TIP3    H228418   3.051   0.834   4.052 -0.3277 -0.8246 -1.7425
 2335TIP3   OH228419   0.252   1.230   2.055  0.5322 -1.0051 -0.0784
 2335TIP3    H128420   0.194   1.209   1.982 -0.0195  2.4189 -0.7938
 2335TIP3    H228421   0.194   1.243   2.129  0.0976  2.8894 -0.9010
 2336TIP3   OH228422   5.540   3.515   4.837  0.2649  0.3126 -0.5887
 2336TIP3    H128423   5.509   3.469   4.915  0.1074 -1.2783 -1.5397
 2336TIP3    H228424   5.492   3.598   4.837  0.5579  0.5233  1.1873
 2337TIP3   OH228425   0.228   1.561  11.037  0.2751 -0.2844  0.1792
 2337TIP3    H128426   0.151   1.607  11.070  1.0350  1.0838  0.1004
 2337TIP3    H228427   0.203   1.469  11.039 -1.1125  0.0789  0.8070
 2338TIP3   OH228428   0.484   5.538  14.454  0.1475 -0.5406 -0.1118
 2338TIP3    H128429   0.539   5.505  14.524 -0.3506  0.2484  0.6790
 2338TIP3    H228430   0.395   5.516  14.481 -0.1852  1.2197  0.3501
 2339TIP3   OH228431   3.285   3.965  16.720  0.1323 -0.0349  0.2918
 2339TIP3    H128432   3.380   3.969  16.709  0.1979 -0.8989  0.4185
 2339TIP3    H228433   3.272   3.957  16.815 -0.1311  1.1816  0.3775
 2340TIP3   OH228434   4.476   1.780  13.335 -0.1913 -0.5731  0.0998
 2340TIP3    H128435   4.408   1.823  13.284 -0.6779  0.3288  1.4684
 2340TIP3    H228436   4.548   1.767  13.273 -0.1840  1.8189 -0.4705
 2341TIP3   OH228437   2.522   6.120   0.479  0.1540  0.4152 -0.2184
 2341TIP3    H128438   2.603   6.082   0.514 -0.8841 -0.1887  1.7227
 2341TIP3    H228439   2.522   6.210   0.512  0.2957  0.5915 -0.6948
 2342TIP3   OH228440   5.419   1.369  15.130  0.8133  0.5829  0.2383
 2342TIP3    H128441   5.456   1.364  15.219 -1.6832  0.0238  1.3397
 2342TIP3    H228442   5.326   1.386  15.144  0.3621  0.5925 -2.3091
 2343TIP3   OH228443   1.406   0.855  14.506  0.1330  0.3291 -0.1030
 2343TIP3    H128444   1.480   0.910  14.482  1.0579 -0.5680  0.5851
 2343TIP3    H228445   1.444   0.769  14.523 -1.2752 -0.5679 -1.2051
 2344TIP3   OH228446   3.862   3.878   1.622  0.3247 -0.1238  0.5237
 2344TIP3    H128447   3.853   3.820   1.698  1.4641 -0.5830  0.3377
 2344TIP3    H228448   3.917   3.828   1.561 -0.4890  0.2799 -0.5622
 2345TIP3   OH228449   3.635   4.475  15.462  0.2282  0.0082  0.3524
 2345TIP3    H128450   3.605   4.430  15.383  0.9656 -0.3623  0.2764
 2345TIP3    H228451   3.728   4.454  15.468 -0.0948 -1.1550  2.0931
 2346TIP3   OH228452   3.383   4.609   6.087 -0.3982  1.2672  0.0514
 2346TIP3    H128453   3.350   4.681   6.141 -0.3118  0.6516  0.9569
 2346TIP3    H228454   3.351   4.529   6.131  1.7250  0.6663  0.6296
 2347TIP3   OH228455   5.858   2.106  11.171  0.2982  0.4044  0.9117
 2347TIP3    H128456   5.845   2.013  11.190  0.0215  0.1170 -0.5842
 2347TIP3    H228457   5.801   2.151  11.235 -1.0745 -0.5325  0.4006
 2348TIP3   OH228458   5.358   2.154   4.520 -0.4547 -0.1655  0.6055
 2348TIP3    H128459   5.438   2.206   4.517 -0.8577  0.4957  1.0916
 2348TIP3    H228460   5.388   2.063   4.516  0.1668  0.0868 -2.3368
 2349TIP3   OH228461   3.610   0.055  11.897  0.0150  0.3723 -0.0456
 2349TIP3    H128462   3.529   0.015  11.931  0.3788  1.0592  1.7597
 2349TIP3    H228463   3.593   0.149  11.902  0.1560  0.5078 -1.7165
 2350TIP3   OH228464   1.868   2.954   2.841  0.3665 -0.7463  0.0672
 2350TIP3    H128465   1.931   2.971   2.770  0.3124  0.4801  0.2796
 2350TIP3    H228466   1.922   2.938   2.918  0.4476  0.3242  0.2531
 2351TIP3   OH228467   5.478   5.569  15.993 -0.1689 -0.5538  0.4030
 2351TIP3    H128468   5.394   5.609  15.973 -1.2405 -2.5928  0.6080
 2351TIP3    H228469   5.470   5.479  15.962  1.8430 -0.8777  0.6847
 2352TIP3   OH228470   4.093   1.998   5.153 -0.0558 -0.6736  0.0269
 2352TIP3    H128471   4.123   1.931   5.092 -3.3071 -1.4065 -0.9755
 2352TIP3    H228472   4.155   1.994   5.225  2.5385 -1.4751 -2.0735
 2353TIP3   OH228473   2.464   0.758  16.809  0.2448  0.2850 -0.8744
 2353TIP3    H128474   2.396   0.691  16.805 -0.5696  1.0646 -0.6367
 2353TIP3    H228475   2.474   0.776  16.903  1.4533 -0.4791 -0.8493
 2354TIP3   OH228476   6.560   3.925   1.398 -0.0626  0.5866  0.0747
 2354TIP3    H128477   6.606   3.845   1.422 -0.6090  0.4289  0.6165
 2354TIP3    H228478   6.518   3.954   1.479  0.4263  1.6237 -0.0248
 2355TIP3   OH228479   0.058   3.281   0.933  0.8197 -0.5073 -0.5019
 2355TIP3    H128480   0.072   3.287   1.028 -0.5605 -0.6504 -0.2640
 2355TIP3    H228481  -0.024   3.329   0.918  0.5404 -1.2687 -1.4908
 2356TIP3   OH228482   1.360   0.205  15.282  0.3533 -0.1570  0.1059
 2356TIP3    H128483   1.369   0.129  15.338 -0.8514  0.5283  1.2766
 2356TIP3    H228484   1.290   0.182  15.220  0.7316 -0.3886 -0.2440
 2357TIP3   OH228485   2.642   4.759  15.371  0.4127 -0.2323  0.3167
 2357TIP3    H128486   2.715   4.708  15.407  0.4391 -0.4270 -0.0070
 2357TIP3    H228487   2.579   4.765  15.443  0.4208 -0.7057  0.3685
 2358TIP3   OH228488   0.231   5.251   0.208 -0.2639  0.6869  0.4169
 2358TIP3    H128489   0.285   5.289   0.139 -1.5089  0.3144 -0.8381
 2358TIP3    H228490   0.182   5.182   0.163 -0.8922  0.2330  1.7628
 2359TIP3   OH228491   0.705   0.844  16.089 -0.0392  0.0402 -0.6564
 2359TIP3    H128492   0.618   0.806  16.104  0.1566 -0.0172  0.3692
 2359TIP3    H228493   0.716   0.840  15.994 -0.8772 -0.5740 -0.7418
 2360TIP3   OH228494   4.096   1.757   2.867  0.5915 -0.2893  0.0587
 2360TIP3    H128495   4.049   1.840   2.855  0.2021 -0.8501 -2.7693
 2360TIP3    H228496   4.035   1.702   2.916 -0.4092  0.0564 -0.7750
 2361TIP3   OH228497   4.770   1.719  10.721  0.0096 -0.0444 -0.3046
 2361TIP3    H128498   4.862   1.711  10.696  0.1681  0.8471 -0.0325
 2361TIP3    H228499   4.728   1.759  10.645 -0.0543  0.0161 -0.2379
 2362TIP3   OH228500   1.228   2.497  10.548  0.3978 -0.3129  0.1680
 2362TIP3    H128501   1.249   2.547  10.626  1.1277  1.4315 -1.0887
 2362TIP3    H228502   1.193   2.561  10.486  0.5154 -1.5014 -1.1868
 2363TIP3   OH228503   5.357   6.378  16.782 -0.4237 -0.7692 -0.3581
 2363TIP3    H128504   5.398   6.402  16.699 -0.4424  1.2708  0.1759
 2363TIP3    H228505   5.282   6.325  16.757 -1.1368  0.8134 -1.7676
 2364TIP3   OH228506   6.287   4.903  10.674 -0.4931  0.8200 -0.0577
 2364TIP3    H128507   6.239   4.895  10.757 -0.3288 -1.5335 -0.1493
 2364TIP3    H228508   6.379   4.903  10.700 -0.4529  1.1162 -0.1923
 2365TIP3   OH228509   3.221   0.969  13.966  0.3037  0.0739 -0.0591
 2365TIP3    H128510   3.201   1.008  13.881 -0.8941 -0.1676  0.0921
 2365TIP3    H228511   3.236   1.044  14.024 -2.0448  0.3871  0.2467
 2366TIP3   OH228512   2.101   4.951   1.911 -0.7040 -0.6829 -0.4691
 2366TIP3    H128513   2.096   4.915   2.000 -0.3578 -0.4078 -0.3357
 2366TIP3    H228514   2.091   5.045   1.922  1.5927 -0.3830 -0.4602
 2367TIP3   OH228515   3.583   1.976  13.807  0.0727  0.1903  0.2674
 2367TIP3    H128516   3.529   2.004  13.733  2.5690  0.0764 -1.7460
 2367TIP3    H228517   3.599   2.056  13.857 -0.4365  0.5649 -0.1551
 2368TIP3   OH228518   3.866   6.676   4.001  0.1792  0.5481  0.3817
 2368TIP3    H128519   3.945   6.687   3.948  0.3976  0.7239  0.7312
 2368TIP3    H228520   3.899   6.679   4.092  0.2625 -2.7567  0.5796
 2369TIP3   OH228521   1.444   6.672  16.266  0.0960  0.2813  0.1441
 2369TIP3    H128522   1.436   6.743  16.202 -0.0967  0.5337  0.4530
 2369TIP3    H228523   1.533   6.680  16.299 -0.2801  1.0771  1.0032
 2370TIP3   OH228524   0.032   6.494   5.610  0.2287  0.1959 -0.1391
 2370TIP3    H128525   0.045   6.399   5.600 -0.3238  0.0264  0.5974
 2370TIP3    H228526   0.113   6.524   5.651 -0.5646 -0.4316  2.0868
 2371TIP3   OH228527   1.996   1.069  16.485  0.1520  0.2620 -0.3290
 2371TIP3    H128528   1.995   1.100  16.575  0.8230  0.9617 -0.5490
 2371TIP3    H228529   2.007   0.974  16.492 -0.0658  0.2828  0.3256
 2372TIP3   OH228530   2.793   6.670  16.539 -0.8086  0.6231  0.3531
 2372TIP3    H128531   2.824   6.749  16.495  1.6319 -0.8942 -0.8637
 2372TIP3    H228532   2.834   6.672  16.625  1.1784 -0.3656 -0.5104
 2373TIP3   OH228533   0.868   2.189  14.642  0.0740 -0.1322 -0.7702
 2373TIP3    H128534   0.833   2.100  14.635 -1.1788  0.3435 -0.8088
 2373TIP3    H228535   0.801   2.244  14.601 -1.0840  1.2699  2.6443
 2374TIP3   OH228536   6.063   2.801   6.003 -0.1384  0.4769 -0.6923
 2374TIP3    H128537   6.129   2.790   5.935  1.0379  0.0838  0.4782
 2374TIP3    H228538   6.091   2.878   6.051  0.1138 -0.3345  0.5000
 2375TIP3   OH228539   5.897   0.977   3.810 -0.0036 -0.1859 -0.2533
 2375TIP3    H128540   5.898   1.058   3.760  4.3442  0.7795  0.9313
 2375TIP3    H228541   5.868   1.002   3.898 -0.7845 -0.4048 -0.4425
 2376TIP3   OH228542   2.341   1.759  12.519 -0.4200 -0.2031 -0.4331
 2376TIP3    H128543   2.317   1.841  12.562 -2.1849  0.3216 -2.2871
 2376TIP3    H228544   2.436   1.764  12.508 -0.6708  2.3995 -2.0421
 2377TIP3   OH228545   2.362   2.765  12.160  0.2870 -0.3114  0.4915
 2377TIP3    H128546   2.430   2.832  12.154  0.5995 -0.6428  0.2845
 2377TIP3    H228547   2.281   2.815  12.170  0.5501  0.0891  0.6703
 2378TIP3   OH228548   0.714   3.270   2.669 -0.3291  0.3432 -0.1879
 2378TIP3    H128549   0.757   3.250   2.752 -1.3204  2.0455  0.7954
 2378TIP3    H228550   0.693   3.363   2.675 -0.2373  0.5678 -2.4606
 2379TIP3   OH228551   3.194   5.395   5.462 -0.2335 -0.0987  0.2056
 2379TIP3    H128552   3.112   5.443   5.472 -0.0972  0.6675 -1.8310
 2379TIP3    H228553   3.226   5.420   5.376  1.8856 -0.8187  0.7258
 2380TIP3   OH228554   1.632   0.770  15.569 -0.7472  0.2486  0.2675
 2380TIP3    H128555   1.618   0.848  15.622  0.3569  0.9515 -0.4308
 2380TIP3    H228556   1.590   0.790  15.485 -0.6339  0.0165  0.1546
 2381TIP3   OH228557   6.316   4.002  13.899 -0.2058  0.3299 -0.3392
 2381TIP3    H128558   6.372   3.992  13.823  1.0253 -1.1318  0.6987
 2381TIP3    H228559   6.328   3.921  13.949 -0.2415  1.5860  1.8523
 2382TIP3   OH228560   6.522   6.186  16.697 -0.6015 -0.0933 -0.6038
 2382TIP3    H128561   6.438   6.145  16.674 -0.9410  1.6310 -2.7879
 2382TIP3    H228562   6.588   6.127  16.661 -1.0682  0.8462 -3.2043
 2383TIP3   OH228563   1.821   0.653   5.400  0.0421 -0.3200 -0.6294
 2383TIP3    H128564   1.886   0.667   5.331  0.0419 -2.1502 -1.0606
 2383TIP3    H228565   1.873   0.644   5.480 -0.0845  5.2954  0.4510
 2384TIP3   OH228566   5.360   3.678  14.585 -0.1518  0.2173  0.2436
 2384TIP3    H128567   5.443   3.630  14.574  0.0714  0.5971  0.2387
 2384TIP3    H228568   5.309   3.625  14.645 -1.5227 -2.1197 -2.7196
 2385TIP3   OH228569   0.730   6.743   4.877  0.1058 -0.0681 -0.4918
 2385TIP3    H128570   0.692   6.831   4.879  0.0348 -0.1061  1.1339
 2385TIP3    H228571   0.656   6.685   4.896  0.6050 -0.2630  1.0233
 2386TIP3   OH228572   6.584   3.328   5.554  0.6012  0.2088  0.2008
 2386TIP3    H128573   6.513   3.365   5.606  1.4204  1.9568  0.1715
 2386TIP3    H228574   6.583   3.235   5.573 -0.9616  0.3812  1.0774
 2387TIP3   OH228575   2.345   5.259   2.234  0.8923  0.5616  0.0543
 2387TIP3    H128576   2.421   5.304   2.197 -0.7906  1.0848 -3.1039
 2387TIP3    H228577   2.368   5.166   2.231  2.4155  0.8181  1.8343
 2388TIP3   OH228578   3.717   2.398   5.992 -0.0041  1.0190  0.1111
 2388TIP3    H128579   3.799   2.348   6.001 -0.5839 -0.2247 -1.2384
 2388TIP3    H228580   3.730   2.474   6.049  1.2836 -0.1764  1.5101
 2389TIP3   OH228581   4.217   0.791  11.576  0.2972 -0.3882  0.0445
 2389TIP3    H128582   4.178   0.865  11.622  2.2288  1.1401 -0.6276
 2389TIP3    H228583   4.198   0.809  11.483 -0.0556 -1.2629 -0.0554
 2390TIP3   OH228584   6.581   2.281   2.689 -0.1081 -0.5577 -0.0834
 2390TIP3    H128585   6.535   2.285   2.773 -0.5286 -1.6753 -0.2364
 2390TIP3    H228586   6.526   2.330   2.628  0.8405  1.3732  0.5380
 2391TIP3   OH228587   5.747   4.613  12.163 -0.7263 -0.0894  0.4320
 2391TIP3    H128588   5.836   4.611  12.198 -0.0768 -2.3360 -1.1327
 2391TIP3    H228589   5.728   4.706  12.151  1.1243  0.4639  1.4939
 2392TIP3   OH228590   1.396   2.552   1.057 -0.1707 -0.0635 -0.1113
 2392TIP3    H128591   1.345   2.493   1.112 -1.6984 -1.4629 -2.7953
 2392TIP3    H228592   1.486   2.521   1.064 -0.7824 -2.0591 -0.6005
 2393TIP3   OH228593   0.538   1.893   3.398  0.0996  0.0921  0.2791
 2393TIP3    H128594   0.454   1.886   3.353  0.3812  0.4835 -0.3198
 2393TIP3    H228595   0.516   1.894   3.491 -0.4578 -1.2434  0.1885
 2394TIP3   OH228596   1.692   3.047   6.523 -0.1040  0.9298  0.4741
 2394TIP3    H128597   1.626   3.069   6.457  0.0066  0.1116  0.0887
 2394TIP3    H228598   1.773   3.088   6.491 -0.1108  0.7590  0.2421
 2395TIP3   OH228599   6.464   5.113   0.257  0.4652 -0.3694 -0.2503
 2395TIP3    H128600   6.377   5.087   0.226  0.7389  0.0494 -1.4449
 2395TIP3    H228601   6.449   5.194   0.306  0.0149 -1.0555  0.7668
 2396TIP3   OH228602   4.325   5.727  13.845  0.1208  0.6404  0.9434
 2396TIP3    H128603   4.374   5.760  13.920  0.8132  0.5344  0.5439
 2396TIP3    H228604   4.370   5.645  13.821  0.7152  1.3203 -0.3805
 2397TIP3   OH228605   2.463   3.448  15.157 -0.2193  0.3144  0.1202
 2397TIP3    H128606   2.402   3.471  15.087  0.0185  1.6325  0.3231
 2397TIP3    H228607   2.470   3.528  15.210  0.3070 -0.3744  1.1239
 2398TIP3   OH228608   2.250   0.656   4.584  0.1765  0.5258 -0.1000
 2398TIP3    H128609   2.205   0.634   4.503  2.1567 -0.5484 -1.0015
 2398TIP3    H228610   2.341   0.628   4.569  0.2890 -1.3020  3.0826
 2399TIP3   OH228611   1.038   1.551   1.338 -0.1888  0.1068 -0.2374
 2399TIP3    H128612   1.099   1.487   1.376 -3.5133 -2.2057  1.7158
 2399TIP3    H228613   1.025   1.616   1.406 -1.0926 -0.3524  0.0533
 2400TIP3   OH228614   3.996   5.921   2.523 -0.1114  0.6422  0.2230
 2400TIP3    H128615   4.069   5.860   2.532  1.2853  2.0983 -0.6960
 2400TIP3    H228616   3.962   5.930   2.612  0.5393 -0.3975  0.5994
 2401TIP3   OH228617   1.341   2.272  12.106 -0.0849 -0.0452  0.8520
 2401TIP3    H128618   1.371   2.245  12.019  0.1477  0.9758  0.6041
 2401TIP3    H228619   1.396   2.347  12.128 -0.4744  0.0057  1.6767
 2402TIP3   OH228620   6.160   0.039   5.565  0.2582  0.1959  0.0936
 2402TIP3    H128621   6.073   0.067   5.537 -0.6569 -0.6403  1.9484
 2402TIP3    H228622   6.192  -0.016   5.492 -0.9837  0.0673 -0.3753
 2403TIP3   OH228623   6.422   6.002   3.638 -0.1188 -0.3830  0.1775
 2403TIP3    H128624   6.493   6.058   3.607  0.5762 -1.5818 -0.4569
 2403TIP3    H228625   6.366   6.060   3.689  1.3645  0.5613  0.7784
 2404TIP3   OH228626   4.444   4.402   0.376  0.3122 -0.3287  0.2897
 2404TIP3    H128627   4.367   4.376   0.326  0.4944  0.1403 -0.2430
 2404TIP3    H228628   4.469   4.487   0.340  0.9515 -0.3785  0.5974
 2405TIP3   OH228629   2.415   5.590   1.944  0.2968  0.5599  0.4823
 2405TIP3    H128630   2.391   5.678   1.974  2.6283  1.7495 -0.8100
 2405TIP3    H228631   2.398   5.592   1.849  0.7852 -0.2197  0.3725
 2406TIP3   OH228632   3.983   1.584   3.440  0.1877 -0.1059 -0.6376
 2406TIP3    H128633   3.928   1.539   3.377 -0.3844 -1.5242  0.8243
 2406TIP3    H228634   4.071   1.548   3.426  0.3463  0.5697 -1.4919
 2407TIP3   OH228635   1.477   4.909   5.305  0.5478  0.6249  0.0129
 2407TIP3    H128636   1.491   5.003   5.309 -0.7956  0.7949  1.8371
 2407TIP3    H228637   1.468   4.891   5.211 -0.1202  2.4632 -0.3228
 2408TIP3   OH228638   5.793   4.081  13.466 -0.5666 -0.2732 -0.3576
 2408TIP3    H128639   5.814   4.174  13.463 -2.5841  0.3114  1.2446
 2408TIP3    H228640   5.830   4.051  13.549 -1.1049 -0.5491 -0.2106
 2409TIP3   OH228641   6.162   0.963   0.739 -0.0628 -0.3878 -0.0824
 2409TIP3    H128642   6.143   0.998   0.826  0.3788 -0.6924  0.1380
 2409TIP3    H228643   6.185   1.040   0.687 -1.2621 -0.0822 -0.1957
 2410TIP3   OH228644   4.852   0.290  17.149 -0.2023  0.2111  0.3831
 2410TIP3    H128645   4.910   0.352  17.105 -0.2422 -0.4422 -0.6192
 2410TIP3    H228646   4.780   0.343  17.183 -0.3725  0.6878 -0.6981
 2411TIP3   OH228647   0.474   5.464   1.529 -0.4778  0.2014  0.5247
 2411TIP3    H128648   0.549   5.499   1.577 -0.7126 -0.2431  1.2246
 2411TIP3    H228649   0.501   5.376   1.503 -0.7144  0.0821  0.6792
 2412TIP3   OH228650   2.690   2.083   1.076  0.1537 -0.5550 -0.0557
 2412TIP3    H128651   2.746   2.006   1.063  0.4369 -0.3680  0.0516
 2412TIP3    H228652   2.730   2.152   1.023 -0.4427 -0.6411 -0.6335
 2413TIP3   OH228653   5.800   3.130  14.997  0.0667 -0.4039 -0.0825
 2413TIP3    H128654   5.750   3.066  14.946  0.7419 -1.5878  0.6887
 2413TIP3    H228655   5.758   3.214  14.978  0.1116 -0.8267 -2.3367
 2414TIP3   OH228656   6.353   1.590  15.633  0.3680  0.1455  0.0239
 2414TIP3    H128657   6.309   1.509  15.662 -0.9219  1.4322  1.9005
 2414TIP3    H228658   6.322   1.603  15.544  0.9083 -1.6265 -0.4633
 2415TIP3   OH228659   5.011   1.263   6.376 -0.1693 -0.4228 -0.0741
 2415TIP3    H128660   4.980   1.353   6.387  0.0342 -0.4741  0.9487
 2415TIP3    H228661   4.933   1.215   6.347 -0.1711  0.1628 -1.0864
 2416TIP3   OH228662   0.991   3.691  13.580  0.6494  0.0958 -0.7222
 2416TIP3    H128663   0.974   3.611  13.530 -0.0422 -1.6536  2.0818
 2416TIP3    H228664   0.908   3.740  13.575  1.0101  0.6000 -2.2822
 2417TIP3   OH228665   4.224   2.538  12.194 -0.1582  0.3014 -0.1078
 2417TIP3    H128666   4.208   2.553  12.287 -0.6069  0.8121 -0.2639
 2417TIP3    H228667   4.145   2.494  12.163 -0.2397  0.6214 -0.3603
 2418TIP3   OH228668   4.939   5.642  11.200 -0.1964  0.3267 -0.1238
 2418TIP3    H128669   5.006   5.682  11.145  0.9985 -2.2136 -0.6631
 2418TIP3    H228670   4.988   5.591  11.264 -1.6144  0.3002  0.9910
 2419TIP3   OH228671   2.349   1.907  11.104 -0.4079 -0.5807  0.6536
 2419TIP3    H128672   2.281   1.895  11.038 -0.5542 -1.9588  1.0180
 2419TIP3    H228673   2.308   1.962  11.171 -0.0854  1.2900 -0.6020
 2420TIP3   OH228674   3.826   3.417  16.623  0.0324  0.1322  0.3691
 2420TIP3    H128675   3.733   3.437  16.620  0.1944  0.7526 -1.0104
 2420TIP3    H228676   3.845   3.375  16.539  1.4075  1.9903 -0.3244
 2421TIP3   OH228677   0.297   1.434   5.829  0.1505  0.4669 -0.4356
 2421TIP3    H128678   0.250   1.454   5.910  0.5112  0.4875 -0.2330
 2421TIP3    H228679   0.263   1.497   5.765  0.8074  1.3046  0.0345
 2422TIP3   OH228680   2.802   0.143  11.552 -0.0976 -0.1659  0.1150
 2422TIP3    H128681   2.884   0.192  11.547 -1.1608  1.7567  0.5696
 2422TIP3    H228682   2.798   0.114  11.643  0.3074 -0.6822 -0.0308
 2423TIP3   OH228683   4.326   6.419   2.904  0.0585  0.7305 -0.0009
 2423TIP3    H128684   4.299   6.366   2.979  0.6516  0.8271  0.2869
 2423TIP3    H228685   4.421   6.415   2.905  0.0745  0.4694 -0.9443
 2424TIP3   OH228686   5.765   2.544   2.001  0.6574 -0.5294 -0.2905
 2424TIP3    H128687   5.737   2.457   2.029  1.0637 -0.7077 -0.4249
 2424TIP3    H228688   5.722   2.557   1.916  0.4624 -0.5282 -0.1918
 2425TIP3   OH228689   0.688   4.289  11.539  1.3364  0.1382  0.2946
 2425TIP3    H128690   0.599   4.325  11.529  1.6739  0.7170 -0.7476
 2425TIP3    H228691   0.696   4.226  11.468  1.4467 -0.5876  0.9433
 2426TIP3   OH228692   1.891   6.742   5.245  0.1105 -0.2522 -0.1434
 2426TIP3    H128693   1.904   6.808   5.313 -0.2488 -0.4138  0.0886
 2426TIP3    H228694   1.946   6.771   5.172 -0.8474  0.8870 -0.4514
 2427TIP3   OH228695   5.936   2.968   3.839  0.1031  0.0229  0.2481
 2427TIP3    H128696   5.892   3.001   3.760 -1.0900 -2.5204 -0.2447
 2427TIP3    H228697   5.865   2.934   3.893  1.2186 -2.2181  0.4198
 2428TIP3   OH228698   5.657   5.066  12.495  0.0288  0.9707 -0.1549
 2428TIP3    H128699   5.567   5.098  12.495  0.1582  1.3515 -0.7238
 2428TIP3    H228700   5.690   5.087  12.408 -0.3553 -2.0812 -1.1785
 2429TIP3   OH228701   0.134   5.766   2.160  1.1320  0.0238  0.4855
 2429TIP3    H128702   0.190   5.819   2.217  2.4160 -0.9961  0.2379
 2429TIP3    H228703   0.095   5.701   2.219  2.6990 -1.2247  0.2371
 2430TIP3   OH228704   1.085   6.180   3.695  0.3176  0.0756  0.2571
 2430TIP3    H128705   1.092   6.275   3.705 -0.8998  0.1414  0.6999
 2430TIP3    H228706   1.073   6.166   3.601  0.0103  0.3993  0.2493
 2431TIP3   OH228707   3.484   5.091   4.814  0.0588  0.4711 -0.2030
 2431TIP3    H128708   3.421   5.019   4.806  0.6676 -0.5974  3.0206
 2431TIP3    H228709   3.475   5.120   4.904  0.1790  4.2463 -1.2512
 2432TIP3   OH228710   1.018   0.785   5.706  0.6169  0.7776 -0.2695
 2432TIP3    H128711   1.027   0.708   5.762  0.4152 -0.1097 -1.4177
 2432TIP3    H228712   1.085   0.773   5.639 -1.0168  0.3244 -1.8769
 2433TIP3   OH228713   4.380   0.051  10.481  0.3372 -0.1780 -0.2835
 2433TIP3    H128714   4.315  -0.006  10.440  2.3885 -3.2779  0.3658
 2433TIP3    H228715   4.453   0.053  10.419  0.1126  2.3620 -0.5446
 2434TIP3   OH228716   4.546   1.306  11.786 -0.4409 -0.1385  0.1957
 2434TIP3    H128717   4.453   1.319  11.805 -0.2358  1.1575  0.4049
 2434TIP3    H228718   4.577   1.393  11.760  0.2984 -0.9374 -1.7354
 2435TIP3   OH228719   2.299   6.248   4.102 -0.2999  0.6286 -0.1437
 2435TIP3    H128720   2.355   6.316   4.065  1.5150 -1.5112 -1.6140
 2435TIP3    H228721   2.309   6.174   4.042 -2.2414 -0.9233  1.3247
 2436TIP3   OH228722   0.263   5.688  13.573 -0.3816  0.3300 -0.2613
 2436TIP3    H128723   0.276   5.755  13.506  1.2083 -1.2529 -1.6462
 2436TIP3    H228724   0.245   5.608  13.523 -0.2742 -0.6812  1.2551
 2437TIP3   OH228725   1.638   2.826   3.651 -0.5793  0.3309 -0.1682
 2437TIP3    H128726   1.678   2.831   3.565  0.3636  0.9341  0.2814
 2437TIP3    H228727   1.614   2.916   3.671  2.5571  0.9348  1.6720
 2438TIP3   OH228728   4.463   6.716  14.830 -0.0650 -0.1211 -0.1384
 2438TIP3    H128729   4.404   6.696  14.757 -0.3046 -1.0084  0.2877
 2438TIP3    H228730   4.468   6.635  14.880  0.5078  0.3254  0.5512
 2439TIP3   OH228731   4.404   6.243   0.419  0.7002  0.3974 -0.8941
 2439TIP3    H128732   4.359   6.327   0.418 -1.4211 -0.6618 -0.7089
 2439TIP3    H228733   4.461   6.245   0.342 -0.2162  1.5283 -1.5726
 2440TIP3   OH228734   4.030   5.736   0.479 -0.2652 -0.5101  0.1717
 2440TIP3    H128735   3.935   5.729   0.488  0.0079 -1.5490  4.4347
 2440TIP3    H228736   4.048   5.830   0.483 -1.0668 -0.3232 -0.3392
 2441TIP3   OH228737   5.234   2.216  12.330 -0.0707 -0.6013  0.0744
 2441TIP3    H128738   5.262   2.263  12.252  0.2992 -1.4842 -0.3422
 2441TIP3    H228739   5.142   2.196  12.314 -0.9615  2.0622  1.3255
 2442TIP3   OH228740   0.154   1.603  15.111  0.3740 -0.2078  0.3235
 2442TIP3    H128741   0.205   1.561  15.041 -1.1198 -0.8856 -0.4124
 2442TIP3    H228742   0.099   1.533  15.145  1.2636  0.0433  2.4227
 2443TIP3   OH228743   6.095   0.419   4.535  0.1462  0.8136  0.4011
 2443TIP3    H128744   6.154   0.414   4.460 -0.2112  0.7248  0.1254
 2443TIP3    H228745   6.043   0.339   4.530 -1.4751  1.8734 -0.5938
 2444TIP3   OH228746   3.103   1.141  14.586  0.4699 -0.8434  0.1011
 2444TIP3    H128747   3.128   1.175  14.500  0.7968  1.7951  1.1333
 2444TIP3    H228748   3.181   1.152  14.640 -0.4091 -0.2991  1.2983
 2445TIP3   OH228749   3.620   1.990  16.223  0.0086 -0.6758 -0.0560
 2445TIP3    H128750   3.695   1.997  16.164  0.2780  0.2764  0.3890
 2445TIP3    H228751   3.651   1.934  16.295 -0.2549 -1.6654 -0.6902
 2446TIP3   OH228752   3.341   1.296   1.335  0.9827  0.5259 -0.4611
 2446TIP3    H128753   3.318   1.203   1.347 -0.5293  0.9602  0.2631
 2446TIP3    H228754   3.330   1.335   1.422 -1.7878  2.0404 -1.3596
 2447TIP3   OH228755   5.353   5.402  13.765 -0.2305  0.0402  0.0471
 2447TIP3    H128756   5.283   5.376  13.825 -1.3787 -0.0288 -1.2561
 2447TIP3    H228757   5.385   5.320  13.729  0.9688  0.0316  1.0767
 2448TIP3   OH228758   3.798   1.456   4.344  0.2302 -0.3601 -0.2987
 2448TIP3    H128759   3.745   1.529   4.378 -0.5904 -0.1057 -2.0163
 2448TIP3    H228760   3.880   1.461   4.392 -0.3300  0.8590  0.5749
 2449TIP3   OH228761   6.327   5.286  14.036 -0.0195 -0.3170 -0.5218
 2449TIP3    H128762   6.408   5.279  14.086 -0.1672 -0.5967 -0.3176
 2449TIP3    H228763   6.351   5.266  13.946  0.5877  1.8788 -0.8983
 2450TIP3   OH228764   1.751   3.710   6.574 -1.0450 -0.1348 -0.3529
 2450TIP3    H128765   1.830   3.662   6.548  0.3108  1.2440  1.0176
 2450TIP3    H228766   1.759   3.794   6.530 -0.5856  0.8385  1.5075
 2451TIP3   OH228767   0.471   2.260   1.238  0.3059  0.4629  0.0646
 2451TIP3    H128768   0.549   2.217   1.202 -0.3188 -0.8318  0.2160
 2451TIP3    H228769   0.501   2.348   1.259  3.3313 -1.3421  5.1528
 2452TIP3   OH228770   4.852   4.929   5.602 -0.0798  0.0948 -0.1186
 2452TIP3    H128771   4.921   4.866   5.624  0.6180  0.0334 -2.1923
 2452TIP3    H228772   4.893   4.988   5.538 -2.1917 -0.5740 -2.2479
 2453TIP3   OH228773   4.304   2.147  12.749 -0.2515  0.1191  0.6557
 2453TIP3    H128774   4.271   2.161  12.838  0.4792  1.4398  0.7520
 2453TIP3    H228775   4.233   2.178  12.693  0.1825  1.5609  0.8437
 2454TIP3   OH228776   4.310   4.711  14.489 -0.4096 -0.5040  0.3694
 2454TIP3    H128777   4.382   4.765  14.523 -0.7712 -0.7138  1.5066
 2454TIP3    H228778   4.354   4.638  14.445  0.0739  0.1303 -0.2310
 2455TIP3   OH228779   6.341   6.643  15.674 -0.3109  0.4473 -0.1982
 2455TIP3    H128780   6.300   6.701  15.739 -0.7508  0.3864 -0.4139
 2455TIP3    H228781   6.316   6.680  15.589  0.6983  0.8278 -0.3380
 2456TIP3   OH228782   0.936   5.131  16.260 -0.0478 -0.2179  0.7687
 2456TIP3    H128783   0.904   5.219  16.279 -0.3621 -0.2203  0.2692
 2456TIP3    H228784   1.021   5.127  16.304  0.1433  0.4749  0.4781
 2457TIP3   OH228785   0.637   3.940   4.525 -0.2374 -0.3756 -0.4237
 2457TIP3    H128786   0.644   3.851   4.559  0.3223  0.2003  1.0826
 2457TIP3    H228787   0.721   3.981   4.547 -0.7003  0.6934 -0.5628
 2458TIP3   OH228788   2.576   6.277  12.772  0.0943  0.4542 -0.0306
 2458TIP3    H128789   2.486   6.251  12.751  0.2481 -0.5032  0.4550
 2458TIP3    H228790   2.631   6.208  12.736  0.4518 -0.4364  2.0793
 2459TIP3   OH228791   4.399   4.042  16.590 -0.0692 -0.3156  0.1776
 2459TIP3    H128792   4.399   4.037  16.494  4.2709 -3.3119  0.0042
 2459TIP3    H228793   4.330   3.982  16.617 -1.2265  0.4165 -1.0310
 2460TIP3   OH228794   5.388   6.380  13.025 -0.0650  0.4896 -0.1580
 2460TIP3    H128795   5.445   6.331  12.966 -1.4948  0.3865 -1.5123
 2460TIP3    H228796   5.361   6.457  12.974 -1.3008  0.4171  0.3436
 2461TIP3   OH228797   1.797   4.441   1.746  0.3131  0.7144  0.3621
 2461TIP3    H128798   1.776   4.517   1.800 -1.1763  0.1894  0.5469
 2461TIP3    H228799   1.862   4.473   1.683  0.4885  1.8601  1.1091
 2462TIP3   OH228800   3.535   6.492   4.223 -0.4623  0.3329 -0.1711
 2462TIP3    H128801   3.545   6.430   4.295 -1.2625  0.7946  0.3448
 2462TIP3    H228802   3.531   6.578   4.264  0.2891  0.7107 -0.8583
 2463TIP3   OH228803   3.508   4.228   4.003 -0.5685  0.1207  0.0568
 2463TIP3    H128804   3.594   4.197   3.974 -1.1534  1.1929 -3.3438
 2463TIP3    H228805   3.523   4.318   4.032 -0.4541  0.1208 -0.0024
 2464TIP3   OH228806   0.336   1.978   0.006 -0.3351  0.1612  0.1264
 2464TIP3    H128807   0.351   2.065  -0.032 -1.3966  0.9449  1.4066
 2464TIP3    H228808   0.245   1.958  -0.016  0.0020 -0.7940 -0.4437
 2465TIP3   OH228809   5.898   1.234   3.447  0.5549  0.2687 -0.0295
 2465TIP3    H128810   5.925   1.230   3.539 -1.0822  2.2756  0.5925
 2465TIP3    H228811   5.975   1.268   3.401  1.2594 -0.3809  0.6308
 2466TIP3   OH228812   3.250   5.390  14.725  0.6789 -0.1616  0.0995
 2466TIP3    H128813   3.159   5.407  14.752 -0.6292 -1.7490 -2.8063
 2466TIP3    H228814   3.283   5.475  14.697  0.6386  0.7021  2.4862
 2467TIP3   OH228815   1.459   1.954   2.161 -0.6878 -0.3720 -0.7202
 2467TIP3    H128816   1.524   1.944   2.091 -0.9994 -1.0757 -0.9266
 2467TIP3    H228817   1.399   1.881   2.147  0.2287 -1.6313  1.3341
 2468TIP3   OH228818   0.934   5.775   3.740  0.0929 -0.1149 -0.2900
 2468TIP3    H128819   1.029   5.766   3.726  0.3442 -1.0476  1.7540
 2468TIP3    H228820   0.920   5.870   3.745  0.7382  0.0747 -1.5111
 2469TIP3   OH228821   3.693   2.352  13.195  0.0268 -0.0040 -0.6646
 2469TIP3    H128822   3.778   2.394  13.189  0.1232 -0.1432 -0.2605
 2469TIP3    H228823   3.647   2.400  13.264 -0.2612  0.1411 -0.9566
 2470TIP3   OH228824   0.506   4.896   4.700  0.3300 -0.5239 -0.1989
 2470TIP3    H128825   0.467   4.983   4.700  1.4972  0.0132 -0.8187
 2470TIP3    H228826   0.586   4.905   4.752  1.3484 -0.7761 -1.6377
 2471TIP3   OH228827   0.048   5.173   4.760  0.3330  0.5586 -0.4877
 2471TIP3    H128828   0.100   5.094   4.745  0.1253  0.5980 -1.4922
 2471TIP3    H228829  -0.006   5.181   4.682  0.8057  2.0515 -0.6850
 2472TIP3   OH228830   3.310   6.647  11.596 -0.0597  0.3354  0.0829
 2472TIP3    H128831   3.227   6.653  11.643  0.2519  0.7943  0.5752
 2472TIP3    H228832   3.287   6.601  11.514 -0.6881 -0.0380  0.4571
 2473TIP3   OH228833   2.607   2.950   2.968  0.4628  0.8588  0.1945
 2473TIP3    H128834   2.630   3.043   2.978 -1.2349  1.6264 -2.0840
 2473TIP3    H228835   2.606   2.937   2.873 -0.3461 -1.2259  0.4524
 2474TIP3   OH228836   0.655   2.198  10.472  0.5005 -1.1190  0.8011
 2474TIP3    H128837   0.568   2.161  10.455  0.3447 -0.8500  0.9974
 2474TIP3    H228838   0.669   2.259  10.401 -0.5389  0.6822  2.0545
 2475TIP3   OH228839   4.059   3.874   2.808  0.2245 -0.3204  0.1851
 2475TIP3    H128840   4.045   3.893   2.901  0.8729 -2.7222  0.8407
 2475TIP3    H228841   3.970   3.868   2.772 -0.0186  1.6028  0.3911
 2476TIP3   OH228842   6.099   2.219  15.872  0.0652 -0.1553 -0.5893
 2476TIP3    H128843   6.187   2.183  15.859  0.0007 -0.2277 -0.8238
 2476TIP3    H228844   6.040   2.147  15.849 -0.0625 -1.2259  2.5256
 2477TIP3   OH228845   3.211   1.623  11.391 -0.0427 -0.6181  0.4379
 2477TIP3    H128846   3.282   1.592  11.334  0.3670 -0.3403  0.7958
 2477TIP3    H228847   3.142   1.557  11.381  0.0305 -0.5867 -0.3658
 2478TIP3   OH228848   2.322   2.468   5.513  0.0953 -0.0811 -0.1954
 2478TIP3    H128849   2.250   2.431   5.462  0.5335  0.1883 -1.0287
 2478TIP3    H228850   2.401   2.432   5.473  0.4267 -2.1769  2.1119
 2479TIP3   OH228851   1.415   1.986   6.270 -0.5375  0.1069  0.3799
 2479TIP3    H128852   1.334   1.936   6.280 -0.3245 -0.3223 -0.0164
 2479TIP3    H228853   1.429   2.025   6.356 -2.1701  1.7606 -0.0411
 2480TIP3   OH228854   2.544   6.574  16.493  0.3999 -0.4113 -0.0234
 2480TIP3    H128855   2.519   6.632  16.421 -0.7033 -0.6550  0.1482
 2480TIP3    H228856   2.628   6.608  16.522 -0.9327  2.1807  1.1499
 2481TIP3   OH228857   1.866   3.765   5.583  0.1184 -0.2676 -0.1134
 2481TIP3    H128858   1.809   3.718   5.644 -0.2009  0.4685  0.1707
 2481TIP3    H228859   1.899   3.840   5.634  0.0868  0.1904 -0.7556
 2482TIP3   OH228860   4.636   3.348  12.152  0.2172  0.3602  0.5773
 2482TIP3    H128861   4.619   3.383  12.239 -0.0719 -0.3185  0.8031
 2482TIP3    H228862   4.639   3.253  12.165  0.0301  0.2481 -0.1792
 2483TIP3   OH228863   5.997   5.730  16.949  0.2381  0.9534 -0.2675
 2483TIP3    H128864   6.058   5.799  16.921  2.4246 -0.7805 -0.0687
 2483TIP3    H228865   6.001   5.665  16.879 -1.4923  0.8010 -0.2677
 2484TIP3   OH228866   2.892   3.571  11.755 -0.3782  0.1494 -0.3564
 2484TIP3    H128867   2.808   3.528  11.772  0.4117 -1.4916 -0.3880
 2484TIP3    H228868   2.941   3.507  11.703  1.3473  0.5607  0.7040
 2485TIP3   OH228869   1.659   3.044   4.440 -0.6837 -0.0472  0.1522
 2485TIP3    H128870   1.639   3.109   4.373  1.0214  1.4027  0.9764
 2485TIP3    H228871   1.754   3.038   4.440 -0.7528 -1.9814  0.6730
 2486TIP3   OH228872   3.935   0.028  12.722 -0.4800  0.3951 -0.4045
 2486TIP3    H128873   3.855   0.071  12.752  0.7451  2.0860  0.6316
 2486TIP3    H228874   3.977   0.094  12.666  1.0047  0.2232  0.4628
 2487TIP3   OH228875   2.979   2.873  12.552  0.0556 -0.1386  0.4195
 2487TIP3    H128876   2.971   2.863  12.647  1.2797  0.9572  0.6561
 2487TIP3    H228877   2.927   2.951  12.532 -0.2402 -0.3951  0.1648
 2488TIP3   OH228878   1.708   5.301  14.914 -0.5063 -0.2569 -0.5708
 2488TIP3    H128879   1.692   5.262  15.000  2.2157  0.2433  0.2573
 2488TIP3    H228880   1.708   5.395  14.930 -3.2219  0.0670 -1.8388
 2489TIP3   OH228881   4.247   0.969   3.634 -0.0731  0.2253 -0.1538
 2489TIP3    H128882   4.263   0.897   3.696  0.8841 -0.1556 -0.8189
 2489TIP3    H228883   4.233   0.926   3.550  2.2621  0.8317 -0.9313
 2490TIP3   OH228884   1.536   5.231  13.282 -0.3691  0.7405 -0.2315
 2490TIP3    H128885   1.614   5.242  13.229  0.6041 -2.1773  0.4161
 2490TIP3    H228886   1.466   5.214  13.219 -0.1614  1.6348 -0.7238
 2491TIP3   OH228887   0.679   1.862   0.066  0.2560  0.0209  0.0808
 2491TIP3    H128888   0.749   1.922   0.091  0.0526 -0.5791  2.3231
 2491TIP3    H228889   0.621   1.860   0.143 -0.5215 -1.8931 -0.5073
 2492TIP3   OH228890   1.056   3.871  11.887 -0.4750 -0.3866 -0.6487
 2492TIP3    H128891   1.003   3.856  11.966 -0.4902  0.0275 -0.5731
 2492TIP3    H228892   0.996   3.914  11.826 -0.8893 -2.0460 -1.4629
 2493TIP3   OH228893   5.659   1.060  14.649 -0.1813 -0.0681 -0.2285
 2493TIP3    H128894   5.586   1.001  14.632  0.1641 -0.8059  0.7704
 2493TIP3    H228895   5.715   1.053  14.571  0.1063 -1.4485  0.0909
 2494TIP3   OH228896   6.010   4.762  11.767  0.0581 -0.4301 -0.4990
 2494TIP3    H128897   6.055   4.846  11.777  0.3819 -0.7739  1.2060
 2494TIP3    H228898   5.937   4.781  11.707 -0.9942  1.5384  1.2605
 2495TIP3   OH228899   1.998   2.966   3.493 -0.0586 -0.2872 -0.0113
 2495TIP3    H128900   1.915   2.952   3.540  0.2543 -0.1629  0.5850
 2495TIP3    H228901   2.004   2.891   3.433 -1.1410  0.2804 -0.8695
 2496TIP3   OH228902   3.727   5.665  16.725  0.5719 -0.6970  0.0588
 2496TIP3    H128903   3.726   5.591  16.786  1.5933 -0.8379 -0.0761
 2496TIP3    H228904   3.689   5.629  16.644 -1.3907 -0.3305  0.7712
 2497TIP3   OH228905   0.922   4.996  10.998  0.9500 -0.6547  0.0039
 2497TIP3    H128906   0.863   4.921  10.988  0.1797  0.0782 -1.1527
 2497TIP3    H228907   0.906   5.050  10.921  1.8317  0.4762  0.5823
 2498TIP3   OH228908   6.094   3.310  15.233  0.1349  0.1912 -0.0385
 2498TIP3    H128909   6.002   3.294  15.251  0.3607 -0.4282  0.6199
 2498TIP3    H228910   6.141   3.254  15.295  0.9590  1.7032  0.7545
 2499TIP3   OH228911   4.151   2.081   6.697 -0.3024 -0.2537 -0.0473
 2499TIP3    H128912   4.238   2.073   6.735 -0.8425 -0.9190  1.1385
 2499TIP3    H228913   4.092   2.060   6.770 -1.4663  0.6987 -0.6806
 2500TIP3   OH228914   4.180   6.254   1.459  0.2016  0.6121  0.2607
 2500TIP3    H128915   4.099   6.206   1.442  1.2012 -1.2394  0.3854
 2500TIP3    H228916   4.177   6.329   1.401 -0.8447 -0.3524 -0.9767
 2501TIP3   OH228917   0.254   6.650   5.737 -0.1614 -0.2955  0.0353
 2501TIP3    H128918   0.199   6.651   5.815  0.4792 -0.8504  0.5084
 2501TIP3    H228919   0.320   6.583   5.755 -0.5396 -1.0836 -1.3708
 2502TIP3   OH228920   0.022   5.589   2.336  0.3691 -0.2100  0.8742
 2502TIP3    H128921  -0.043   5.619   2.401  0.3466  0.1487  0.6916
 2502TIP3    H228922   0.011   5.494   2.333 -3.4279  0.0800 -2.5188
 2503TIP3   OH228923   1.402   0.746  11.665 -0.1601 -0.3082  0.7655
 2503TIP3    H128924   1.321   0.791  11.642  1.4839  2.1089 -0.7134
 2503TIP3    H228925   1.426   0.782  11.750 -0.3307 -0.6579  0.9692
 2504TIP3   OH228926   6.464   4.356   4.936 -0.1508 -0.4483 -0.1350
 2504TIP3    H128927   6.391   4.294   4.940 -2.9280  2.4530  4.9875
 2504TIP3    H228928   6.529   4.320   4.996 -0.2364 -0.1077  0.1690
 2505TIP3   OH228929   5.081   0.197  11.320  0.5708  0.8287 -0.1218
 2505TIP3    H128930   5.086   0.208  11.225  0.2497  0.8016 -0.1418
 2505TIP3    H228931   5.159   0.243  11.353  1.3812 -0.2526 -0.4787
 2506TIP3   OH228932   4.041   4.024  14.839  0.4675  0.4238 -0.3682
 2506TIP3    H128933   4.009   4.111  14.864  0.9782  0.1502  1.3970
 2506TIP3    H228934   4.107   4.042  14.771 -0.6828  1.2471 -1.3199
 2507TIP3   OH228935   4.057   6.432  16.920  0.4646 -0.2173  0.1389
 2507TIP3    H128936   4.125   6.365  16.928  0.0549 -0.4616  2.1479
 2507TIP3    H228937   4.097   6.499  16.864  1.6128 -1.2288 -0.3159
 2508TIP3   OH228938   4.650   4.603   2.560  0.3047  0.3196 -0.2071
 2508TIP3    H128939   4.627   4.693   2.538  1.5387  0.8692  0.6170
 2508TIP3    H228940   4.707   4.575   2.488  2.2562  1.2292  0.9079
 2509TIP3   OH228941   2.761   1.489  12.519  0.2549  0.8445  0.2545
 2509TIP3    H128942   2.844   1.477  12.474 -0.0334  3.6041 -1.2425
 2509TIP3    H228943   2.779   1.553  12.587 -0.5080  0.9424  0.3745
 2510TIP3   OH228944   5.465   1.863  16.195  0.0834 -0.1561  0.0149
 2510TIP3    H128945   5.538   1.816  16.235 -1.4095 -3.4022 -0.7505
 2510TIP3    H228946   5.492   1.874  16.104 -1.2733 -3.9846 -1.0611
 2511TIP3   OH228947   5.723   1.468  11.208 -0.2047 -0.4107  0.1219
 2511TIP3    H128948   5.698   1.533  11.143 -1.7846  0.9958  1.9885
 2511TIP3    H228949   5.814   1.489  11.230 -0.4203  0.6134  0.0615
 2512TIP3   OH228950   5.790   2.675  12.254 -0.5788  0.4908 -0.2231
 2512TIP3    H128951   5.822   2.604  12.197  1.1805 -0.1124  1.3920
 2512TIP3    H228952   5.833   2.754  12.220  3.2855 -0.3603  2.1306
 2513TIP3   OH228953   3.280   1.993  11.004  0.0934 -0.1010 -0.2710
 2513TIP3    H128954   3.239   1.988  11.090  0.6130 -1.9433 -0.0723
 2513TIP3    H228955   3.313   2.082  10.997 -2.1640  0.8619  0.3596
 2514TIP3   OH228956   3.659   1.681   4.434  0.2509  0.9955  0.5967
 2514TIP3    H128957   3.597   1.620   4.476  2.5120 -0.4237  2.0595
 2514TIP3    H228958   3.635   1.767   4.468 -0.8372  0.4738  1.2017
 2515TIP3   OH228959   0.950   2.907  12.821 -0.7140 -0.2848 -0.2603
 2515TIP3    H128960   0.896   2.876  12.893 -2.4796 -0.4674 -1.6021
 2515TIP3    H228961   0.938   2.841  12.752  0.4452  0.1905 -0.9408
 2516TIP3   OH228962   0.858   5.511  12.180 -0.3857 -0.6051 -0.5982
 2516TIP3    H128963   0.890   5.467  12.258  0.3052 -1.2957 -1.2494
 2516TIP3    H228964   0.798   5.449  12.140 -0.1204 -0.5917 -1.0304
 2517TIP3   OH228965   2.496   2.447  11.113  0.1882  0.1849 -0.2577
 2517TIP3    H128966   2.442   2.452  11.191 -0.7142  2.1693 -0.9538
 2517TIP3    H228967   2.566   2.510  11.127  1.8188 -1.6294  0.1924
 2518TIP3   OH228968   3.824   5.838  12.937 -0.7414  0.1793 -0.1823
 2518TIP3    H128969   3.793   5.754  12.969 -1.4289 -0.0172 -1.2903
 2518TIP3    H228970   3.807   5.835  12.842 -2.1457  2.0926 -0.0615
 2519TIP3   OH228971   6.144   6.608   1.402  0.1014 -0.2234  0.1307
 2519TIP3    H128972   6.182   6.694   1.385  0.0945 -0.4493 -1.1331
 2519TIP3    H228973   6.120   6.610   1.495  0.3594  1.0273  0.1860
 2520TIP3   OH228974   1.734   0.296   1.202  0.5506 -0.1297 -0.0919
 2520TIP3    H128975   1.787   0.349   1.261 -0.2408  0.7491 -0.1515
 2520TIP3    H228976   1.733   0.209   1.241  0.2925  0.3630  1.0216
 2521TIP3   OH228977   0.198   4.958  11.826  0.7528  0.6459 -0.3235
 2521TIP3    H128978   0.196   4.864  11.810  0.9675 -0.0708  3.0052
 2521TIP3    H228979   0.106   4.982  11.841  0.5884  1.2138 -2.0230
 2522TIP3   OH228980   3.716   4.454   4.644 -0.3154 -0.0118  0.3521
 2522TIP3    H128981   3.792   4.484   4.594 -1.7595  2.0654 -0.7847
 2522TIP3    H228982   3.688   4.374   4.600  0.0975  0.2418 -0.3879
 2523TIP3   OH228983   4.696   6.054   0.613  0.4680 -0.1702  0.0361
 2523TIP3    H128984   4.709   6.148   0.608 -1.1246  0.0242 -0.8012
 2523TIP3    H228985   4.626   6.035   0.551  1.4695 -2.0597 -0.6094
 2524TIP3   OH228986   2.358   5.084  13.497  0.1744  0.4997 -0.0270
 2524TIP3    H128987   2.418   5.028  13.546 -0.2463  0.0333 -0.0404
 2524TIP3    H228988   2.362   5.169  13.542  1.5117  0.7484 -0.5505
 2525TIP3   OH228989   1.125   4.855   4.546 -0.4696 -0.3124 -0.0432
 2525TIP3    H128990   1.159   4.921   4.606 -1.4777  0.5716 -0.4211
 2525TIP3    H228991   1.154   4.883   4.459  0.9263 -1.5530 -0.0316
 2526TIP3   OH228992   2.708   2.637   4.365 -0.5472  0.4242  0.5035
 2526TIP3    H128993   2.709   2.608   4.274 -1.2350  1.4484  0.1440
 2526TIP3    H228994   2.717   2.557   4.417 -2.5507 -0.4575 -0.4250
 2527TIP3   OH228995   2.269   2.726   1.038 -0.0166 -0.0142  0.3968
 2527TIP3    H128996   2.220   2.645   1.051 -2.1919  1.2416  0.5758
 2527TIP3    H228997   2.297   2.723   0.946 -0.5839 -0.7239  0.2374
 2528TIP3   OH228998   6.147   3.642  13.864 -0.8324 -0.3723 -0.3112
 2528TIP3    H128999   6.110   3.602  13.785 -0.1836  0.5168 -1.0886
 2528TIP3    H229000   6.133   3.736  13.852  0.8020 -0.0818 -0.1903
 2529TIP3   OH229001   0.628   2.257  15.245  0.2431 -0.1103  0.2796
 2529TIP3    H129002   0.719   2.239  15.219 -0.1491 -0.1221 -1.1441
 2529TIP3    H229003   0.635   2.325  15.312  1.3705 -1.0211  1.1422
 2530TIP3   OH229004   6.308   6.017  11.001 -0.1817 -0.0255  0.3496
 2530TIP3    H129005   6.363   6.094  11.011 -0.4000  0.3531 -1.1906
 2530TIP3    H229006   6.244   6.024  11.072 -0.4964  1.4659 -0.0470
 2531TIP3   OH229007   0.450   2.463   0.398  0.3532  0.0057 -0.2983
 2531TIP3    H129008   0.421   2.547   0.364  0.9131 -0.1547 -1.2044
 2531TIP3    H229009   0.528   2.442   0.347 -0.5915 -1.7484 -1.1046
 2532TIP3   OH229010   3.265   5.528  11.594  0.5401 -1.0456 -0.2069
 2532TIP3    H129011   3.351   5.526  11.553  1.2771 -0.8884  1.2479
 2532TIP3    H229012   3.203   5.526  11.521  1.6855  3.8962 -1.7307
 2533TIP3   OH229013   3.859   2.764   5.212  0.2272  0.2373 -0.8336
 2533TIP3    H129014   3.867   2.738   5.120 -1.2199 -1.1803 -0.6101
 2533TIP3    H229015   3.810   2.692   5.253  1.4418  0.4880  1.2171
 2534TIP3   OH229016   3.767   1.073  16.525  0.0348 -0.1700  0.5344
 2534TIP3    H129017   3.688   1.028  16.495  0.1323 -1.5442  2.1932
 2534TIP3    H229018   3.837   1.033  16.473 -0.2425  0.4280 -0.3170
 2535TIP3   OH229019   5.350   6.081  11.096  0.8538  0.1196 -0.7541
 2535TIP3    H129020   5.421   6.026  11.062  1.3219 -0.0987  0.5101
 2535TIP3    H229021   5.315   6.032  11.170  1.9676  1.9191  1.0581
 2536TIP3   OH229022   5.928   2.866   1.443 -0.2089  0.0901  0.2383
 2536TIP3    H129023   5.869   2.935   1.411 -0.4278  0.3757  1.2297
 2536TIP3    H229024   6.010   2.882   1.396 -0.2766  0.9942  0.3997
 2537TIP3   OH229025   0.140   0.939  15.688 -0.0336 -0.2098 -0.3398
 2537TIP3    H129026   0.057   0.985  15.694  0.3673  0.8933 -2.3157
 2537TIP3    H229027   0.128   0.876  15.616 -0.3459 -2.8451  1.8465
 2538TIP3   OH229028   3.923   6.202   3.601 -0.0211  0.5977 -0.2540
 2538TIP3    H129029   3.911   6.292   3.632  3.4114  0.7445  1.1034
 2538TIP3    H229030   3.895   6.147   3.674  0.4789  0.7038  0.0287
 2539TIP3   OH229031   1.557   3.574  12.857 -0.4813  0.3701  0.4068
 2539TIP3    H129032   1.563   3.634  12.931 -1.8909  0.2092  0.6678
 2539TIP3    H229033   1.528   3.491  12.896 -1.0831  0.2425 -0.2967
 2540TIP3   OH229034   6.462   4.840   0.072 -0.1502 -0.8495  0.3583
 2540TIP3    H129035   6.467   4.859  -0.022  1.6421  1.1354  0.7716
 2540TIP3    H229036   6.519   4.763   0.083  1.1676  0.0355  0.0210
 2541TIP3   OH229037   1.625   1.835  17.148 -0.7137  0.0939 -0.1557
 2541TIP3    H129038   1.598   1.927  17.141 -1.4620 -0.0732  0.4016
 2541TIP3    H229039   1.630   1.819  17.242 -1.0767 -0.5760 -0.2421
 2542TIP3   OH229040   0.627   4.877   0.957 -0.1249  0.0766 -0.2239
 2542TIP3    H129041   0.538   4.844   0.951 -0.4434  0.8535  0.0627
 2542TIP3    H229042   0.678   4.802   0.988 -0.9390  0.0223  1.0636
 2543TIP3   OH229043   0.481   3.223   5.079 -0.0113  0.3371  0.6058
 2543TIP3    H129044   0.519   3.170   5.150 -0.0086  0.2576  0.5458
 2543TIP3    H229045   0.393   3.244   5.109 -0.3473 -0.4955  0.2200
 2544TIP3   OH229046   3.396   4.767  14.101  0.4958  0.3551  0.0939
 2544TIP3    H129047   3.452   4.781  14.176 -0.9341  0.5445  1.1771
 2544TIP3    H229048   3.405   4.674  14.080  3.1841  0.8628 -1.4574
 2545TIP3   OH229049   3.819   0.834  14.615  0.3341  0.1059 -1.0003
 2545TIP3    H129050   3.873   0.764  14.651 -0.0350  0.5806  0.5432
 2545TIP3    H229051   3.858   0.914  14.649 -0.7023  0.5118 -0.7498
 2546TIP3   OH229052   6.376   6.666   2.870  0.2522  0.5516  0.0431
 2546TIP3    H129053   6.454   6.610   2.868 -1.0915 -1.4154 -1.6601
 2546TIP3    H229054   6.397   6.734   2.934  4.3783  1.6834 -2.1386
 2547TIP3   OH229055   0.934   5.071   3.788  0.0327 -0.4160 -0.1398
 2547TIP3    H129056   0.906   5.129   3.718 -0.8519 -0.9967 -0.2809
 2547TIP3    H229057   0.856   5.019   3.809  0.9765 -2.0860 -0.5403
 2548TIP3   OH229058   6.121   0.659  17.084 -0.6619 -0.4784 -0.5321
 2548TIP3    H129059   6.165   0.713  17.019  0.0048 -0.2562  0.1028
 2548TIP3    H229060   6.040   0.706  17.104 -0.4490 -0.1108 -0.5455
 2549TIP3   OH229061   3.552   1.347  13.719  0.3615 -0.3502 -0.5502
 2549TIP3    H129062   3.632   1.296  13.710  0.1772 -0.9704  1.0144
 2549TIP3    H229063   3.555   1.381  13.808 -0.0434  1.5173 -1.1992
 2550TIP3   OH229064   2.393   1.770   3.505 -0.3491 -0.0579 -0.1640
 2550TIP3    H129065   2.370   1.795   3.594  0.2401  2.1948 -0.5671
 2550TIP3    H229066   2.361   1.680   3.495 -2.1329  0.3116  1.6759
 2551TIP3   OH229067   0.317   2.409  12.785 -0.1571 -0.0004  1.2048
 2551TIP3    H129068   0.260   2.349  12.738  0.8199  0.9117 -1.3234
 2551TIP3    H229069   0.262   2.448  12.852 -1.7532 -1.1037  0.5747
 2552TIP3   OH229070   5.999   1.229   3.693 -0.0153  0.5742  0.4792
 2552TIP3    H129071   5.987   1.290   3.766  1.5578 -0.9517  2.1153
 2552TIP3    H229072   6.076   1.263   3.647  0.3901  0.2728  0.9252
 2553TIP3   OH229073   2.044   4.292   4.408  0.1780  0.2485  0.2423
 2553TIP3    H129074   2.044   4.298   4.313 -0.0769  2.5373  0.3410
 2553TIP3    H229075   2.125   4.245   4.429 -0.5690 -1.7975 -1.1154
 2554TIP3   OH229076   6.348   5.872  12.514  0.2205  0.7159  0.1641
 2554TIP3    H129077   6.423   5.851  12.460  0.6350  2.6034 -0.0835
 2554TIP3    H229078   6.273   5.831  12.470  0.5982  1.9215 -1.6888
 2555TIP3   OH229079   6.715   5.199  14.994 -0.3002 -0.4691 -0.3719
 2555TIP3    H129080   6.670   5.142  15.056 -0.2047 -0.4761 -0.3097
 2555TIP3    H229081   6.686   5.287  15.018  0.0668 -0.4365 -0.0455
 2556TIP3   OH229082   4.185   1.066   1.722  0.0804  0.0051 -0.1260
 2556TIP3    H129083   4.276   1.037   1.730  0.2039  0.0965 -1.0834
 2556TIP3    H229084   4.134   0.996   1.763  0.5174 -0.4964 -0.4257
 2557TIP3   OH229085   3.526   5.823  11.103  0.0260  0.2593 -0.5738
 2557TIP3    H129086   3.446   5.826  11.049 -0.6463  2.1964  0.4201
 2557TIP3    H229087   3.593   5.790  11.044 -0.9907  0.9548 -2.2102
 2558TIP3   OH229088   1.170   3.323   0.064  0.1054 -0.4992  0.1159
 2558TIP3    H129089   1.161   3.337  -0.030  0.5256 -1.6218 -0.1043
 2558TIP3    H229090   1.080   3.327   0.098 -0.0653 -0.2990 -0.3494
 2559TIP3   OH229091   5.635   2.133  17.161  0.1615 -0.0061 -0.0878
 2559TIP3    H129092   5.565   2.121  17.096 -0.6965  0.9010  0.6323
 2559TIP3    H229093   5.612   2.214  17.206  0.7420 -0.6087  1.3492
 2560TIP3   OH229094   1.517   6.580   4.875  0.5659  0.0637  0.9618
 2560TIP3    H129095   1.592   6.621   4.916  1.5470 -0.7308  0.0142
 2560TIP3    H229096   1.505   6.628   4.793  1.5433 -1.2973 -0.0165
 2561TIP3   OH229097   2.210   5.185  13.935 -0.2278 -0.1288 -0.3078
 2561TIP3    H129098   2.276   5.198  13.866  0.0054  0.5775  0.0316
 2561TIP3    H229099   2.156   5.264  13.931  1.5521  1.3613  2.1993
 2562TIP3   OH229100   2.454   5.227   3.374  0.3955  0.6048 -0.2484
 2562TIP3    H129101   2.514   5.209   3.447 -0.2704 -1.0310 -0.0494
 2562TIP3    H229102   2.367   5.209   3.410 -0.2085  2.4327 -0.6907
 2563TIP3   OH229103   6.434   5.593  16.305 -0.2597 -0.1425  0.4240
 2563TIP3    H129104   6.451   5.572  16.213 -1.4121  0.2508  0.1006
 2563TIP3    H229105   6.438   5.689  16.309 -0.1200 -0.1615  0.8102
 2564TIP3   OH229106   6.525   3.729   4.728  0.8234 -0.5485 -0.1667
 2564TIP3    H129107   6.456   3.687   4.781  0.6817  1.8156  1.6946
 2564TIP3    H229108   6.490   3.728   4.639 -0.6965 -1.2768  0.3977
 2565TIP3   OH229109   3.094   5.963   5.982 -0.0177  0.4925  0.5470
 2565TIP3    H129110   3.176   5.981   6.028 -0.8477 -1.0226  2.7988
 2565TIP3    H229111   3.105   5.873   5.950 -0.3911  0.6853 -0.1353
 2566TIP3   OH229112   2.136   5.240  15.288 -0.3745  0.0191 -0.1922
 2566TIP3    H129113   2.177   5.313  15.334 -0.3416  0.3718 -0.7671
 2566TIP3    H229114   2.165   5.250  15.197 -1.7754  0.3089 -0.6334
 2567TIP3   OH229115   4.917   6.261   2.690  0.2653 -0.2863 -0.0979
 2567TIP3    H129116   4.957   6.262   2.604  0.6414 -1.5505  0.0409
 2567TIP3    H229117   4.888   6.171   2.702 -0.9258  0.1578  0.5886
 2568TIP3   OH229118   2.839   6.286   2.764  0.8975  0.9624  0.0320
 2568TIP3    H129119   2.820   6.340   2.841 -2.8045  0.1073 -0.0818
 2568TIP3    H229120   2.832   6.345   2.690 -1.2226  0.8160  0.0470
 2569TIP3   OH229121   2.772   4.951   5.442 -0.1229 -0.0537  0.1245
 2569TIP3    H129122   2.685   4.977   5.411  0.4835  0.5801 -1.1587
 2569TIP3    H229123   2.788   4.868   5.398 -0.6555 -0.9241  1.5210
 2570TIP3   OH229124   1.601   1.848  14.994  0.4270 -0.4077  0.0339
 2570TIP3    H129125   1.552   1.769  14.969 -0.6178 -0.6305  2.4679
 2570TIP3    H229126   1.552   1.920  14.955  0.3506 -0.8363 -0.6871
 2571TIP3   OH229127   1.313   4.494   1.046 -0.4668 -0.7383 -0.4104
 2571TIP3    H129128   1.252   4.421   1.035 -0.8702 -0.0671 -3.3265
 2571TIP3    H229129   1.320   4.534   0.959  0.7574  1.9118  0.7746
 2572TIP3   OH229130   6.132   1.171  14.623  0.1371 -0.6127  0.2745
 2572TIP3    H129131   6.051   1.134  14.658 -1.1574  0.7133 -1.1259
 2572TIP3    H229132   6.156   1.239  14.686 -0.1811 -0.6089  0.3941
 2573TIP3   OH229133   4.328   0.203  16.762  0.5702 -0.3428 -0.4912
 2573TIP3    H129134   4.249   0.233  16.807  1.5837 -1.3444  2.1968
 2573TIP3    H229135   4.399   0.252  16.805  1.5434 -0.5435 -1.8145
 2574TIP3   OH229136   2.084   4.469  10.972 -0.5615  0.0479  0.7022
 2574TIP3    H129137   1.999   4.507  10.952 -0.3380 -0.2979 -1.0235
 2574TIP3    H229138   2.102   4.409  10.900 -0.4644 -2.6712  2.7892
 2575TIP3   OH229139   5.743   2.591   1.725 -0.1672 -0.2203 -0.5329
 2575TIP3    H129140   5.662   2.638   1.708  0.1500  0.7036  0.4383
 2575TIP3    H229141   5.776   2.568   1.637 -1.0738  0.0725 -0.9584
 2576TIP3   OH229142   5.930   5.203   3.078 -0.6206 -0.0383 -0.1406
 2576TIP3    H129143   5.923   5.172   2.987 -1.0197  0.3087 -0.2314
 2576TIP3    H229144   6.016   5.244   3.082 -0.5122 -0.2440 -0.3014
 2577TIP3   OH229145   3.031   6.407  13.229 -0.0632  0.7377  0.5641
 2577TIP3    H129146   2.943   6.372  13.216  0.1527  0.3325  0.1091
 2577TIP3    H229147   3.071   6.404  13.141  1.2647 -1.5157  1.1487
 2578TIP3   OH229148   3.881   1.676  15.852 -0.1552 -0.5720 -0.5444
 2578TIP3    H129149   3.907   1.667  15.944 -0.4866  0.3175 -0.3563
 2578TIP3    H229150   3.897   1.768  15.832 -0.8538 -0.5720 -1.1376
 2579TIP3   OH229151   6.175   1.939   0.554  0.2551 -0.1624 -0.4135
 2579TIP3    H129152   6.212   1.929   0.642  0.3085  1.2216 -0.2504
 2579TIP3    H229153   6.175   1.851   0.518  1.0461 -0.6299  0.6576
 2580TIP3   OH229154   3.580   1.962   3.831 -0.0940 -0.1341 -0.1649
 2580TIP3    H129155   3.668   1.925   3.827 -0.2680 -0.5930  0.1058
 2580TIP3    H229156   3.593   2.054   3.855  0.3254 -0.1137 -0.4742
 2581TIP3   OH229157   0.076   2.387  15.728 -0.3510  0.4090 -0.0326
 2581TIP3    H129158   0.002   2.440  15.757  0.2304  2.3758 -1.8340
 2581TIP3    H229159   0.152   2.427  15.770 -0.1462 -0.8448  0.8483
 2582TIP3   OH229160   4.731   5.323  15.985  0.4038 -0.0283  0.2354
 2582TIP3    H129161   4.809   5.301  15.933  0.3961 -0.2523  0.3217
 2582TIP3    H229162   4.663   5.339  15.919  0.2413 -0.8780  0.1891
 2583TIP3   OH229163   4.127   4.646  16.825  0.1264 -0.4174  0.1660
 2583TIP3    H129164   4.124   4.741  16.839  1.4881  0.0522 -2.2043
 2583TIP3    H229165   4.035   4.621  16.813 -0.2968  0.4955  1.3042
 2584TIP3   OH229166   0.159   5.448   1.185  0.0407  0.4955  0.0443
 2584TIP3    H129167   0.105   5.375   1.212  0.0795  0.2745 -0.4682
 2584TIP3    H229168   0.149   5.453   1.090 -1.8820  2.6742  0.2761
 2585TIP3   OH229169   3.846   2.433   1.967 -0.1010  0.0967  0.1315
 2585TIP3    H129170   3.852   2.526   1.943 -0.3138  0.4404  1.3688
 2585TIP3    H229171   3.888   2.387   1.894 -1.2408  1.0558 -1.1734
 2586TIP3   OH229172   4.661   2.212   0.490 -0.3110 -0.4084 -0.5288
 2586TIP3    H129173   4.619   2.285   0.443 -2.0911 -0.0658  1.4390
 2586TIP3    H229174   4.651   2.137   0.432 -0.9375  0.3352 -1.4099
 2587TIP3   OH229175   1.028   5.309   4.077 -0.3357 -0.3420 -0.9177
 2587TIP3    H129176   1.032   5.392   4.028 -0.4690 -0.0775 -0.4873
 2587TIP3    H229177   1.027   5.336   4.169  1.9243 -0.8916 -0.6900
 2588TIP3   OH229178   4.948   0.620   3.721 -0.0028 -0.1038 -0.2218
 2588TIP3    H129179   5.025   0.608   3.776  0.3194 -0.7096 -0.7941
 2588TIP3    H229180   4.982   0.629   3.632 -0.6261 -1.1389 -0.5853
 2589TIP3   OH229181   4.712   5.275  12.405 -0.0267  0.2215  0.2458
 2589TIP3    H129182   4.752   5.280  12.491  1.3313 -0.4356 -0.3214
 2589TIP3    H229183   4.721   5.183  12.379  2.1473  0.8887 -1.7394
 2590TIP3   OH229184   6.081   4.524  16.258  0.6361 -0.1147 -0.1857
 2590TIP3    H129185   6.098   4.552  16.168  2.0933  0.7848  0.3413
 2590TIP3    H229186   6.024   4.447  16.249  0.3115  0.2871 -1.8406
 2591TIP3   OH229187   3.778   4.989   5.231  0.0054  0.2776  0.1205
 2591TIP3    H129188   3.755   5.047   5.159 -0.9333 -0.4744 -0.2109
 2591TIP3    H229189   3.867   4.959   5.210 -0.1026  0.3820 -0.5098
 2592TIP3   OH229190   3.582   2.264  13.582 -0.5732 -0.1120 -0.4913
 2592TIP3    H129191   3.500   2.218  13.598 -0.5576  0.2337  0.6861
 2592TIP3    H229192   3.560   2.357  13.590  0.1587 -0.0396  1.1914
 2593TIP3   OH229193   0.264   5.490  15.308 -0.8215  0.3288 -0.7368
 2593TIP3    H129194   0.282   5.418  15.247  0.5414  0.3900 -0.4372
 2593TIP3    H229195   0.307   5.566  15.267 -0.6531  0.5568 -0.1429
 2594TIP3   OH229196   4.496   4.811   1.184  0.2204  0.2033  0.6333
 2594TIP3    H129197   4.556   4.792   1.257  0.2478 -0.1215  0.5274
 2594TIP3    H229198   4.430   4.742   1.189  0.1032  0.3043  0.4767
 2595TIP3   OH229199   5.238   1.217  13.393 -0.6239 -0.0311  0.3126
 2595TIP3    H129200   5.162   1.188  13.443 -1.0488 -1.4649 -1.0884
 2595TIP3    H229201   5.299   1.144  13.397 -1.1027 -0.6607 -2.0647
 2596TIP3   OH229202   3.017   6.461   0.134 -0.4493  0.1405 -0.1056
 2596TIP3    H129203   2.932   6.471   0.176 -1.4417  1.7828 -2.3007
 2596TIP3    H229204   3.041   6.549   0.105 -0.2069 -0.8685 -3.4569
 2597TIP3   OH229205   5.534   5.642  12.308 -0.8124 -0.1632  0.4715
 2597TIP3    H129206   5.511   5.702  12.379  0.1549  1.0069 -0.1722
 2597TIP3    H229207   5.450   5.619  12.268 -1.4158 -1.1566  2.1923
 2598TIP3   OH229208   0.046   1.872   4.264  0.2720  0.6038  0.4068
 2598TIP3    H129209   0.063   1.938   4.331 -0.7893  0.7293  0.5698
 2598TIP3    H229210  -0.041   1.894   4.231  0.8522  0.6902 -1.1805
 2599TIP3   OH229211   1.426   3.031   3.248  0.5133 -0.1201  0.1891
 2599TIP3    H129212   1.477   3.063   3.322  0.0891  3.8901 -0.9976
 2599TIP3    H229213   1.344   3.000   3.288  0.3486  1.7949  1.4857
 2600TIP3   OH229214   0.454   2.512  15.353  0.2779  0.0700 -0.3471
 2600TIP3    H129215   0.444   2.607  15.359  2.5487  0.4081 -0.7998
 2600TIP3    H229216   0.451   2.493  15.259 -0.8073 -0.4119 -0.2267
 2601TIP3   OH229217   6.439   2.408   3.825 -0.4223  0.2542  0.1925
 2601TIP3    H129218   6.484   2.470   3.882  0.4905  0.2487 -0.4887
 2601TIP3    H229219   6.392   2.463   3.762  0.3154  0.2633 -0.3573
 2602TIP3   OH229220   2.469   6.559   0.030 -0.3712 -0.5672 -0.4728
 2602TIP3    H129221   2.461   6.559   0.125  3.7424 -1.0615  0.0581
 2602TIP3    H229222   2.401   6.498   0.000 -2.3992  0.3096  1.9675
 2603TIP3   OH229223   5.670   6.143   0.391  0.3882  0.2464 -0.2618
 2603TIP3    H129224   5.676   6.050   0.372  0.6645  0.2228 -0.0590
 2603TIP3    H229225   5.710   6.153   0.477  1.0819  0.6743 -0.6247
 2604TIP3   OH229226   4.603   3.724   1.458 -0.0419  0.0737 -0.0881
 2604TIP3    H129227   4.671   3.733   1.392 -0.9124  0.4481 -0.9497
 2604TIP3    H229228   4.533   3.676   1.414 -0.0784 -0.9290  1.0001
 2605TIP3   OH229229   0.094   1.596  16.702  0.2016 -0.6740  0.8735
 2605TIP3    H129230   0.100   1.504  16.728 -0.7167 -0.5618  1.5493
 2605TIP3    H229231   0.137   1.600  16.617 -2.9316 -2.4846 -0.9727
 2606TIP3   OH229232   4.022   0.573   1.828  0.3707  0.5989 -0.0707
 2606TIP3    H129233   3.974   0.600   1.906 -0.1259  0.0830 -0.1859
 2606TIP3    H229234   3.954   0.560   1.762  0.7180  0.3489 -0.3832
 2607TIP3   OH229235   5.899   0.997  10.981 -0.6671  0.0056  0.3462
 2607TIP3    H129236   5.888   0.934  11.052 -2.2872 -0.0999  0.0385
 2607TIP3    H229237   5.869   0.951  10.903  0.9200  0.1849 -0.4147
 2608TIP3   OH229238   4.440   6.485  17.008  0.7404 -0.6969 -0.0146
 2608TIP3    H129239   4.503   6.434  16.957 -0.9744 -0.9363 -1.9888
 2608TIP3    H229240   4.439   6.571  16.965 -0.4291 -0.7688 -0.1460
 2609TIP3   OH229241   5.418   1.224  13.774 -0.2573 -0.0511 -0.0362
 2609TIP3    H129242   5.340   1.169  13.768  0.2651 -0.7584 -0.5694
 2609TIP3    H229243   5.488   1.164  13.801  0.2680  0.4030 -0.3561
 2610TIP3   OH229244   6.183   2.166   2.289 -0.1432  0.4879  0.0547
 2610TIP3    H129245   6.244   2.180   2.216  1.2524 -0.2733  1.0503
 2610TIP3    H229246   6.232   2.114   2.353 -2.0810 -0.8238  0.5707
 2611TIP3   OH229247   1.289   5.519   2.299  0.3316  0.7320 -0.3854
 2611TIP3    H129248   1.280   5.611   2.326 -1.2156  0.4388  0.1692
 2611TIP3    H229249   1.231   5.511   2.223 -0.7793 -0.1501  0.5286
 2612TIP3   OH229250   3.925   4.328   1.382  0.2281 -0.5160 -0.4707
 2612TIP3    H129251   3.857   4.271   1.345 -0.2194 -0.6100  0.4579
 2612TIP3    H229252   3.876   4.400   1.422  0.6498 -0.7295  0.4587
 2613TIP3   OH229253   4.945   3.719   3.978 -0.1205  0.0550  0.4183
 2613TIP3    H129254   4.911   3.796   4.023  0.6270  1.2025 -0.9262
 2613TIP3    H229255   5.039   3.722   3.993  0.0419  0.0218 -0.5714
 2614TIP3   OH229256   4.298   6.460  16.572 -0.5447  0.1579 -0.1452
 2614TIP3    H129257   4.329   6.391  16.631  1.2881  0.6683 -0.4689
 2614TIP3    H229258   4.213   6.427  16.541  0.7685 -2.5573 -1.1970
 2615TIP3   OH229259   0.002   5.293   6.336  0.2859  0.4103  0.0643
 2615TIP3    H129260  -0.015   5.386   6.350  3.2307  1.1953 -0.6951
 2615TIP3    H229261   0.080   5.275   6.389  0.0413 -1.5290 -0.1606
 2616TIP3   OH229262   5.211   2.509  12.834 -0.4582 -0.6418 -0.3005
 2616TIP3    H129263   5.160   2.507  12.753 -1.6067  0.0676  0.3753
 2616TIP3    H229264   5.299   2.484  12.807 -0.5559  0.6448 -1.9705
 2617TIP3   OH229265   4.558   6.329   1.789 -0.0261  0.1322  0.1135
 2617TIP3    H129266   4.620   6.350   1.719 -1.1382  3.0380 -0.1448
 2617TIP3    H229267   4.472   6.346   1.751 -0.8165 -0.6848  1.4462
 2618TIP3   OH229268   1.665   5.845   5.055  0.5137 -0.3401  0.0957
 2618TIP3    H129269   1.639   5.783   5.123 -1.2932 -1.0502 -1.1707
 2618TIP3    H229270   1.600   5.915   5.061  0.7993 -0.0300 -0.4079
 2619TIP3   OH229271   0.211   1.211   3.810  0.1164  0.3271 -0.3595
 2619TIP3    H129272   0.301   1.240   3.796  0.5796 -0.6433  0.4608
 2619TIP3    H229273   0.174   1.274   3.871  1.0489 -0.6151  1.2553
 2620TIP3   OH229274   1.904   6.527   0.211 -0.2411  0.4878 -0.1000
 2620TIP3    H129275   1.897   6.462   0.141  0.8684  1.1815 -0.8904
 2620TIP3    H229276   1.819   6.524   0.255 -0.7295 -0.4333 -1.0465
 2621TIP3   OH229277   0.442   3.567  10.589 -0.1998 -0.6358 -0.1437
 2621TIP3    H129278   0.534   3.546  10.574 -0.4024 -0.9438 -1.0119
 2621TIP3    H229279   0.395   3.489  10.559 -0.7471 -0.4436  0.2082
 2622TIP3   OH229280   3.396   2.508   6.482 -0.1452  0.3259 -0.8957
 2622TIP3    H129281   3.306   2.489   6.510 -0.1167  0.5838 -0.6261
 2622TIP3    H229282   3.445   2.428   6.503  0.2607  1.1096  1.4722
 2623TIP3   OH229283   5.310   1.864   3.355  0.0750 -0.2460 -0.3568
 2623TIP3    H129284   5.286   1.915   3.277  2.0505  0.3683 -0.6214
 2623TIP3    H229285   5.344   1.782   3.320 -0.7052 -0.7265 -0.0271
 2624TIP3   OH229286   0.631   6.520  12.310  0.2219  0.7030  0.7307
 2624TIP3    H129287   0.659   6.603  12.273 -0.6918  0.4465 -0.6197
 2624TIP3    H229288   0.673   6.454  12.256 -0.6444  0.3118  0.5158
 2625TIP3   OH229289   5.075   6.805  15.113  0.2414 -0.0801 -0.0456
 2625TIP3    H129290   4.991   6.779  15.149 -0.9464  0.5607 -2.2043
 2625TIP3    H229291   5.081   6.760  15.029  1.5397  0.7426 -0.4353
 2626TIP3   OH229292   2.474   6.539  15.288  0.3962  0.3226  0.6434
 2626TIP3    H129293   2.428   6.512  15.367 -1.7658  0.0419 -0.6049
 2626TIP3    H229294   2.495   6.631  15.302  1.3247 -0.0781  2.0691
 2627TIP3   OH229295   0.304   2.835   5.098  0.7840 -0.1881 -0.0056
 2627TIP3    H129296   0.325   2.825   5.005  0.1987  0.3310 -0.2006
 2627TIP3    H229297   0.245   2.763   5.117  0.0063  0.3445 -0.3297
 2628TIP3   OH229298   3.957   1.525  15.378 -0.4142  0.2449  0.1027
 2628TIP3    H129299   3.888   1.554  15.439 -0.4083  1.1906 -0.3152
 2628TIP3    H229300   3.969   1.600  15.320  1.6445  0.4602  0.7388
 2629TIP3   OH229301   1.560   3.903   5.596  0.2212  0.1728  0.8165
 2629TIP3    H129302   1.499   3.835   5.566  2.1676 -0.9623 -0.8619
 2629TIP3    H229303   1.530   3.983   5.554 -0.4373 -0.2458  0.4765
 2630TIP3   OH229304   2.989   4.196  13.413 -0.1670 -0.1443  0.1869
 2630TIP3    H129305   3.065   4.249  13.435 -0.2685 -0.0292  0.2596
 2630TIP3    H229306   2.919   4.259  13.395 -0.4464 -0.2581  0.8303
 2631TIP3   OH229307   1.432   2.153   4.235 -0.4705  0.0636  0.1992
 2631TIP3    H129308   1.504   2.162   4.173 -2.7753  0.4523 -2.6451
 2631TIP3    H229309   1.402   2.242   4.252 -1.2798 -0.1638  0.0423
 2632TIP3   OH229310   5.244   5.496  11.000 -0.1996 -0.0741 -0.0845
 2632TIP3    H129311   5.186   5.570  11.014 -0.2787  0.0157 -0.8898
 2632TIP3    H229312   5.191   5.419  11.023 -0.2721  0.0770  0.2668
 2633TIP3   OH229313   1.604   4.276  11.603 -0.3762 -0.2105 -0.3483
 2633TIP3    H129314   1.542   4.206  11.587  0.0556 -0.3343 -1.6642
 2633TIP3    H229315   1.677   4.235  11.650 -0.6631 -0.3683 -0.0420
 2634TIP3   OH229316   2.325   4.827  13.297  0.3308 -0.0479 -0.2585
 2634TIP3    H129317   2.237   4.794  13.284 -0.5465  0.8753  2.5471
 2634TIP3    H229318   2.317   4.922  13.286  0.9957  0.0294 -0.1326
 2635TIP3   OH229319   6.765   5.519  13.419  0.2140  0.0448  0.6620
 2635TIP3    H129320   6.793   5.606  13.389  0.0304  0.0804  0.5875
 2635TIP3    H229321   6.687   5.501  13.367 -1.0580  0.7988  2.2267
 2636TIP3   OH229322   5.761   1.963  11.837  0.6239 -0.3008 -0.3003
 2636TIP3    H129323   5.701   2.007  11.777  2.8855  0.2326 -2.3083
 2636TIP3    H229324   5.773   1.876  11.800 -0.1608 -1.0248  1.0474
 2637TIP3   OH229325   1.282   4.457   6.581 -0.0033  0.7365 -0.4767
 2637TIP3    H129326   1.289   4.435   6.675  1.4350  3.1816  0.0638
 2637TIP3    H229327   1.372   4.462   6.551 -0.4511 -0.1819 -2.1082
 2638TIP3   OH229328   1.173   3.531  11.352 -0.0691  1.1782  0.0246
 2638TIP3    H129329   1.100   3.486  11.310  0.4595  1.3105 -1.0855
 2638TIP3    H229330   1.144   3.622  11.359 -1.5357  0.5855  3.1782
 2639TIP3   OH229331   5.478   0.232   3.715 -0.4038  0.0159 -0.4159
 2639TIP3    H129332   5.537   0.185   3.655 -0.8494 -0.3068 -0.6053
 2639TIP3    H229333   5.400   0.177   3.720  0.4375 -1.1020  2.1858
 2640TIP3   OH229334   6.241   2.047  15.502  0.0847  0.6984  0.7036
 2640TIP3    H129335   6.261   2.056  15.409 -1.3342  2.1972  0.4853
 2640TIP3    H229336   6.294   1.973  15.531  1.3339  0.8256 -1.0568
 2641TIP3   OH229337   0.751   6.612  12.763  0.0657  0.5024 -0.5055
 2641TIP3    H129338   0.823   6.557  12.733 -1.3010 -0.7745 -1.6227
 2641TIP3    H229339   0.730   6.666  12.687 -1.9001 -1.0923 -1.1729
 2642TIP3   OH229340   2.378   4.087   4.146 -0.5330 -0.1707  0.2082
 2642TIP3    H129341   2.451   4.093   4.084  0.0491 -2.1973  0.6070
 2642TIP3    H229342   2.355   3.994   4.147 -2.6320  0.2894  0.6905
 2643TIP3   OH229343   5.336   6.564  13.352  0.1297 -0.2867 -0.1795
 2643TIP3    H129344   5.281   6.487  13.365 -0.7844  0.4585  0.5459
 2643TIP3    H229345   5.392   6.567  13.429 -0.4340  0.2417  0.2165
 2644TIP3   OH229346   4.776   0.234  16.220  0.1756  0.2376  0.0440
 2644TIP3    H129347   4.709   0.172  16.191  0.4777 -0.8817  1.5540
 2644TIP3    H229348   4.858   0.198  16.187  0.1446  1.1300 -1.0543
 2645TIP3   OH229349   2.097   6.368   2.979  0.3962 -0.4968  0.0350
 2645TIP3    H129350   2.178   6.405   3.015  0.2936  0.6483 -0.8411
 2645TIP3    H229351   2.124   6.326   2.898  0.0182  0.5702 -0.6616
 2646TIP3   OH229352   4.295   2.331   6.606  0.1854 -0.1448 -0.1195
 2646TIP3    H129353   4.366   2.267   6.614  1.6229  1.5322  1.2424
 2646TIP3    H229354   4.221   2.289   6.649  0.7119 -1.3776 -0.3429
 2647TIP3   OH229355   6.339   2.946   5.702 -0.1291 -0.3765 -0.1424
 2647TIP3    H129356   6.361   3.035   5.728 -0.0127 -0.3313 -0.3911
 2647TIP3    H229357   6.359   2.893   5.780 -0.7701 -0.1107  0.2028
 2648TIP3   OH229358   2.406   5.037   5.024 -0.1993 -0.0617  0.4521
 2648TIP3    H129359   2.394   4.960   4.970  1.4896  0.7530 -1.2099
 2648TIP3    H229360   2.320   5.079   5.027 -0.3672 -0.1961 -1.5326
 2649TIP3   OH229361   3.857   1.365  15.165  0.3809 -0.4177  0.5401
 2649TIP3    H129362   3.772   1.338  15.200  0.4039 -0.9326  0.2073
 2649TIP3    H229363   3.903   1.404  15.240  0.3565 -1.3214  1.0428
 2650TIP3   OH229364   1.972   0.022  11.235 -0.6585 -0.3084  0.2653
 2650TIP3    H129365   2.037  -0.041  11.203 -0.5754 -0.8038  1.3710
 2650TIP3    H229366   1.891  -0.003  11.191 -1.4232 -3.2526  2.8948
 2651TIP3   OH229367   2.943   0.782   0.776 -0.6043 -0.2134 -0.2951
 2651TIP3    H129368   3.019   0.748   0.728 -0.2160 -0.2929  0.3614
 2651TIP3    H229369   2.910   0.705   0.824 -0.6367 -0.0108  0.0101
 2652TIP3   OH229370   5.665   3.503   6.082  0.2815 -0.1930 -0.2422
 2652TIP3    H129371   5.656   3.592   6.114  0.2055 -0.4526  0.4738
 2652TIP3    H229372   5.754   3.477   6.108  0.7575  0.0725 -1.4945
 2653TIP3   OH229373   3.049   2.497   5.575  0.2045  0.1642  0.3445
 2653TIP3    H129374   3.138   2.532   5.583  0.2018  0.0832  0.7776
 2653TIP3    H229375   2.992   2.567   5.606  0.2227 -0.3310  1.5685
 2654TIP3   OH229376   4.678   6.688   3.304 -0.4568 -0.6300 -0.4078
 2654TIP3    H129377   4.761   6.642   3.291  0.4127  0.9942 -0.8748
 2654TIP3    H229378   4.696   6.777   3.274 -2.3318 -0.2072 -0.3538
 2655TIP3   OH229379   2.159   2.528   1.297  0.4641 -0.3576 -0.0054
 2655TIP3    H129380   2.186   2.518   1.205 -0.0205 -0.8416 -0.0917
 2655TIP3    H229381   2.149   2.439   1.330  2.3808 -0.2382  1.0459
 2656TIP3   OH229382   6.349   5.388   2.128  0.1930 -0.3963  0.5213
 2656TIP3    H129383   6.396   5.454   2.078 -0.9602  0.5934  0.7098
 2656TIP3    H229384   6.334   5.428   2.214 -0.9837 -0.6799  0.4672
 2657TIP3   OH229385   5.665   5.214  10.539  0.1859  0.1498  0.3583
 2657TIP3    H129386   5.652   5.277  10.469 -0.2468 -0.0567  0.2513
 2657TIP3    H229387   5.629   5.132  10.505 -2.4316  0.6056  1.7567
 2658TIP3   OH229388   4.723   5.836   1.435 -0.2065 -0.2129 -0.6025
 2658TIP3    H129389   4.735   5.769   1.501 -1.0040 -0.9338 -1.1614
 2658TIP3    H229390   4.777   5.808   1.361  1.7662  1.2936  0.1936
 2659TIP3   OH229391   2.878   3.062   4.003 -0.0977 -0.1031  0.1364
 2659TIP3    H129392   2.823   3.138   3.983 -1.1912 -0.7685  0.4967
 2659TIP3    H229393   2.901   3.025   3.918  1.3377  1.2272 -0.0800
 2660TIP3   OH229394   3.475   0.057  12.499 -0.1395 -0.1966  0.2148
 2660TIP3    H129395   3.552   0.105  12.530  0.6700 -1.8775  0.9801
 2660TIP3    H229396   3.407   0.123  12.490  1.6455  1.5238 -1.4476
 2661TIP3   OH229397   2.850   2.847  13.567 -0.3154 -0.4179 -0.0352
 2661TIP3    H129398   2.775   2.827  13.621 -1.7349  2.3088 -0.8172
 2661TIP3    H229399   2.830   2.806  13.482 -0.9520  0.3462 -0.2571
 2662TIP3   OH229400   0.489   0.259   5.780 -0.3162  0.3031  0.3058
 2662TIP3    H129401   0.423   0.327   5.790 -0.4020  0.3725 -0.6448
 2662TIP3    H229402   0.445   0.190   5.729  0.7339  0.9638 -1.6158
 2663TIP3   OH229403   0.111   2.727   1.367  0.2998  0.7513 -0.4275
 2663TIP3    H129404   0.115   2.726   1.272  2.8924  2.8722 -0.4511
 2663TIP3    H229405   0.198   2.696   1.395  0.5830  2.7288  1.1299
 2664TIP3   OH229406   1.354   5.362  12.577 -0.3754 -0.2100  0.7197
 2664TIP3    H129407   1.328   5.449  12.608 -0.6220 -0.4851  1.2895
 2664TIP3    H229408   1.303   5.349  12.497 -0.9349 -0.1634  1.0652
 2665TIP3   OH229409   1.115   1.204   3.032  0.0510  0.6637 -0.2189
 2665TIP3    H129410   1.028   1.197   3.070  0.4847  0.0493  0.6938
 2665TIP3    H229411   1.130   1.118   2.991  0.0402  0.9353 -0.8086
 2666TIP3   OH229412   6.565   2.843   6.036 -0.1427  0.3504  0.0218
 2666TIP3    H129413   6.647   2.831   5.987 -0.1240 -0.5139  0.2457
 2666TIP3    H229414   6.584   2.913   6.098  1.1161 -1.2086  1.5056
 2667TIP3   OH229415   0.028   3.919  16.379 -0.5909  0.4096  0.1916
 2667TIP3    H129416  -0.012   3.914  16.466 -1.8376 -2.5037 -0.4392
 2667TIP3    H229417   0.109   3.870  16.387 -1.5744 -1.4346 -0.6596
 2668TIP3   OH229418   0.520   5.946   0.837  0.2427  0.6412  0.2784
 2668TIP3    H129419   0.516   5.851   0.825 -3.0735  0.7094  0.1557
 2668TIP3    H229420   0.584   5.975   0.772  1.9058 -1.4933  0.8062
 2669TIP3   OH229421   2.996   0.119   1.326 -0.0203  0.0339 -0.0431
 2669TIP3    H129422   3.054   0.192   1.347 -0.2801  0.1141  0.4052
 2669TIP3    H229423   2.974   0.132   1.233  1.7524 -0.7533 -0.6350
 2670TIP3   OH229424   3.646   5.239  16.726 -0.0900 -0.2248 -0.2130
 2670TIP3    H129425   3.660   5.316  16.671 -0.3134 -1.0872 -1.5244
 2670TIP3    H229426   3.551   5.229  16.730 -0.1955  0.9693  2.0356
 2671TIP3   OH229427   5.798   0.329   3.731  0.2820 -0.4189  0.6040
 2671TIP3    H129428   5.841   0.274   3.796  1.3270 -1.6101 -1.0106
 2671TIP3    H229429   5.741   0.269   3.682  0.3326  0.2045 -0.2616
 2672TIP3   OH229430   2.596   1.933  11.833  0.3168  0.4383  0.0959
 2672TIP3    H129431   2.547   1.979  11.764  0.8080  0.7675 -0.0365
 2672TIP3    H229432   2.653   1.873  11.787 -0.1238 -0.1140  0.2618
 2673TIP3   OH229433   0.072   1.115   1.382 -0.1726 -0.3679  0.3710
 2673TIP3    H129434   0.057   1.098   1.475 -1.2395 -0.0105  0.2753
 2673TIP3    H229435   0.025   1.046   1.336 -1.3787  0.6243  0.0647
 2674TIP3   OH229436   5.323   0.926   5.324  0.2699  0.2693  0.2653
 2674TIP3    H129437   5.319   1.016   5.357 -0.1445  0.0559  0.8226
 2674TIP3    H229438   5.237   0.889   5.346  0.3304 -0.1734 -0.2247
 2675TIP3   OH229439   5.246   3.758   0.861  0.5277 -0.0422  0.1287
 2675TIP3    H129440   5.168   3.733   0.811  1.7249 -3.2663 -0.3462
 2675TIP3    H229441   5.237   3.852   0.874 -2.7219 -0.0577 -1.1199
 2676TIP3   OH229442   3.773   2.208   3.126  0.4134  0.0173  0.4853
 2676TIP3    H129443   3.806   2.206   3.036  1.9820  0.5788  1.0056
 2676TIP3    H229444   3.770   2.116   3.152 -0.9365 -0.2197 -0.4187
 2677TIP3   OH229445   6.062   3.882  17.008 -0.5202 -0.3203 -0.0391
 2677TIP3    H129446   6.156   3.868  17.019 -0.7617 -0.3934  2.5923
 2677TIP3    H229447   6.056   3.960  16.953  1.0100 -1.3869 -1.8295
 2678TIP3   OH229448   4.165   0.879   5.458 -0.5884 -0.0058 -0.4363
 2678TIP3    H129449   4.223   0.806   5.479 -0.6604  0.2726  0.7724
 2678TIP3    H229450   4.145   0.867   5.365  2.3546  0.5604 -1.2549
 2679TIP3   OH229451   1.377   2.719   3.883 -0.1436 -0.0441  0.1710
 2679TIP3    H129452   1.332   2.687   3.961 -0.2120  1.0615  0.5981
 2679TIP3    H229453   1.329   2.798   3.858  1.2033  0.8404  0.2988
 2680TIP3   OH229454   2.975   4.710   5.594  0.3971  0.0893 -0.3010
 2680TIP3    H129455   2.993   4.729   5.502 -0.9560 -0.1240 -0.6224
 2680TIP3    H229456   2.944   4.793   5.630  1.2684  0.2709  0.0795
 2681TIP3   OH229457   1.403   6.494  16.712  0.4345  0.5231  0.2356
 2681TIP3    H129458   1.373   6.549  16.784 -2.2527  0.7477 -0.9099
 2681TIP3    H229459   1.415   6.555  16.639  0.4585 -0.0249 -0.2268
 2682TIP3   OH229460   3.561   1.853   0.892 -0.1021 -0.7074 -0.1364
 2682TIP3    H129461   3.525   1.803   0.965  1.8250 -0.0909  1.3251
 2682TIP3    H229462   3.565   1.943   0.924  0.9602 -0.4597 -0.9055
 2683TIP3   OH229463   0.317   0.721   2.007 -0.1422 -0.1373  0.2707
 2683TIP3    H129464   0.406   0.745   2.035 -0.2548  1.0929 -0.3521
 2683TIP3    H229465   0.300   0.776   1.931 -1.6778  0.1173  0.7599
 2684TIP3   OH229466   4.479   6.270  11.907  0.2319 -0.2776 -0.0347
 2684TIP3    H129467   4.526   6.218  11.841 -0.9397 -0.8610 -0.4466
 2684TIP3    H229468   4.410   6.313  11.858 -1.4249 -1.6691  0.9578
 2685TIP3   OH229469   4.682   5.207   2.828  0.0951 -0.3392 -0.7008
 2685TIP3    H129470   4.704   5.172   2.914 -0.4880  0.9628  0.0131
 2685TIP3    H229471   4.628   5.139   2.788  0.8536 -1.2049 -0.2788
 2686TIP3   OH229472   6.284   6.498   6.416  0.1034 -0.0617  0.6779
 2686TIP3    H129473   6.291   6.417   6.467  0.3097 -0.1356  0.5340
 2686TIP3    H229474   6.372   6.536   6.420 -0.2968  0.8125  1.8157
 2687TIP3   OH229475   5.216   4.622   0.782 -0.8557 -0.4036 -0.0402
 2687TIP3    H129476   5.235   4.688   0.715 -1.5771  0.5334  0.6512
 2687TIP3    H229477   5.121   4.624   0.792 -0.7607 -0.5207  1.0168
 2688TIP3   OH229478   1.729   6.785   1.794 -0.4001  0.2764  0.0740
 2688TIP3    H129479   1.705   6.858   1.737  1.0948  1.8326  1.3060
 2688TIP3    H229480   1.818   6.807   1.823 -0.0366 -1.9031  0.7482
 2689TIP3   OH229481   0.755   1.740  14.274  0.5308  0.7591  0.0212
 2689TIP3    H129482   0.719   1.677  14.336  0.9298 -0.8774 -1.3385
 2689TIP3    H229483   0.750   1.824  14.319 -0.0057 -0.2350  1.9022
 2690TIP3   OH229484   5.821   0.033   0.936 -0.8870  0.1036 -0.1667
 2690TIP3    H129485   5.803  -0.058   0.957 -1.0804 -0.5467 -2.7977
 2690TIP3    H229486   5.913   0.046   0.959 -0.1577 -1.5083 -1.8993
 2691TIP3   OH229487   1.016   5.608  12.652 -0.4692  0.0238 -0.0476
 2691TIP3    H129488   1.051   5.619  12.564 -0.5230 -0.5602 -0.1474
 2691TIP3    H229489   1.060   5.530  12.686  0.4270  0.9222  0.8954
 2692TIP3   OH229490   1.670   0.638  17.029 -0.0705  0.5762 -0.0584
 2692TIP3    H129491   1.633   0.699  17.093  1.6357  1.0618  0.5236
 2692TIP3    H229492   1.675   0.554  17.077 -1.9255  0.0544 -0.6897
 2693TIP3   OH229493   2.181   2.780  15.489  0.5659  0.7653  0.6079
 2693TIP3    H129494   2.111   2.769  15.554  0.1161 -2.1927 -0.2147
 2693TIP3    H229495   2.155   2.856  15.438 -1.2404  0.7002  1.3433
 2694TIP3   OH229496   3.736   4.067   5.718  0.2297 -0.5258  0.4181
 2694TIP3    H129497   3.761   4.062   5.626 -0.5020  1.2476  0.0751
 2694TIP3    H229498   3.776   4.148   5.750 -1.8458  0.4184  0.8340
 2695TIP3   OH229499   5.397   2.211   5.678 -0.5857  0.1166  0.2500
 2695TIP3    H129500   5.369   2.301   5.658 -0.9531  0.0143  0.2852
 2695TIP3    H229501   5.443   2.182   5.600  0.4122  0.6807  0.6163
 2696TIP3   OH229502   1.691   3.129  15.155 -0.3167 -0.2430  0.0286
 2696TIP3    H129503   1.723   3.065  15.092  0.6123  0.1140  0.1241
 2696TIP3    H229504   1.667   3.078  15.232  0.1181 -0.5076 -0.0091
 2697TIP3   OH229505   5.554   0.136  11.843 -0.7634 -0.5413  0.0386
 2697TIP3    H129506   5.553   0.078  11.920 -0.5988  1.9803  2.0844
 2697TIP3    H229507   5.613   0.207  11.868 -1.1652  0.6630 -2.2326
 2698TIP3   OH229508   4.979   1.274   2.845 -0.2621  0.1300  0.5896
 2698TIP3    H129509   4.988   1.212   2.917  0.8324 -2.8137 -1.8710
 2698TIP3    H229510   4.905   1.242   2.795  0.0285  1.1013 -0.4997
 2699TIP3   OH229511   4.042   5.545  13.005 -0.3137 -0.1755  0.3974
 2699TIP3    H129512   3.950   5.549  13.030 -1.0058  1.3140 -2.0606
 2699TIP3    H229513   4.047   5.474  12.941  0.3773 -0.6385  0.9555
 2700TIP3   OH229514   3.714   4.899   0.680  0.6038 -0.1739  0.1287
 2700TIP3    H129515   3.660   4.870   0.754 -1.9716  1.6526 -0.8862
 2700TIP3    H229516   3.752   4.982   0.709  0.1772  0.1820 -0.3185
 2701TIP3   OH229517   6.406   2.312  13.192 -0.2986  0.1477 -0.3816
 2701TIP3    H129518   6.337   2.365  13.232 -0.2799 -0.6785  0.8020
 2701TIP3    H229519   6.359   2.244  13.143 -0.4370 -1.4406  1.7755
 2702TIP3   OH229520   2.043   5.469  14.938  0.1082  0.8427 -0.4481
 2702TIP3    H129521   1.984   5.462  15.013 -2.5834  1.0798 -2.4083
 2702TIP3    H229522   2.064   5.378  14.915 -0.2047  0.7232 -0.2578
 2703TIP3   OH229523   5.921   6.619   1.636  0.4272 -0.1161  0.3070
 2703TIP3    H129524   5.941   6.711   1.653  0.1197 -0.2401  1.4246
 2703TIP3    H229525   5.876   6.619   1.552  0.8443  0.6936  0.0711
 2704TIP3   OH229526   5.607   1.687   5.284 -0.0129  0.1777 -0.4358
 2704TIP3    H129527   5.551   1.610   5.285 -0.1558  0.2539 -1.6501
 2704TIP3    H229528   5.691   1.655   5.252  0.3965  0.2407  0.5262
 2705TIP3   OH229529   2.828   5.077   1.214  0.1183 -0.2252 -0.3377
 2705TIP3    H129530   2.861   5.050   1.129  0.5749  1.4838 -0.7393
 2705TIP3    H229531   2.736   5.099   1.199  0.7643  2.3141 -0.9748
 2706TIP3   OH229532   3.824   5.232   5.528  0.1778 -0.1500  0.5228
 2706TIP3    H129533   3.879   5.209   5.602  1.2374 -1.2736 -0.5526
 2706TIP3    H229534   3.795   5.148   5.493  1.3479  0.2126 -1.4919
 2707TIP3   OH229535   1.976   1.428   5.141  0.6004  0.1223 -0.4608
 2707TIP3    H129536   1.989   1.516   5.176  1.0347  0.3176 -1.0936
 2707TIP3    H229537   1.991   1.437   5.047  1.4915 -0.7811 -0.4246
 2708TIP3   OH229538   4.705   4.405   0.092  0.2382 -0.2067 -0.0497
 2708TIP3    H129539   4.697   4.309   0.088 -0.3467 -0.1368 -0.7500
 2708TIP3    H229540   4.615   4.436   0.093  0.4064  0.3086  1.5063
 2709TIP3   OH229541   3.215   2.550   2.849  0.5262 -0.0532 -0.7050
 2709TIP3    H129542   3.185   2.546   2.758  3.4151 -0.9659 -1.7073
 2709TIP3    H229543   3.216   2.459   2.878  0.3716  0.1606 -0.0071
 2710TIP3   OH229544   5.237   5.796   5.529  0.1751 -0.1743 -0.1554
 2710TIP3    H129545   5.221   5.721   5.586  3.0903 -1.3316 -0.6915
 2710TIP3    H229546   5.285   5.858   5.584  2.0879 -0.8576 -0.9726
 2711TIP3   OH229547   4.748   3.047   0.263 -0.1403  0.3400 -0.3185
 2711TIP3    H129548   4.694   3.124   0.281  2.2876  1.8600  1.0220
 2711TIP3    H229549   4.783   3.063   0.176 -2.5159 -1.1798 -1.6727
 2712TIP3   OH229550   3.931   0.751   5.535 -0.3522  0.3107 -0.6662
 2712TIP3    H129551   3.966   0.670   5.573  0.4078  1.2289  0.6902
 2712TIP3    H229552   4.009   0.800   5.507 -0.7533  0.9136 -0.7486
 2713TIP3   OH229553   1.026   4.607  14.816  0.9691  0.2718  0.6162
 2713TIP3    H129554   0.933   4.620  14.837  1.2564 -0.3700  2.4697
 2713TIP3    H229555   1.025   4.550  14.739 -0.1676  1.2279 -0.1127
 2714TIP3   OH229556   0.022   4.103   5.254 -0.1956 -0.2826 -0.3501
 2714TIP3    H129557   0.041   4.050   5.332  4.4700 -0.0891 -1.0595
 2714TIP3    H229558   0.055   4.190   5.276 -0.4608  0.2384 -1.9441
 2715TIP3   OH229559   2.055   6.572   5.936  0.2736  0.3307 -0.5918
 2715TIP3    H129560   2.086   6.643   5.880  2.2507 -0.2475 -0.2874
 2715TIP3    H229561   2.022   6.506   5.875  0.6133  0.5167 -0.9826
 2716TIP3   OH229562   3.883   3.806   5.194  0.0719  0.0985 -0.0222
 2716TIP3    H129563   3.811   3.865   5.172  0.7809  1.7492  1.8249
 2716TIP3    H229564   3.961   3.863   5.196  0.9250 -1.0633  0.9752
 2717TIP3   OH229565   0.240   4.461   4.542 -0.0089 -0.0808 -0.5346
 2717TIP3    H129566   0.314   4.522   4.552  0.5448 -0.8128 -0.0483
 2717TIP3    H229567   0.278   4.384   4.501 -0.8245  0.0939 -1.6729
 2718TIP3   OH229568   3.782   3.907   4.098 -0.6573  0.5401 -0.1091
 2718TIP3    H129569   3.834   3.963   4.042 -0.4304  0.0975 -0.3479
 2718TIP3    H229570   3.731   3.853   4.038 -0.0703 -0.2613  0.0948
 2719TIP3   OH229571   3.339   2.556  16.669  0.4685 -0.5171  0.0122
 2719TIP3    H129572   3.406   2.552  16.738  0.3138 -3.1622  0.1066
 2719TIP3    H229573   3.383   2.598  16.595  1.8561 -1.0335  0.5080
 2720TIP3   OH229574   1.203   0.202   0.522 -0.3371  0.1992  0.4642
 2720TIP3    H129575   1.111   0.229   0.528  0.1258  1.9631  0.1471
 2720TIP3    H229576   1.240   0.258   0.454  1.1010 -0.1217  0.9510
 2721TIP3   OH229577   6.737   0.470   4.304 -0.1565 -0.5535  0.1834
 2721TIP3    H129578   6.719   0.443   4.394  0.1255 -1.5460 -0.0450
 2721TIP3    H229579   6.736   0.566   4.307 -2.1106 -0.5434  0.8446
 2722TIP3   OH229580   1.522   3.748   3.559 -0.2811  0.2020 -0.5217
 2722TIP3    H129581   1.558   3.795   3.635 -0.6984 -1.1055  0.5151
 2722TIP3    H229582   1.598   3.725   3.506  0.0839  0.4792 -0.1229
 2723TIP3   OH229583   3.033   6.783  12.951  0.1711  0.1862  0.2502
 2723TIP3    H129584   2.982   6.846  12.901 -1.5657  1.7534  3.6575
 2723TIP3    H229585   2.971   6.714  12.973  1.0474 -0.7643 -0.2026
 2724TIP3   OH229586   5.569   3.862   1.444  0.4943 -0.2395 -0.2541
 2724TIP3    H129587   5.483   3.881   1.405  0.4218  0.7434  0.3387
 2724TIP3    H229588   5.564   3.771   1.471 -0.3678 -0.1924 -0.2321
 2725TIP3   OH229589   5.420   6.103   1.077  0.1806 -0.4688 -0.1308
 2725TIP3    H129590   5.380   6.189   1.065 -0.3817 -0.2272  2.7177
 2725TIP3    H229591   5.383   6.049   1.007 -1.5034  0.9504 -0.4026
 2726TIP3   OH229592   5.458   5.820   4.494 -0.4659  0.5795  0.3126
 2726TIP3    H129593   5.387   5.772   4.536  1.5047 -2.0362  0.9098
 2726TIP3    H229594   5.538   5.775   4.522  1.2916  1.7120 -2.4189
 2727TIP3   OH229595   0.761   3.491  15.439  0.2140 -0.2353  0.5547
 2727TIP3    H129596   0.773   3.575  15.395  1.7784  0.3430  1.9763
 2727TIP3    H229597   0.782   3.509  15.531 -1.4228 -1.7348  1.2817
 2728TIP3   OH229598   1.349   0.315   4.893 -0.0402 -0.1693 -0.0024
 2728TIP3    H129599   1.260   0.336   4.922 -0.6197 -1.6290 -0.6379
 2728TIP3    H229600   1.339   0.234   4.843  1.5103  0.1784 -0.9257
 2729TIP3   OH229601   3.233   1.309  11.646 -0.5265  0.2446 -0.6764
 2729TIP3    H129602   3.254   1.303  11.553  0.1931  0.3139 -0.5209
 2729TIP3    H229603   3.266   1.228  11.684  1.6794  1.3666 -0.0224
 2730TIP3   OH229604   0.072   0.816   0.825  0.1120 -0.0119 -0.1708
 2730TIP3    H129605   0.157   0.845   0.794  1.0877 -2.1792  0.3207
 2730TIP3    H229606   0.077   0.721   0.827 -1.0811 -0.1577  3.1859
 2731TIP3   OH229607   0.866   3.238   1.700 -0.2604 -0.4089  0.2058
 2731TIP3    H129608   0.961   3.241   1.701 -0.2195 -1.4527  0.1904
 2731TIP3    H229609   0.842   3.181   1.772 -0.8261 -0.9935 -0.4241
 2732TIP3   OH229610   5.329   1.178   4.799 -0.1467  0.0070 -0.0649
 2732TIP3    H129611   5.283   1.100   4.831 -0.2354  0.1449  0.1387
 2732TIP3    H229612   5.310   1.179   4.705 -2.8888  1.6179  0.4197
 2733TIP3   OH229613   2.467   2.702  16.541 -0.0521 -0.5113  0.1822
 2733TIP3    H129614   2.557   2.692  16.511 -0.1112 -0.0816 -0.1485
 2733TIP3    H229615   2.449   2.622  16.590  0.1008 -1.1624 -0.8061
 2734TIP3   OH229616   0.526   3.981  11.915  0.3802  0.3114  0.0397
 2734TIP3    H129617   0.542   3.993  11.822  1.5349  0.3637  0.2365
 2734TIP3    H229618   0.587   3.912  11.942 -2.2017 -2.1826  0.0963
 2735TIP3   OH229619   5.874   6.205  10.389  0.2867 -0.6653 -0.5210
 2735TIP3    H129620   5.809   6.271  10.363  0.6558  0.3371  0.9892
 2735TIP3    H229621   5.838   6.123  10.356 -0.6428  0.1591 -1.6561
 2736TIP3   OH229622   3.200   4.019   1.805  0.2627  0.0126 -0.4668
 2736TIP3    H129623   3.243   3.992   1.886  1.9209  0.0663 -1.2737
 2736TIP3    H229624   3.108   4.033   1.829  0.8517  0.7399  1.5433
 2737TIP3   OH229625   0.197   3.529   4.612 -0.1224  0.3392  0.0590
 2737TIP3    H129626   0.229   3.470   4.680  0.0297  0.1755 -0.1553
 2737TIP3    H229627   0.194   3.615   4.655 -1.6565 -0.0424  0.7903
 2738TIP3   OH229628   1.072   2.715  11.267 -0.0975  0.4504  0.2640
 2738TIP3    H129629   1.066   2.762  11.184  2.1642  0.8282  0.2495
 2738TIP3    H229630   1.094   2.625  11.243 -0.3783  0.3363  0.4255
 2739TIP3   OH229631   6.307   5.711  16.549 -0.7615  0.6785  0.8003
 2739TIP3    H129632   6.379   5.717  16.612  0.6865 -0.7671 -0.6157
 2739TIP3    H229633   6.313   5.622  16.514 -2.0749  1.1365 -0.7126
 2740TIP3   OH229634   6.538   6.183  17.048  0.1333  0.2389 -0.1972
 2740TIP3    H129635   6.486   6.171  16.968  1.8050  2.3430 -1.7022
 2740TIP3    H229636   6.622   6.216  17.017  0.3761  2.5174  2.5131
 2741TIP3   OH229637   0.550   1.770   4.899 -0.1731  0.0881 -0.0924
 2741TIP3    H129638   0.475   1.829   4.893  0.8302  1.7537  2.2161
 2741TIP3    H229639   0.626   1.828   4.891  0.8555 -1.1321  0.5249
 2742TIP3   OH229640   2.325   5.524   3.325  0.7262  0.2713 -0.2612
 2742TIP3    H129641   2.366   5.440   3.347  3.7430  1.2466 -1.5506
 2742TIP3    H229642   2.305   5.516   3.231  0.1729  0.6594 -0.1764
 2743TIP3   OH229643   4.251   4.401  15.402  0.4853  0.4956  0.0294
 2743TIP3    H129644   4.242   4.371  15.493  0.0618 -0.1982 -0.2370
 2743TIP3    H229645   4.184   4.352  15.354  0.0286  1.5773 -0.4897
 2744TIP3   OH229646   3.347   0.028  16.306  0.2724 -0.0018 -0.7183
 2744TIP3    H129647   3.252   0.020  16.301  0.1170  0.6567  0.6719
 2744TIP3    H229648   3.379  -0.006  16.223 -1.3126  2.1074 -2.2926
 2745TIP3   OH229649   0.196   5.039   3.433 -0.4135 -0.1657 -0.2279
 2745TIP3    H129650   0.200   4.956   3.385 -1.7309 -0.9021  0.8917
 2745TIP3    H229651   0.105   5.047   3.461 -0.5004  2.0157 -0.8774
 2746TIP3   OH229652   5.944   1.520   1.919  0.5034  0.2092 -0.3200
 2746TIP3    H129653   5.853   1.491   1.912  0.1031  1.3395 -0.0056
 2746TIP3    H229654   5.975   1.482   2.001  0.6066 -0.9091 -0.8559
 2747TIP3   OH229655   3.607   2.127  12.772 -0.4535  0.2583  0.1431
 2747TIP3    H129656   3.538   2.066  12.795 -1.3247  1.3528  0.5302
 2747TIP3    H229657   3.583   2.209  12.816 -0.1491  1.3209 -1.5590
 2748TIP3   OH229658   4.097   6.651   2.044 -0.3506 -0.0171 -0.4636
 2748TIP3    H129659   4.170   6.604   2.005 -0.4888 -2.0830  1.5547
 2748TIP3    H229660   4.058   6.589   2.106 -1.2768  2.3921  1.5661
 2749TIP3   OH229661   6.058   3.971  12.927 -0.0108 -0.5246  0.0817
 2749TIP3    H129662   6.106   3.888  12.931 -0.7426 -1.0452 -1.2059
 2749TIP3    H229663   6.123   4.038  12.949  0.2887 -1.5060  2.4889
 2750TIP3   OH229664   6.454   4.848   2.257 -1.2185 -0.1725  0.2377
 2750TIP3    H129665   6.535   4.899   2.250 -0.2638 -1.3479  2.0228
 2750TIP3    H229666   6.480   4.768   2.302 -3.0600 -1.4031 -0.7781
 2751TIP3   OH229667   2.973   1.945   3.589 -0.3627  0.3537  0.2410
 2751TIP3    H129668   3.032   1.989   3.528  1.7666 -2.1633  0.3352
 2751TIP3    H229669   2.993   1.984   3.674 -0.1361  0.7802 -0.0059
 2752TIP3   OH229670   0.770   1.924   0.734 -0.7714 -0.1604  0.4014
 2752TIP3    H129671   0.681   1.941   0.704 -0.7653  0.6654  0.8284
 2752TIP3    H229672   0.759   1.873   0.815 -0.8053 -1.4750 -0.3901
 2753TIP3   OH229673   4.583   2.879   0.554 -0.3462 -0.0597  0.7344
 2753TIP3    H129674   4.528   2.905   0.629  0.2264  2.2919  0.4101
 2753TIP3    H229675   4.672   2.903   0.580 -0.0915  0.4516 -0.5457
 2754TIP3   OH229676   3.391   5.297   1.067  0.0917 -0.3960  0.0587
 2754TIP3    H129677   3.440   5.293   1.150  1.2535  0.0455 -0.5763
 2754TIP3    H229678   3.304   5.328   1.092 -0.0821 -1.7731  1.3044
 2755TIP3   OH229679   4.314   0.141  16.171 -0.1754  0.4669  0.0271
 2755TIP3    H129680   4.321   0.221  16.223 -1.2200  0.3636  0.3494
 2755TIP3    H229681   4.221   0.133  16.152  0.1178  0.1567 -1.3324
 2756TIP3   OH229682   1.745   5.999  13.884  0.3108 -0.0798 -0.0623
 2756TIP3    H129683   1.741   5.930  13.818 -2.7905 -0.1837  0.0921
 2756TIP3    H229684   1.774   6.076  13.836  1.6268 -0.9474 -0.7211
 2757TIP3   OH229685   2.092   3.889   0.321  0.4034 -0.5234  0.1030
 2757TIP3    H129686   2.060   3.940   0.396  1.3435  1.2888 -0.6561
 2757TIP3    H229687   2.175   3.851   0.352 -0.4414 -1.8939  0.7662
 2758TIP3   OH229688   3.782   6.374  15.568 -0.3707 -0.1082 -0.2319
 2758TIP3    H129689   3.725   6.422  15.508 -0.7188 -1.0520 -0.6790
 2758TIP3    H229690   3.857   6.348  15.515 -0.5639 -0.7346 -0.2161
 2759TIP3   OH229691   2.208   0.621  12.366  0.7461  0.0701  0.2988
 2759TIP3    H129692   2.244   0.663  12.444 -1.5692  1.1985  0.8867
 2759TIP3    H229693   2.201   0.529  12.389 -0.7356  0.5020  1.8728
 2760TIP3   OH229694   0.695   1.827  14.591 -0.3412 -0.3482  0.2687
 2760TIP3    H129695   0.683   1.893  14.523  0.2001 -0.6713 -0.1394
 2760TIP3    H229696   0.623   1.844  14.653 -0.8828 -0.1065 -0.4148
 2761TIP3   OH229697   5.210   1.711  12.074  0.0626  0.7004 -0.4108
 2761TIP3    H129698   5.220   1.778  12.006 -1.0303  0.6509 -0.6488
 2761TIP3    H229699   5.161   1.641  12.031 -0.7578  0.7231  0.4570
 2762TIP3   OH229700   2.745   2.554   0.234  0.3383  0.2066  0.0011
 2762TIP3    H129701   2.837   2.580   0.236  0.2749  0.9807 -2.6863
 2762TIP3    H229702   2.739   2.481   0.295  3.2536 -1.3249 -1.3322
 2763TIP3   OH229703   4.392   0.771  16.274 -0.5885  0.2830  0.3824
 2763TIP3    H129704   4.318   0.765  16.213  0.1240  0.3883 -0.5140
 2763TIP3    H229705   4.456   0.826  16.229 -0.3586  1.0307  1.5737
 2764TIP3   OH229706   6.134   5.800  15.005 -0.0916  0.3496 -0.1235
 2764TIP3    H129707   6.095   5.725  14.960 -0.6979  0.8870 -0.5043
 2764TIP3    H229708   6.200   5.833  14.943  0.0252  0.2680 -0.0441
 2765TIP3   OH229709   5.439   2.393   5.046  0.8114 -0.5323  0.1067
 2765TIP3    H129710   5.435   2.489   5.042  2.3216 -0.4568 -0.2559
 2765TIP3    H229711   5.492   2.375   5.123 -0.7631 -1.1522  1.0960
 2766TIP3   OH229712   1.583   6.563   2.491 -0.0009  0.2441  0.2564
 2766TIP3    H129713   1.622   6.650   2.505 -0.1518  0.7198 -1.8500
 2766TIP3    H229714   1.658   6.505   2.483  0.0937 -0.1395  3.0208
 2767TIP3   OH229715   3.193   0.049  11.793  0.1620 -0.2792 -0.2946
 2767TIP3    H129716   3.111   0.091  11.817  0.5518  0.3068  0.0551
 2767TIP3    H229717   3.215   0.086  11.707  0.1690 -0.2662 -0.2875
 2768TIP3   OH229718   5.694   5.638  16.173  0.2998 -0.4716  0.4068
 2768TIP3    H129719   5.624   5.602  16.120  0.4655 -0.5431  0.2358
 2768TIP3    H229720   5.662   5.725  16.198  0.5035 -0.1535 -0.3860
 2769TIP3   OH229721   5.077   3.688   1.685 -0.1896 -0.0886 -0.1777
 2769TIP3    H129722   5.133   3.762   1.664  1.9691 -1.5922 -0.0922
 2769TIP3    H229723   5.000   3.726   1.728  0.6153  2.0895 -0.5717
 2770TIP3   OH229724   4.031   1.962  12.076  0.0255 -0.5474  0.2773
 2770TIP3    H129725   4.044   1.983  12.169  2.5721  0.2434 -0.1780
 2770TIP3    H229726   4.053   2.043  12.030 -1.0314 -0.9848 -1.0482
 2771TIP3   OH229727   3.447   4.120   4.237  0.2133  0.2383 -0.0168
 2771TIP3    H129728   3.487   4.169   4.166  0.0739  1.0991  0.4789
 2771TIP3    H229729   3.485   4.158   4.316 -1.0643  0.6205  0.4412
 2772TIP3   OH229730   6.482   4.674   2.616  0.6235 -0.1218  0.5018
 2772TIP3    H129731   6.523   4.632   2.541 -0.8936  0.7919 -0.9005
 2772TIP3    H229732   6.508   4.766   2.609  1.1027 -0.1577  1.5635
 2773TIP3   OH229733   3.694   0.060   0.840 -0.2993  0.2336  0.0115
 2773TIP3    H129734   3.696  -0.024   0.794  1.5405  0.2949 -0.1146
 2773TIP3    H229735   3.752   0.117   0.788 -1.5451  1.6039  0.0649
 2774TIP3   OH229736   1.965   2.607  15.666  0.3500 -0.2874 -0.0128
 2774TIP3    H129737   1.998   2.536  15.721  1.5919 -0.7128 -1.2503
 2774TIP3    H229738   1.897   2.648  15.718  2.4282  0.2663  2.4776
 2775TIP3   OH229739   0.661   5.896  11.274  0.6649  0.4617 -0.3101
 2775TIP3    H129740   0.580   5.852  11.246  1.0262  0.1555 -0.8994
 2775TIP3    H229741   0.663   5.886  11.369 -0.0078  0.5048 -0.2840
 2776TIP3   OH229742   6.789   1.249  10.519 -1.0127 -0.5604  0.2101
 2776TIP3    H129743   6.696   1.227  10.513 -1.2380  0.0815  1.1324
 2776TIP3    H229744   6.792   1.325  10.577  0.1110 -0.7182  0.3801
 2777TIP3   OH229745   3.819   3.091   2.807  0.0895 -0.7187  0.6071
 2777TIP3    H129746   3.820   3.011   2.754  0.8407  0.2933 -0.9684
 2777TIP3    H229747   3.910   3.122   2.805  0.0873 -0.4908  2.3048
 2778TIP3   OH229748   5.215   1.806  14.454  0.4109  0.8088  0.2557
 2778TIP3    H129749   5.232   1.779  14.364  0.3957  1.0445  0.1828
 2778TIP3    H229750   5.224   1.725  14.505 -0.2267  0.5351 -0.0414
 2779TIP3   OH229751   0.710   1.486  16.572  0.6297  0.2521  0.2511
 2779TIP3    H129752   0.749   1.419  16.515  0.1234 -0.0682  0.2663
 2779TIP3    H229753   0.728   1.569  16.529  0.5939  0.0411 -0.1686
 2780TIP3   OH229754   2.304   0.047  16.311  0.7418 -0.1887 -0.7208
 2780TIP3    H129755   2.242   0.046  16.384 -0.1578 -0.7917 -1.4541
 2780TIP3    H229756   2.292   0.133  16.271 -1.0869 -0.9839 -2.0140
 2781TIP3   OH229757   2.797   0.778   3.079 -0.3638 -0.3544  1.0375
 2781TIP3    H129758   2.727   0.724   3.042 -1.5582 -0.2258  3.0121
 2781TIP3    H229759   2.765   0.867   3.073 -0.2971 -0.2765  1.7876
 2782TIP3   OH229760   6.688   6.753  16.806 -0.1691  0.0319  0.1131
 2782TIP3    H129761   6.624   6.688  16.776 -0.1014 -1.1351  2.2777
 2782TIP3    H229762   6.765   6.737  16.753 -1.3076  0.8831 -1.9397
 2783TIP3   OH229763   1.325   6.197  13.412 -0.5037  0.3221 -0.2070
 2783TIP3    H129764   1.402   6.144  13.433  0.8867  1.9314 -1.0715
 2783TIP3    H229765   1.283   6.150  13.340 -0.4044 -0.6093  0.3182
 2784TIP3   OH229766   4.107   1.894  13.449  0.2469  0.9371  0.3067
 2784TIP3    H129767   4.157   1.825  13.492 -0.4194  0.9133  1.0851
 2784TIP3    H229768   4.048   1.927  13.518 -2.0239 -0.1971 -0.9665
 2785TIP3   OH229769   5.138   0.377  16.167  0.3383 -0.4246  0.3030
 2785TIP3    H129770   5.113   0.470  16.164  2.3185  0.1201 -0.7649
 2785TIP3    H229771   5.107   0.341  16.084  0.7933 -0.3761  0.1103
 2786TIP3   OH229772   2.264   5.153  13.185 -0.8183  0.5389  0.7608
 2786TIP3    H129773   2.263   5.247  13.203 -2.4135  0.7523 -0.2850
 2786TIP3    H229774   2.351   5.137  13.149 -1.4139  2.1809 -1.6657
 2787TIP3   OH229775   2.617   5.030   1.925  0.0946 -0.2870 -0.2806
 2787TIP3    H129776   2.678   5.103   1.937 -0.0973 -0.0734 -0.5808
 2787TIP3    H229777   2.594   5.034   1.832  0.6529 -1.1816 -0.4708
 2788TIP3   OH229778   3.935   2.253  14.459  0.5355  0.2276  0.3870
 2788TIP3    H129779   3.963   2.220  14.544 -0.1104 -0.9297  0.1668
 2788TIP3    H229780   3.946   2.179  14.399 -1.9546  0.0284  0.0867
 2789TIP3   OH229781   5.667   3.338  10.712 -0.3178  0.9186  0.4597
 2789TIP3    H129782   5.718   3.282  10.654 -0.3686  0.7051  0.6201
 2789TIP3    H229783   5.691   3.427  10.687 -0.4169  0.8278  0.0421
 2790TIP3   OH229784   2.666   0.795   1.267  0.2832 -0.5339  0.5247
 2790TIP3    H129785   2.616   0.858   1.216 -0.3827  0.6416  2.5442
 2790TIP3    H229786   2.612   0.716   1.267  0.1026 -0.4220 -0.2108
 2791TIP3   OH229787   2.998   1.007  11.525 -0.4588 -0.2471  0.1381
 2791TIP3    H129788   3.021   1.057  11.447  1.3454 -0.8373  0.2544
 2791TIP3    H229789   2.960   1.072  11.584  1.6488  0.9837  0.2174
 2792TIP3   OH229790   1.847   2.511   0.016 -0.4115  0.1293 -0.4288
 2792TIP3    H129791   1.930   2.541   0.054 -0.0150 -0.5476 -0.7405
 2792TIP3    H229792   1.784   2.579   0.039  0.4881  1.2930 -1.2664
 2793TIP3   OH229793   2.490   0.090  12.999 -0.2532  0.3698 -0.1405
 2793TIP3    H129794   2.504   0.009  12.950  1.3555 -0.3344  1.3758
 2793TIP3    H229795   2.404   0.078  13.040 -0.5226 -0.0641 -0.8114
 2794TIP3   OH229796   1.866   4.626  12.683 -0.1536 -0.2928 -0.4729
 2794TIP3    H129797   1.796   4.576  12.726 -0.5401  0.8474  0.2603
 2794TIP3    H229798   1.833   4.716  12.681 -0.5622 -0.3932 -4.0382
 2795TIP3   OH229799   4.868   5.161   3.035 -0.5397  0.5698 -0.5972
 2795TIP3    H129800   4.962   5.150   3.024 -0.4981 -0.3041  0.4505
 2795TIP3    H229801   4.830   5.080   3.000 -0.9508  1.1508 -1.5231
 2796TIP3   OH229802   0.274   1.682  12.860 -0.0488  0.2590  0.5214
 2796TIP3    H129803   0.232   1.596  12.862  0.7376 -0.2930 -2.2566
 2796TIP3    H229804   0.270   1.713  12.950  0.4621 -3.0880  1.8430
 2797TIP3   OH229805   6.170   4.663  14.761  0.3470  0.5917  0.1948
 2797TIP3    H129806   6.105   4.604  14.799  0.1974  0.3574 -0.4112
 2797TIP3    H229807   6.145   4.750  14.792 -1.0771  0.6934 -1.1076
 2798TIP3   OH229808   4.336   5.941  14.082  0.0735  0.0083 -0.8713
 2798TIP3    H129809   4.397   6.004  14.120 -1.9264  0.5389  1.7322
 2798TIP3    H229810   4.256   5.991  14.068 -1.0890 -1.5935 -0.1839
 2799TIP3   OH229811   4.115   6.764  13.334 -0.0753  0.5019 -0.0235
 2799TIP3    H129812   4.133   6.855  13.355  0.3276  0.3366  0.3742
 2799TIP3    H229813   4.052   6.736  13.400 -1.1366  0.8286 -0.8810
 2800TIP3   OH229814   3.799   3.994  16.215  0.0144  0.2081  0.6492
 2800TIP3    H129815   3.766   4.022  16.129  2.4071  1.6155  0.0923
 2800TIP3    H229816   3.827   3.903  16.201  1.3881  0.7663 -0.4148
 2801TIP3   OH229817   6.694   4.571   1.807 -0.0231 -0.2255 -0.1734
 2801TIP3    H129818   6.753   4.511   1.762 -0.0470  0.4803 -1.1883
 2801TIP3    H229819   6.630   4.514   1.850  1.0169 -0.9668  0.4143
 2802TIP3   OH229820   4.993   1.847  17.133 -0.1425  0.4947 -0.3385
 2802TIP3    H129821   5.032   1.760  17.137  0.4978  0.7885  0.0791
 2802TIP3    H229822   5.007   1.884  17.220 -0.5570  0.9511 -0.4582
 2803TIP3   OH229823   4.033   2.431   3.183 -0.0367  0.4780 -0.0518
 2803TIP3    H129824   3.966   2.476   3.131 -1.5057 -0.3233  1.0791
 2803TIP3    H229825   3.994   2.345   3.203  0.9652  0.3233  1.3820
 2804TIP3   OH229826   4.176   0.223   5.085  0.3012 -0.0241 -0.7722
 2804TIP3    H129827   4.212   0.161   5.021 -0.2558  0.0269 -1.1375
 2804TIP3    H229828   4.096   0.257   5.044 -0.3388 -0.3670  0.1484
 2805TIP3   OH229829   0.285   5.962   3.531  0.2253 -0.3943 -0.1749
 2805TIP3    H129830   0.206   6.002   3.496 -0.7997 -0.4094  1.9609
 2805TIP3    H229831   0.340   5.945   3.454 -0.9820  1.4314 -1.5116
 2806TIP3   OH229832   2.619   2.954   1.580  0.3185  0.5730  0.2951
 2806TIP3    H129833   2.672   2.929   1.504 -0.0841  0.2964  0.1019
 2806TIP3    H229834   2.674   3.015   1.629  0.7199  0.4751 -0.0320
 2807TIP3   OH229835   1.346   3.897  13.604  0.1193 -0.4640 -0.6227
 2807TIP3    H129836   1.295   3.945  13.669 -0.9316 -0.4423 -1.4172
 2807TIP3    H229837   1.427   3.947  13.595  0.5190 -0.7682  1.0253
 2808TIP3   OH229838   6.359   6.057  15.355  0.3827 -0.6026  0.3417
 2808TIP3    H129839   6.272   6.090  15.378  0.3644 -1.1529  1.1258
 2808TIP3    H229840   6.363   6.064  15.260 -0.3595 -0.1864  0.3291
 2809TIP3   OH229841   0.284   3.222  12.276 -0.5177  0.7929  0.0771
 2809TIP3    H129842   0.190   3.240  12.283 -0.4369  1.0144  0.6592
 2809TIP3    H229843   0.324   3.279  12.342  0.0080  0.5557 -0.0336
 2810TIP3   OH229844   4.702   0.954  12.428 -0.4411  0.2442  0.4570
 2810TIP3    H129845   4.756   0.923  12.500  0.1888  1.0364  0.3471
 2810TIP3    H229846   4.765   0.983  12.362 -1.0091  0.0813 -0.1623
 2811TIP3   OH229847   5.954   3.700   5.987 -0.3589  0.1220 -0.1664
 2811TIP3    H129848   5.918   3.769   6.043 -3.0801  1.1210 -2.8075
 2811TIP3    H229849   6.047   3.720   5.981 -0.7974  2.6838  0.4140
 2812TIP3   OH229850   4.837   5.833  14.769 -0.1438  0.2800  0.1259
 2812TIP3    H129851   4.888   5.912  14.755  0.9252 -0.1859  1.2318
 2812TIP3    H229852   4.819   5.800  14.681  0.5578  1.0127 -0.3029
 2813TIP3   OH229853   4.452   2.693  12.108 -0.4936  0.0171  0.1756
 2813TIP3    H129854   4.375   2.652  12.146 -0.5672  0.1987  0.2227
 2813TIP3    H229855   4.519   2.625  12.110 -0.2951  0.2253  1.2516
 2814TIP3   OH229856   4.409   6.698  12.395 -0.2117  0.0063  0.0362
 2814TIP3    H129857   4.477   6.671  12.333 -0.9814  0.5444 -1.0774
 2814TIP3    H229858   4.340   6.734  12.340 -0.4359  1.5863  1.2827
 2815TIP3   OH229859   3.379   3.478  12.223  0.1162  0.3418  0.1694
 2815TIP3    H129860   3.394   3.564  12.183 -1.0614 -0.1705 -1.4546
 2815TIP3    H229861   3.366   3.497  12.316  1.7470  1.7034  0.1664
 2816TIP3   OH229862   5.608   6.188   1.258  0.6999 -0.0331  0.2245
 2816TIP3    H129863   5.588   6.277   1.287  0.5599 -0.4197  1.3552
 2816TIP3    H229864   5.529   6.159   1.213  1.2273  0.8812 -1.3697
 2817TIP3   OH229865   5.694   5.667  15.221  0.1077 -0.5652 -0.3859
 2817TIP3    H129866   5.701   5.593  15.281  2.4363 -0.9872 -1.0706
 2817TIP3    H229867   5.641   5.634  15.149 -1.0701 -0.6758  0.4906
 2818TIP3   OH229868   1.228   2.010   3.465 -0.0732  0.4828 -0.2596
 2818TIP3    H129869   1.235   1.915   3.455 -0.8216  0.5518 -1.8089
 2818TIP3    H229870   1.281   2.046   3.394  1.2629  1.2755  1.0915
 2819TIP3   OH229871   3.982   0.432  16.657 -0.1837 -0.1199 -0.0417
 2819TIP3    H129872   3.890   0.448  16.681 -0.3251  1.1978 -1.3635
 2819TIP3    H229873   3.978   0.364  16.590 -0.2259  0.2569 -0.4209
 2820TIP3   OH229874   5.183   4.010   0.974 -0.4508  0.3587  0.1704
 2820TIP3    H129875   5.255   4.025   1.035  0.8541  1.0637 -1.4712
 2820TIP3    H229876   5.146   4.097   0.958 -0.7296  0.1965 -0.0826
 2821TIP3   OH229877   2.172   2.134   0.886  0.3729  0.4729 -0.8477
 2821TIP3    H129878   2.266   2.153   0.888  0.6907 -1.0340  0.0180
 2821TIP3    H229879   2.160   2.068   0.954 -1.0710 -0.4377 -1.9413
 2822TIP3   OH229880   6.457   3.924  11.784  0.8398 -0.7280  0.0154
 2822TIP3    H129881   6.402   3.988  11.738 -0.0047 -2.4681 -1.5548
 2822TIP3    H229882   6.545   3.962  11.782  0.1807  0.9195  0.2413
 2823TIP3   OH229883   1.534   6.360  12.588 -0.5178 -0.4775  0.4425
 2823TIP3    H129884   1.547   6.443  12.634  0.2498  0.6109 -1.6272
 2823TIP3    H229885   1.445   6.366  12.553 -0.7370 -0.8767  0.9130
 2824TIP3   OH229886   4.749   4.549  16.873  0.1256 -0.1388  0.3817
 2824TIP3    H129887   4.709   4.488  16.935 -0.9698  0.6155  0.4405
 2824TIP3    H229888   4.700   4.536  16.792 -1.1341  1.6753  0.8021
 2825TIP3   OH229889   3.451   1.779  14.618 -0.3783  0.5764 -0.2662
 2825TIP3    H129890   3.482   1.823  14.539  0.6818  0.4080  0.0505
 2825TIP3    H229891   3.477   1.687  14.607  0.7492  0.7451  0.7373
 2826TIP3   OH229892   2.243   0.323  12.706 -0.6735 -0.1523  0.0991
 2826TIP3    H129893   2.251   0.228  12.696 -0.1782 -0.0593 -0.4519
 2826TIP3    H229894   2.318   0.347  12.761 -1.0376 -0.1275  0.5943
 2827TIP3   OH229895   3.407   1.555   3.296  0.1578  0.2090  0.2528
 2827TIP3    H129896   3.407   1.570   3.202 -0.2699  1.1909  0.4046
 2827TIP3    H229897   3.436   1.464   3.305  0.3764  0.1582 -0.8100
 2828TIP3   OH229898   4.434   4.437  11.288  0.0383  0.0667 -0.6947
 2828TIP3    H129899   4.366   4.504  11.292 -1.0474 -1.0471  0.0140
 2828TIP3    H229900   4.459   4.435  11.195  0.0030  1.3397 -0.7515
 2829TIP3   OH229901   4.633   2.847   5.583 -0.2529  0.1609 -0.3026
 2829TIP3    H129902   4.726   2.848   5.606 -0.5924  0.1463  1.1287
 2829TIP3    H229903   4.625   2.772   5.523  0.4764 -0.4824  0.3726
 2830TIP3   OH229904   2.823   4.553   1.182  0.2437  0.2384  0.1527
 2830TIP3    H129905   2.844   4.528   1.272  0.0244 -1.9825 -0.3759
 2830TIP3    H229906   2.888   4.507   1.128  0.0693  1.1430 -0.8747
 2831TIP3   OH229907   3.731   0.173  16.494 -0.1916 -0.2637  0.4582
 2831TIP3    H129908   3.796   0.162  16.425  0.6850  0.3967  1.1509
 2831TIP3    H229909   3.659   0.220  16.452  1.0483  1.6676  0.3642
 2832TIP3   OH229910   1.640   0.201   0.959 -0.5149  0.1078 -0.0170
 2832TIP3    H129911   1.687   0.118   0.953  0.1411  0.4520  0.2836
 2832TIP3    H229912   1.699   0.259   1.006 -1.4457  0.4126  0.8143
 2833TIP3   OH229913   2.508   5.560  14.856 -0.1992 -0.4900  0.3075
 2833TIP3    H129914   2.431   5.540  14.803 -0.1510 -2.0837  0.7980
 2833TIP3    H229915   2.486   5.642  14.900 -0.9032 -0.0096 -0.8710
 2834TIP3   OH229916   2.005   5.550  17.086  0.4419  0.0034  0.3916
 2834TIP3    H129917   1.965   5.468  17.060 -0.8473  0.3002  1.3160
 2834TIP3    H229918   2.087   5.555  17.037 -0.5197 -0.7699 -1.3380
 2835TIP3   OH229919   0.970   6.732  12.944 -0.4056 -0.0640 -0.1412
 2835TIP3    H129920   0.991   6.826  12.943 -1.7964  0.2746 -0.1422
 2835TIP3    H229921   0.951   6.711  12.852 -0.7581 -0.1839 -0.0424
 2836TIP3   OH229922   2.637   3.984   5.592 -0.0297  0.0326 -0.4510
 2836TIP3    H129923   2.655   4.074   5.620 -1.9407  0.1822  0.4478
 2836TIP3    H229924   2.563   3.992   5.532  1.9162 -0.6425 -3.1290
 2837TIP3   OH229925   1.069   5.577   0.255  0.1180  0.0793 -0.0754
 2837TIP3    H129926   1.115   5.575   0.339  1.0640  0.4425 -0.5723
 2837TIP3    H229927   1.060   5.485   0.230 -0.7788 -0.0663  0.7353
 2838TIP3   OH229928   4.441   5.992  15.937 -0.3335 -0.2417 -0.1810
 2838TIP3    H129929   4.435   5.925  15.868 -1.0469 -0.5462  0.1683
 2838TIP3    H229930   4.415   5.947  16.017  1.6341 -0.2098  0.5369
 2839TIP3   OH229931   1.337   1.222   0.505 -0.2311 -0.2669  0.4546
 2839TIP3    H129932   1.274   1.227   0.577  0.6342 -1.0086  1.2886
 2839TIP3    H229933   1.406   1.284   0.530 -0.6296  0.5823 -0.4775
 2840TIP3   OH229934   5.554   0.431   0.534  0.1129 -0.0924 -0.2275
 2840TIP3    H129935   5.597   0.516   0.527  0.2695 -0.2287 -1.0816
 2840TIP3    H229936   5.462   0.450   0.517 -0.4597  0.3918  2.7799
 2841TIP3   OH229937   4.019   3.565  13.780  0.0241 -0.0493 -0.1807
 2841TIP3    H129938   3.967   3.584  13.858 -0.2977  0.1825 -0.4509
 2841TIP3    H229939   4.016   3.645  13.728  0.2958 -0.1782 -0.3988
 2842TIP3   OH229940   4.574   3.735  12.326 -0.4831  0.0297  0.0350
 2842TIP3    H129941   4.659   3.692  12.315  0.3952  1.9642 -1.3825
 2842TIP3    H229942   4.539   3.699  12.407  0.9429 -2.0044 -0.1759
 2843TIP3   OH229943   3.667   4.594   2.084 -0.2428  0.3133 -0.4278
 2843TIP3    H129944   3.618   4.565   2.007 -2.0156 -1.2957  1.1945
 2843TIP3    H229945   3.622   4.674   2.111  1.1357  1.5749 -1.6706
 2844TIP3   OH229946   4.163   5.109   4.476  0.1532  0.0571 -0.1424
 2844TIP3    H129947   4.236   5.144   4.528  0.2408 -1.9451  1.1899
 2844TIP3    H229948   4.201   5.091   4.390  0.9250  0.1300  0.1767
 2845TIP3   OH229949   0.114   5.070   6.232  0.0361  0.3760 -0.1617
 2845TIP3    H129950   0.092   5.150   6.280  3.1859  0.4855  1.3926
 2845TIP3    H229951   0.107   5.000   6.298 -0.1202 -0.2375 -0.8163
 2846TIP3   OH229952   5.170   3.930   3.223  0.3328 -0.2125  0.0194
 2846TIP3    H129953   5.091   3.899   3.268  0.2648 -1.2334 -0.7643
 2846TIP3    H229954   5.140   3.954   3.136  0.3964  2.1178  0.5649
 2847TIP3   OH229955   5.606   5.344  11.443 -0.0577  0.2872 -0.1226
 2847TIP3    H129956   5.649   5.307  11.366  0.3625 -2.3352  1.2483
 2847TIP3    H229957   5.635   5.288  11.516 -2.1497  1.2868  1.5932
 2848TIP3   OH229958   3.348   5.452  15.428 -0.4490  0.3114 -0.2319
 2848TIP3    H129959   3.371   5.365  15.461  2.2941  0.6772 -0.9376
 2848TIP3    H229960   3.319   5.499  15.506  0.5758 -0.4765  0.6702
 2849TIP3   OH229961   1.529   6.412  12.106  0.0545 -0.3748 -0.0947
 2849TIP3    H129962   1.530   6.409  12.011 -0.8770  2.1988 -0.2749
 2849TIP3    H229963   1.596   6.477  12.129 -0.7819  0.1919  0.8688
 2850TIP3   OH229964   5.655   6.116   3.159 -0.5385 -0.5929  0.6953
 2850TIP3    H129965   5.641   6.084   3.248  2.4398 -2.3898  0.6399
 2850TIP3    H229966   5.708   6.195   3.169  1.2736 -1.7316  0.5614
 2851TIP3   OH229967   6.788   4.740  12.531 -0.2142  0.3503 -0.3209
 2851TIP3    H129968   6.786   4.725  12.437 -0.9691  2.0937 -0.6222
 2851TIP3    H229969   6.696   4.743  12.557 -0.2646  3.8604 -0.3187
 2852TIP3   OH229970   0.374   5.193  16.138 -0.0467  0.4284  0.4687
 2852TIP3    H129971   0.330   5.274  16.166  0.4711  1.5983 -1.8249
 2852TIP3    H229972   0.320   5.162  16.065  1.2995  0.2755 -0.4851
 2853TIP3   OH229973   5.019   2.573  11.092  0.6471  0.1012 -0.5724
 2853TIP3    H129974   4.960   2.524  11.035  1.5993  0.3435 -1.8036
 2853TIP3    H229975   5.032   2.656  11.046 -0.4159  1.2841  1.1516
 2854TIP3   OH229976   4.769   4.110  16.983  0.0983  0.2066  0.0722
 2854TIP3    H129977   4.824   4.132  16.907 -0.2719  1.3080  0.0978
 2854TIP3    H229978   4.685   4.152  16.964 -0.2525 -0.1787  0.7332
 2855TIP3   OH229979   1.103   0.261   5.921  0.3085  0.4909  0.4851
 2855TIP3    H129980   1.009   0.242   5.918 -0.2468  3.0399 -0.5657
 2855TIP3    H229981   1.116   0.304   6.005  0.1326  1.8623 -0.1703
 2856TIP3   OH229982   5.531   5.289  15.881 -0.6028  0.0743  0.0612
 2856TIP3    H129983   5.500   5.200  15.861  0.4976  0.1486 -2.2995
 2856TIP3    H229984   5.599   5.276  15.947  1.1692 -1.1640 -1.8826
 2857TIP3   OH229985   5.519   6.060  14.699 -0.1946  0.2742 -0.6766
 2857TIP3    H129986   5.516   6.148  14.660 -0.2766  1.1018  1.1104
 2857TIP3    H229987   5.569   6.071  14.780 -1.4191 -1.0337  0.3036
 2858TIP3   OH229988   6.108   6.221  14.510 -0.4896 -0.6955  0.5300
 2858TIP3    H129989   6.186   6.272  14.532 -0.0035 -1.1334 -0.1403
 2858TIP3    H229990   6.099   6.158  14.581  0.0730 -0.9746  0.3621
 2859TIP3   OH229991   3.378   6.490   3.696  0.4342 -0.4124 -0.3830
 2859TIP3    H129992   3.371   6.398   3.721  1.9152  0.1428  2.4560
 2859TIP3    H229993   3.470   6.502   3.673  0.4081  0.4847 -0.0547
 2860TIP3   OH229994   5.464   2.660  14.220  0.0852  0.1952 -0.1561
 2860TIP3    H129995   5.449   2.748  14.255 -1.7320  0.2958 -1.0413
 2860TIP3    H229996   5.474   2.674  14.126  1.1238 -0.4321 -0.1511
 2861TIP3   OH229997   4.126   6.613   0.697  0.8004 -0.5221  0.2346
 2861TIP3    H129998   4.192   6.664   0.649 -2.1472  2.0494 -1.4682
 2861TIP3    H229999   4.165   6.600   0.784  2.7361  2.7983  0.0561
 2862TIP3   OH230000   4.321   1.564  11.984  0.1684  0.4981 -0.3873
 2862TIP3    H130001   4.318   1.495  11.919  0.0657  1.0498 -0.9832
 2862TIP3    H230002   4.289   1.523  12.065 -0.8811  0.1134 -0.9709
 2863TIP3   OH230003   0.772   4.863  16.910  0.2545 -0.2872  1.2043
 2863TIP3    H130004   0.699   4.811  16.876  1.5839 -1.3503 -0.1795
 2863TIP3    H230005   0.787   4.930  16.843 -0.0477  0.5362  1.9420
 2864TIP3   OH230006   5.849   0.629  12.213 -0.2238 -0.4020 -0.2778
 2864TIP3    H130007   5.936   0.601  12.241  0.4342  0.7581 -1.1004
 2864TIP3    H230008   5.858   0.646  12.119 -0.7438  1.8656  0.0326
 2865TIP3   OH230009   4.334   6.783   2.466 -0.5851  0.4771 -0.2493
 2865TIP3    H130010   4.250   6.775   2.422 -0.1066  0.9381 -1.2679
 2865TIP3    H230011   4.388   6.713   2.427 -1.2514 -1.5967  2.2738
 2866TIP3   OH230012   5.082   2.555   3.460 -0.0144  0.5178  0.2258
 2866TIP3    H130013   5.120   2.497   3.393  0.4592  2.0470 -0.8922
 2866TIP3    H230014   5.106   2.643   3.431 -0.2814  1.2583  2.1496
 2867TIP3   OH230015   3.947   1.743  15.153 -0.3007 -0.0080 -0.0437
 2867TIP3    H130016   3.875   1.716  15.096 -0.4231  0.1345  0.0396
 2867TIP3    H230017   4.025   1.701  15.117 -0.8795 -2.9441  1.8018
 2868TIP3   OH230018   3.298   1.968   3.919  0.3816  0.5174 -0.2024
 2868TIP3    H130019   3.364   2.022   3.875  0.0690  0.4155 -0.8144
 2868TIP3    H230020   3.347   1.916   3.981  0.7940  0.9127 -0.1903
 2869TIP3   OH230021   0.749   3.404  12.003 -0.1858  0.0174  0.6373
 2869TIP3    H130022   0.662   3.438  11.980  0.5501 -0.1739 -2.8549
 2869TIP3    H230023   0.774   3.455  12.081 -2.6386  1.3825  0.6403
 2870TIP3   OH230024   4.829   4.740  14.324  0.3179  0.3539  0.3674
 2870TIP3    H130025   4.748   4.755  14.373  0.1905  0.8661  0.0075
 2870TIP3    H230026   4.897   4.742  14.390  0.2476  1.9770  0.4333
 2871TIP3   OH230027   6.369   0.699   2.778 -0.1676  0.3876  0.2863
 2871TIP3    H130028   6.445   0.749   2.809  0.6819  0.5667 -1.8710
 2871TIP3    H230029   6.354   0.732   2.689 -0.0922 -2.5900 -0.9404
 2872TIP3   OH230030   1.676   1.400  16.231  0.1627  0.2066  0.0389
 2872TIP3    H130031   1.649   1.421  16.142 -0.6182  2.4465  0.7273
 2872TIP3    H230032   1.733   1.324  16.222 -0.7654 -0.2956 -2.2355
 2873TIP3   OH230033   3.925   2.944  16.441 -0.1633 -0.3452 -0.0581
 2873TIP3    H130034   3.981   2.902  16.376  1.0994 -2.1246  2.0437
 2873TIP3    H230035   3.977   3.018  16.473 -1.7437  2.0859 -2.6037
 2874TIP3   OH230036   0.051   0.350  13.914  0.3665 -0.1621 -0.2591
 2874TIP3    H130037   0.078   0.302  13.836 -1.3579 -0.5357 -0.6624
 2874TIP3    H230038   0.097   0.434  13.908  0.5457 -0.3347 -1.4791
 2875TIP3   OH230039   2.249   1.790   5.007 -0.4995  0.0266 -0.1291
 2875TIP3    H130040   2.274   1.713   5.058  0.4264  0.2068 -0.2918
 2875TIP3    H230041   2.166   1.765   4.966 -0.1927 -0.9166 -0.2222
 2876TIP3   OH230042   2.275   1.194   5.744  0.1936  0.5882 -0.5660
 2876TIP3    H130043   2.203   1.201   5.682 -0.3737  1.6665  0.1836
 2876TIP3    H230044   2.327   1.273   5.729  1.6356 -0.4971 -1.5649
 2877TIP3   OH230045   3.445   1.705  10.656  0.1926  0.0410  0.1247
 2877TIP3    H130046   3.461   1.634  10.593 -0.4635  0.3163 -0.3633
 2877TIP3    H230047   3.530   1.748  10.666  0.6596 -0.9389  0.6009
 2878TIP3   OH230048   0.893   1.331  14.324 -0.2938 -0.1043  0.2234
 2878TIP3    H130049   0.887   1.245  14.282  0.0679  0.1421 -0.3485
 2878TIP3    H230050   0.837   1.324  14.401  0.6173 -1.2175  0.8019
 2879TIP3   OH230051   0.581   3.840   1.119  0.2182 -0.2524  0.4020
 2879TIP3    H130052   0.515   3.826   1.051 -1.3665 -0.9618  2.0152
 2879TIP3    H230053   0.597   3.934   1.117 -1.2733  0.0348  0.3298
 2880TIP3   OH230054   4.580   6.629   0.342  0.3367  0.0687  0.2192
 2880TIP3    H130055   4.538   6.567   0.283  2.7014 -0.8592 -0.6281
 2880TIP3    H230056   4.630   6.686   0.285  0.5760  0.8596  1.1849
 2881TIP3   OH230057   5.172   5.437  12.773 -0.0490 -0.6071 -0.2471
 2881TIP3    H130058   5.216   5.400  12.850  1.0910  1.7952  0.3453
 2881TIP3    H230059   5.128   5.515  12.806  0.1329  0.2444 -1.9366
 2882TIP3   OH230060   4.910   2.717  11.382 -0.0605 -0.2152 -0.2736
 2882TIP3    H130061   4.871   2.706  11.469 -1.8218  1.1504 -0.8261
 2882TIP3    H230062   5.003   2.731  11.398 -0.5975  1.5894  1.5253
 2883TIP3   OH230063   6.482   1.688  15.288  0.1813 -0.0045  0.3575
 2883TIP3    H130064   6.427   1.715  15.214  1.2316 -3.1561 -1.7798
 2883TIP3    H230065   6.420   1.655  15.353 -0.6553  0.5042 -0.1606
 2884TIP3   OH230066   5.607   4.423   5.488 -0.3778 -0.5401 -0.8332
 2884TIP3    H130067   5.580   4.383   5.406 -1.4464 -1.1631 -0.1999
 2884TIP3    H230068   5.621   4.515   5.466 -1.6920 -0.4787 -1.5067
 2885TIP3   OH230069   6.148   3.830  14.189 -0.4072 -0.1688  0.6955
 2885TIP3    H130070   6.148   3.738  14.216  1.3138 -0.3133  0.3272
 2885TIP3    H230071   6.061   3.845  14.154 -0.0494 -2.3484 -1.4027
 2886TIP3   OH230072   2.019   5.274   0.628  0.0629  0.2806  0.1193
 2886TIP3    H130073   2.003   5.199   0.570 -0.6665  1.1393 -0.8418
 2886TIP3    H230074   1.936   5.322   0.628  0.5449  1.1398  0.6418
 2887TIP3   OH230075   0.915   0.579  13.371  0.2415 -0.4771 -0.3204
 2887TIP3    H130076   0.876   0.642  13.310 -0.0030  0.1090  0.4313
 2887TIP3    H230077   0.947   0.633  13.444  1.2041 -1.0883 -0.2698
 2888TIP3   OH230078   4.620   3.563  14.854 -0.4192 -0.2976 -0.6088
 2888TIP3    H130079   4.700   3.544  14.805  0.4283  1.8517 -0.1889
 2888TIP3    H230080   4.649   3.567  14.946 -1.2602 -0.7005 -0.3169
 2889TIP3   OH230081   6.401   5.426  13.084  0.3909  0.7186 -0.0216
 2889TIP3    H130082   6.483   5.454  13.044 -0.2019 -1.1998 -2.8523
 2889TIP3    H230083   6.408   5.330  13.088 -1.0700  0.6343  1.2400
 2890TIP3   OH230084   0.965   1.261  16.609 -0.3122 -0.0880  0.4552
 2890TIP3    H130085   1.019   1.195  16.652  1.3142  1.1119  0.3999
 2890TIP3    H230086   1.003   1.344  16.637  0.5238  0.7809 -2.8045
 2891TIP3   OH230087   3.239   4.763  16.077  0.0549 -0.3319 -0.2291
 2891TIP3    H130088   3.200   4.764  15.990 -0.6908 -1.8313  0.0366
 2891TIP3    H230089   3.308   4.696  16.072  2.0073  1.6056 -0.4262
 2892TIP3   OH230090   0.401   3.565  16.869 -0.0680 -0.1885  0.3338
 2892TIP3    H130091   0.373   3.553  16.959 -0.7212 -1.5061 -0.0240
 2892TIP3    H230092   0.365   3.650  16.844  1.2410  0.8071  1.7005
 2893TIP3   OH230093   6.364   6.117  16.199 -0.8016  0.7999 -0.7108
 2893TIP3    H130094   6.388   6.208  16.214  1.3980 -0.1121  2.4070
 2893TIP3    H230095   6.294   6.100  16.261 -1.7873  0.5128 -1.8580
 2894TIP3   OH230096   0.234   1.562  15.829  0.3899 -0.0926  0.2261
 2894TIP3    H130097   0.155   1.508  15.831  0.6439 -0.5047 -0.5644
 2894TIP3    H230098   0.203   1.651  15.847  0.0234 -0.5435  2.0338
 2895TIP3   OH230099   1.686   0.694   1.144  0.0836  0.0883 -0.7544
 2895TIP3    H130100   1.744   0.668   1.072 -0.0936 -0.5283 -0.6785
 2895TIP3    H230101   1.598   0.677   1.111 -0.0573  0.9021 -0.8201
 2896TIP3   OH230102   1.876   1.094  15.398  0.0576  0.3399 -0.1598
 2896TIP3    H130103   1.833   1.102  15.483 -0.3748 -0.0460 -0.3381
 2896TIP3    H230104   1.957   1.145  15.407  0.5734 -0.6101  0.8549
 2897TIP3   OH230105   5.743   4.267  12.874 -0.0438  0.5749 -0.2691
 2897TIP3    H130106   5.673   4.314  12.919 -0.2193  1.2754 -1.2511
 2897TIP3    H230107   5.749   4.183  12.921 -2.1115  0.1287 -0.6944
 2898TIP3   OH230108   2.437   2.020  11.615 -0.1178 -0.8848 -0.0891
 2898TIP3    H130109   2.385   2.087  11.570 -0.6336 -0.5816  0.9341
 2898TIP3    H230110   2.455   1.954  11.547  1.3013  0.7621 -1.4012
 2899TIP3   OH230111   0.726   4.701  16.674 -0.9383 -0.3318 -0.1823
 2899TIP3    H130112   0.641   4.657  16.673 -0.1578 -2.1119 -3.6454
 2899TIP3    H230113   0.756   4.698  16.584  2.8783  0.1541  0.8866
 2900TIP3   OH230114   6.438   6.369  16.487 -0.1982 -0.1635 -0.4330
 2900TIP3    H130115   6.429   6.441  16.551 -2.2977 -0.3288 -0.4563
 2900TIP3    H230116   6.448   6.291  16.540  0.6016 -0.0268 -0.3741
 2901TIP3   OH230117   6.281   1.854   1.708  0.1144 -0.3473  0.4979
 2901TIP3    H130118   6.241   1.927   1.755 -1.4819  1.7338 -3.5874
 2901TIP3    H230119   6.374   1.862   1.727 -0.1345  2.1198  1.0863
 2902TIP3   OH230120   6.518   6.513  10.858  0.3774 -0.2086  0.5111
 2902TIP3    H130121   6.568   6.592  10.880  0.8100 -0.3791  0.1454
 2902TIP3    H230122   6.426   6.539  10.870  0.3342  1.1482 -2.0232
 2903TIP3   OH230123   5.213   2.067   0.719 -0.1536  0.3141 -0.4866
 2903TIP3    H130124   5.231   2.149   0.764 -1.0456  0.7980 -0.9740
 2903TIP3    H230125   5.262   2.073   0.637  1.2650 -0.4577  0.2643
 2904TIP3   OH230126   2.530   0.874  12.647 -0.4785  0.7281  0.5235
 2904TIP3    H130127   2.531   0.814  12.722  1.4132  0.8987  0.6797
 2904TIP3    H230128   2.604   0.847  12.593 -1.8635  0.5445 -1.4014
 2905TIP3   OH230129   5.931   3.383  11.131  0.2850 -0.4138  0.0303
 2905TIP3    H130130   5.896   3.386  11.042  0.8503  0.6050 -0.1715
 2905TIP3    H230131   5.940   3.475  11.157  0.2536 -0.6923  1.0930
 2906TIP3   OH230132   3.856   6.278   5.340  0.2377 -0.2434  0.0068
 2906TIP3    H130133   3.849   6.306   5.248  2.0414  0.6142  0.0793
 2906TIP3    H230134   3.809   6.195   5.343 -1.0085  0.3529 -1.3815
 2907TIP3   OH230135   6.796   1.304   0.139  0.2013 -0.5059  0.0273
 2907TIP3    H130136   6.757   1.220   0.117 -1.6047 -0.0816  1.3791
 2907TIP3    H230137   6.803   1.303   0.234  2.5245 -0.0813 -0.0791
 2908TIP3   OH230138   2.498   6.226  15.564  0.3749 -0.1405  0.3634
 2908TIP3    H130139   2.554   6.150  15.547  0.4965  0.1182 -0.4351
 2908TIP3    H230140   2.539   6.270  15.639  1.3412  0.1306 -0.3013
 2909TIP3   OH230141   6.541   5.662  11.017  0.2665 -0.0274  0.6138
 2909TIP3    H130142   6.627   5.677  10.979  0.2182 -0.1025  0.4752
 2909TIP3    H230143   6.481   5.661  10.942  0.3392 -1.4661  0.5501
 2910TIP3   OH230144   6.366   1.131   0.286 -0.7353  0.0338 -0.2843
 2910TIP3    H130145   6.429   1.196   0.318 -1.2909  0.0179  0.8990
 2910TIP3    H230146   6.370   1.061   0.351  0.7531 -1.7398 -2.1595
 2911TIP3   OH230147   1.548   1.591  11.817  0.3832 -0.2763 -0.1276
 2911TIP3    H130148   1.505   1.507  11.807  0.1926 -0.5126  2.1157
 2911TIP3    H230149   1.576   1.593  11.909  2.1289  1.2922 -0.6201
 2912TIP3   OH230150   1.489   2.593   2.697 -0.0457  0.1315  0.3864
 2912TIP3    H130151   1.508   2.608   2.790 -0.8013 -1.4827  0.8391
 2912TIP3    H230152   1.549   2.524   2.670 -0.7539 -0.3851  0.0687
 2913TIP3   OH230153   3.032   3.602  10.737  0.0900 -0.2633  0.1724
 2913TIP3    H130154   2.961   3.636  10.682  0.6505 -0.2084 -0.5230
 2913TIP3    H230155   3.042   3.668  10.806  0.1222  0.2236 -0.2902
 2914TIP3   OH230156   2.181   3.453  13.326  0.1257 -0.0802 -0.0828
 2914TIP3    H130157   2.185   3.452  13.231  0.9434  1.2844 -0.0837
 2914TIP3    H230158   2.202   3.543  13.351 -1.7631  0.0392  1.3383
 2915TIP3   OH230159   3.999   2.241   4.510 -0.4208 -0.4298 -0.4032
 2915TIP3    H130160   3.939   2.280   4.448  0.8402  0.9767 -0.7942
 2915TIP3    H230161   3.951   2.239   4.593 -1.9802 -1.9867 -1.2943
 2916TIP3   OH230162   4.389   2.579   3.488 -0.2954 -0.4671 -0.6743
 2916TIP3    H130163   4.406   2.670   3.511  0.1969 -0.7409  0.0735
 2916TIP3    H230164   4.424   2.570   3.399 -0.5325  0.1213 -0.8322
 2917TIP3   OH230165   3.815   6.453  13.909 -0.2411  0.1253  0.4471
 2917TIP3    H130166   3.821   6.511  13.984 -0.3140 -0.7109  1.1089
 2917TIP3    H230167   3.723   6.427  13.906 -0.3177  0.4474 -0.1618
 2918TIP3   OH230168   6.662   4.387   2.981  0.2625  0.5928  0.2002
 2918TIP3    H130169   6.567   4.383   2.972  0.1390  2.7456 -0.0988
 2918TIP3    H230170   6.683   4.479   2.964  2.0766  0.9144  3.4664
 2919TIP3   OH230171   4.440   6.620  15.491  0.0222 -0.1078  0.1073
 2919TIP3    H130172   4.508   6.604  15.425  2.5733 -0.8311  2.7138
 2919TIP3    H230173   4.388   6.539  15.491  0.1712 -0.2135 -0.8074
 2920TIP3   OH230174   1.620   2.754  15.581  0.0136 -0.1390  0.0386
 2920TIP3    H130175   1.586   2.666  15.562  1.0372 -0.1219 -2.1533
 2920TIP3    H230176   1.542   2.809  15.587 -0.5964 -1.0285  0.6168
 2921TIP3   OH230177   5.862   2.380   3.453  0.0831  0.0508  0.0267
 2921TIP3    H130178   5.873   2.375   3.548  1.3427  0.8289 -0.0538
 2921TIP3    H230179   5.842   2.290   3.426  0.7641 -0.3750  0.8991
 2922TIP3   OH230180   4.214   3.028   1.878  0.0168 -0.4796  0.2300
 2922TIP3    H130181   4.259   2.944   1.873  3.4506  1.2189 -3.0985
 2922TIP3    H230182   4.244   3.068   1.959 -1.5381 -2.2401  1.7646
 2923TIP3   OH230183   4.516   1.806   3.497 -0.2772 -0.0538  0.1051
 2923TIP3    H130184   4.469   1.885   3.522  0.9112  0.0782  2.1089
 2923TIP3    H230185   4.590   1.801   3.558  0.2737 -2.1521 -0.6402
 2924TIP3   OH230186   1.343   2.891   1.971  0.6531  0.4442  0.1887
 2924TIP3    H130187   1.389   2.834   2.033 -0.3624 -3.4929 -2.3016
 2924TIP3    H230188   1.412   2.930   1.918  1.3399 -0.0231  0.7224
 2925TIP3   OH230189   4.892   3.462  16.103 -0.0855 -0.0983  0.1260
 2925TIP3    H130190   4.882   3.418  16.019  0.3668  1.8331 -0.9791
 2925TIP3    H230191   4.933   3.546  16.083 -2.2437  1.5305  1.9337
 2926TIP3   OH230192   2.532   2.955  12.270  0.0872 -0.3334  0.4936
 2926TIP3    H130193   2.621   2.920  12.272  0.6353  1.0102  1.8461
 2926TIP3    H230194   2.544   3.050  12.259 -1.1451 -0.0718  1.1843
 2927TIP3   OH230195   6.249   1.298  15.959  0.1833  0.0407  0.0231
 2927TIP3    H130196   6.226   1.258  15.875  1.1076 -2.0428  0.6899
 2927TIP3    H230197   6.308   1.370  15.936 -0.3628  0.1347 -1.1518
 2928TIP3   OH230198   2.103   1.456   6.327 -0.4421 -0.1748 -0.1775
 2928TIP3    H130199   2.190   1.492   6.343 -0.6625  0.1362  0.3724
 2928TIP3    H230200   2.107   1.419   6.239  0.1281  0.1792 -0.3016
 2929TIP3   OH230201   2.492   1.316   3.285  0.7752 -0.2552 -0.1348
 2929TIP3    H130202   2.435   1.373   3.233  0.6442 -0.5246 -0.2956
 2929TIP3    H230203   2.577   1.321   3.242  0.8571  0.1046  0.0717
 2930TIP3   OH230204   5.745   5.669   3.648 -0.2209 -0.2557 -0.5339
 2930TIP3    H130205   5.821   5.723   3.670 -0.0861 -0.4557 -0.5020
 2930TIP3    H230206   5.769   5.627   3.565 -0.0680 -0.7412 -0.2510
 2931TIP3   OH230207   5.496   2.189  14.335 -0.4510 -0.1441 -0.4629
 2931TIP3    H130208   5.438   2.173  14.410  0.4564 -0.8373  0.1208
 2931TIP3    H230209   5.443   2.164  14.259 -2.0456  2.3032 -0.2800
 2932TIP3   OH230210   4.037   4.777  16.218 -0.1782  0.0820 -0.5767
 2932TIP3    H130211   4.064   4.853  16.167 -1.7540  0.7833 -0.4170
 2932TIP3    H230212   4.112   4.758  16.274  0.2609  1.4830 -0.6583
 2933TIP3   OH230213   0.570   3.699   6.818 -0.0513 -0.1785 -0.4700
 2933TIP3    H130214   0.477   3.708   6.800 -0.4880  2.4305  2.3513
 2933TIP3    H230215   0.612   3.710   6.732 -2.2614  0.1225 -1.5824
 2934TIP3   OH230216   3.180   2.812   4.866 -0.2363 -0.1686 -0.0445
 2934TIP3    H130217   3.220   2.761   4.937  0.8116  0.5295 -0.1137
 2934TIP3    H230218   3.193   2.903   4.892 -1.8263  0.0848 -0.0714
 2935TIP3   OH230219   3.957   1.729  13.884 -0.2522 -0.4524  0.2403
 2935TIP3    H130220   3.959   1.668  13.958 -0.4899 -0.5247  0.1886
 2935TIP3    H230221   3.902   1.686  13.819  0.0995 -0.4685 -0.0500
 2936TIP3   OH230222   5.501   1.671  17.129 -0.4819  0.3315  0.1336
 2936TIP3    H130223   5.538   1.750  17.170  1.4397 -0.5560  0.2535
 2936TIP3    H230224   5.491   1.694  17.037  1.2531  0.3772 -0.0817
 2937TIP3   OH230225   2.035   1.322   4.493  0.1856 -0.4914  0.4881
 2937TIP3    H130226   2.114   1.375   4.501  0.6277 -1.1753  0.7225
 2937TIP3    H230227   1.974   1.361   4.556 -0.1665  0.8864 -0.6673
 2938TIP3   OH230228   5.841   1.590   4.515 -0.2388  0.0058  0.3007
 2938TIP3    H130229   5.919   1.567   4.566  0.1017  0.9428  0.2188
 2938TIP3    H230230   5.823   1.681   4.539 -0.8249  0.0546 -0.3020
 2939TIP3   OH230231   4.469   4.268  13.642  0.5423  0.1148 -0.0143
 2939TIP3    H130232   4.529   4.293  13.713  1.2991  1.8174 -1.1753
 2939TIP3    H230233   4.524   4.269  13.564 -0.6082 -0.2239 -0.8477
 2940TIP3   OH230234   3.140   6.581  14.907 -0.1401 -0.2050  0.1766
 2940TIP3    H130235   3.050   6.562  14.933  0.2294 -1.6307  0.4760
 2940TIP3    H230236   3.150   6.538  14.822  0.5335 -0.8329  0.5707
 2941TIP3   OH230237   5.682   3.507  11.339 -0.2069  0.2805  0.4688
 2941TIP3    H130238   5.731   3.451  11.400  0.1875  0.7583  0.6017
 2941TIP3    H230239   5.594   3.512  11.377 -0.6984 -1.4634 -0.3407
 2942TIP3   OH230240   1.086   5.371  16.265  0.0418 -0.5512 -0.4066
 2942TIP3    H130241   1.145   5.447  16.263  1.2753 -1.5036 -1.6766
 2942TIP3    H230242   1.142   5.298  16.290 -0.6793 -1.4016 -1.2264
 2943TIP3   OH230243   4.131   0.533  11.634 -0.0937 -0.1284  0.7157
 2943TIP3    H130244   4.186   0.485  11.697 -0.6741 -0.4271  1.0071
 2943TIP3    H230245   4.193   0.576  11.576  0.4536 -1.5276  0.2187
 2944TIP3   OH230246   2.144   5.780   2.114 -0.1436  0.7051 -0.6295
 2944TIP3    H130247   2.089   5.847   2.156 -1.5807 -0.7145 -0.1814
 2944TIP3    H230248   2.086   5.736   2.053  0.7247 -0.3063 -0.7514
 2945TIP3   OH230249   1.577   1.044  10.676 -0.0649  0.1810 -0.1081
 2945TIP3    H130250   1.592   1.064  10.584 -1.0232  1.2441 -0.0524
 2945TIP3    H230251   1.486   1.016  10.680 -0.7311  2.2516  0.7921
 2946TIP3   OH230252   0.926   4.153   4.576  0.0645  0.1134  0.3027
 2946TIP3    H130253   0.922   4.206   4.656 -1.7276  0.0839  0.2667
 2946TIP3    H230254   0.997   4.091   4.593 -0.0811  0.2987  1.7695
 2947TIP3   OH230255   5.134   4.041  11.809 -0.8834 -0.2082 -0.1030
 2947TIP3    H130256   5.161   4.090  11.886 -1.6815  0.7737 -0.4313
 2947TIP3    H230257   5.038   4.039  11.813 -1.0066  0.8482 -1.6393
 2948TIP3   OH230258   0.780   5.555  15.641  0.0838 -0.5739 -0.1125
 2948TIP3    H130259   0.720   5.481  15.647  0.7415 -1.1984 -1.0029
 2948TIP3    H230260   0.723   5.629  15.617 -0.5692 -0.7719  0.7673
 2949TIP3   OH230261   4.345   2.426  15.889 -0.1214 -0.2293  0.3929
 2949TIP3    H130262   4.294   2.480  15.950  2.8783 -0.9839  3.9144
 2949TIP3    H230263   4.404   2.488  15.847 -0.2370 -0.0702  0.4612
 2950TIP3   OH230264   5.539   1.644   4.432 -0.4763 -0.1343 -0.5554
 2950TIP3    H130265   5.496   1.590   4.498 -1.0389 -1.7326 -2.1378
 2950TIP3    H230266   5.632   1.621   4.438 -0.8684 -2.6623 -2.2610
 2951TIP3   OH230267   6.244   2.525  14.800  0.5411 -0.4364 -0.2904
 2951TIP3    H130268   6.260   2.502  14.709 -0.5269  2.1678 -1.2283
 2951TIP3    H230269   6.323   2.572  14.827  1.8519 -3.0990  0.9761
 2952TIP3   OH230270   0.448   0.700   4.247 -0.0720 -0.1648 -0.3933
 2952TIP3    H130271   0.409   0.786   4.231 -0.0856  0.0961  0.9421
 2952TIP3    H230272   0.387   0.639   4.207  0.5255  0.4802 -2.4021
 2953TIP3   OH230273   4.243   0.595   1.645  0.7340  0.1809  0.1523
 2953TIP3    H130274   4.215   0.666   1.588  0.4066  1.3700  1.7258
 2953TIP3    H230275   4.166   0.577   1.701  1.1251 -0.7481  0.4127
 2954TIP3   OH230276   0.097   3.146  13.087 -0.0091 -0.1293 -0.0526
 2954TIP3    H130277   0.054   3.102  13.015 -1.4645  0.0209  0.6944
 2954TIP3    H230278   0.142   3.076  13.135 -0.5956 -0.4937 -0.0350
 2955TIP3   OH230279   6.808   4.782  14.376  0.0937 -0.2085  0.4904
 2955TIP3    H130280   6.781   4.693  14.398  0.6216 -1.4029 -3.0444
 2955TIP3    H230281   6.744   4.811  14.311  1.2260  1.0885 -0.0978
 2956TIP3   OH230282   1.723   6.578   3.708  0.0273  0.5730 -0.0431
 2956TIP3    H130283   1.710   6.644   3.640 -2.2980  0.1658 -0.0758
 2956TIP3    H230284   1.702   6.623   3.790 -0.8140  0.1068  0.0093
 2957TIP3   OH230285   2.447   1.055   4.197  0.1731  0.0621  0.4132
 2957TIP3    H130286   2.472   1.107   4.273  2.7674 -0.0269 -0.2833
 2957TIP3    H230287   2.478   0.967   4.216  0.9604  0.0614 -0.7529
 2958TIP3   OH230288   0.678   0.873  16.763 -0.1169  0.2712  0.3018
 2958TIP3    H130289   0.626   0.799  16.730 -1.5321  0.9949  0.8019
 2958TIP3    H230290   0.655   0.877  16.856 -0.3799  1.5901  0.1894
 2959TIP3   OH230291   6.678   6.609  14.837 -0.3723 -0.2644  0.3251
 2959TIP3    H130292   6.698   6.517  14.853 -4.2030 -1.1016  1.2231
 2959TIP3    H230293   6.699   6.653  14.919  0.2744 -0.5587  0.3220
 2960TIP3   OH230294   3.188   4.936   3.159 -0.0067 -0.5706 -0.0445
 2960TIP3    H130295   3.272   4.965   3.195 -0.0995  0.2003 -0.4153
 2960TIP3    H230296   3.123   4.988   3.207 -0.3051 -1.3811  0.4581
 2961TIP3   OH230297   1.510   4.788  17.070 -0.1997 -0.1022  1.0933
 2961TIP3    H130298   1.464   4.838  17.002  1.8667  2.2470  1.2773
 2961TIP3    H230299   1.525   4.702  17.030  0.1775  0.9193 -1.1231
 2962TIP3   OH230300   3.042   1.973  16.260  0.6140 -0.0735 -0.0232
 2962TIP3    H130301   3.018   1.931  16.178 -1.5167  2.6779 -0.9885
 2962TIP3    H230302   3.127   2.014  16.243  0.8703 -0.7436 -0.3570
 2963TIP3   OH230303   3.374   4.281   1.896 -0.4361 -0.1898  0.0261
 2963TIP3    H130304   3.310   4.236   1.841  0.1486  0.3749 -1.1583
 2963TIP3    H230305   3.424   4.211   1.938 -1.2606 -0.6275  0.2819
 2964TIP3   OH230306   5.086   3.471   5.676  0.2780  0.5093 -0.0772
 2964TIP3    H130307   5.054   3.547   5.627 -1.1276 -0.4087 -0.6311
 2964TIP3    H230308   5.062   3.489   5.766  0.1042  0.7953 -0.1797
 2965TIP3   OH230309   0.062   2.093  15.960  0.0414  0.0982 -0.4235
 2965TIP3    H130310   0.040   2.114  15.869 -1.3614 -0.5240 -0.2495
 2965TIP3    H230311   0.155   2.114  15.967  0.2208  0.0017 -2.0463
 2966TIP3   OH230312   1.284   3.147   4.250 -0.4686 -0.1931  0.0905
 2966TIP3    H130313   1.198   3.188   4.252 -0.3325  0.0668  1.1232
 2966TIP3    H230314   1.295   3.110   4.338  0.6619  0.2094  0.1365
 2967TIP3   OH230315   2.460   2.294   1.948  0.3918  0.1617 -0.2381
 2967TIP3    H130316   2.379   2.295   1.999  0.3810  0.7294 -0.2577
 2967TIP3    H230317   2.517   2.233   1.995  0.1493  0.1827  0.0868
 2968TIP3   OH230318   5.696   4.936   2.715 -0.3195  0.3838  0.2626
 2968TIP3    H130319   5.635   4.950   2.642  2.8271  0.7282 -2.5495
 2968TIP3    H230320   5.735   4.850   2.697  0.2276  0.2758  1.8187
 2969TIP3   OH230321   4.731   1.110   1.656 -0.1956 -0.0629 -0.0339
 2969TIP3    H130322   4.821   1.106   1.689 -0.2316 -0.4623  0.0281
 2969TIP3    H230323   4.725   1.194   1.612  0.5256 -0.4740 -0.9396
 2970TIP3   OH230324   4.576   1.571   6.454  0.5650 -0.6181  0.3630
 2970TIP3    H130325   4.518   1.627   6.403  0.5754 -1.0720 -0.1486
 2970TIP3    H230326   4.641   1.539   6.392  0.4359 -1.3665  0.5998
 2971TIP3   OH230327   5.674   2.245  16.302  0.5245  0.5615  0.4887
 2971TIP3    H130328   5.593   2.286  16.271 -0.4346 -2.2516 -1.0319
 2971TIP3    H230329   5.648   2.197  16.381  0.0955 -1.9871 -1.0838
 2972TIP3   OH230330   3.955   5.824   3.807  0.6991 -0.2798 -0.0200
 2972TIP3    H130331   3.878   5.877   3.826  0.6350 -0.3510 -0.0812
 2972TIP3    H230332   3.977   5.783   3.891 -0.3669 -1.6329 -0.3781
 2973TIP3   OH230333   4.371   3.629  11.697 -0.1011  0.1051  0.3482
 2973TIP3    H130334   4.407   3.570  11.763 -0.0529 -1.0016 -0.6280
 2973TIP3    H230335   4.281   3.645  11.726 -0.1264 -0.4756  0.6179
 2974TIP3   OH230336   5.226   4.607   6.406 -0.2108  0.3562  0.2952
 2974TIP3    H130337   5.167   4.624   6.333  1.5209  0.5381 -1.1486
 2974TIP3    H230338   5.267   4.692   6.425 -1.3898  0.5596  2.2485
 2975TIP3   OH230339   1.010   0.839   0.901  0.2069  0.3839 -0.3957
 2975TIP3    H130340   0.990   0.907   0.836  1.0108  0.0490 -1.0025
 2975TIP3    H230341   1.050   0.769   0.851  1.0084  0.1927  0.4913
 2976TIP3   OH230342   5.670   3.836   3.332  0.4198 -0.1888 -0.1239
 2976TIP3    H130343   5.721   3.893   3.275  1.5180 -1.5332 -0.5213
 2976TIP3    H230344   5.579   3.854   3.308  0.7681  0.9413 -0.6648
 2977TIP3   OH230345   4.500   0.976  13.830  0.0088  0.0664  0.8101
 2977TIP3    H130346   4.423   1.011  13.876  0.1621  1.5104  0.0145
 2977TIP3    H230347   4.463   0.919  13.762 -0.3552  0.7397  0.4413
 2978TIP3   OH230348   3.708   1.169   0.304  0.8256  0.0231  0.5537
 2978TIP3    H130349   3.672   1.244   0.257  1.1875  0.7247  1.3480
 2978TIP3    H230350   3.687   1.093   0.250 -1.3279  0.4573  0.6908
 2979TIP3   OH230351   2.304   6.334  15.397  0.0699  0.0130 -0.0944
 2979TIP3    H130352   2.360   6.303  15.469  1.6709  2.5274 -0.1355
 2979TIP3    H230353   2.235   6.384  15.441 -0.7464 -0.9742 -0.2003
 2980TIP3   OH230354   2.813   2.757   1.704 -0.4503 -0.4600  0.1187
 2980TIP3    H130355   2.796   2.685   1.764  1.6678  0.1763  1.6154
 2980TIP3    H230356   2.738   2.815   1.715 -1.5355 -1.7762 -0.1172
 2981TIP3   OH230357   5.781   5.552  16.573 -0.9250 -0.7620 -0.2563
 2981TIP3    H130358   5.870   5.576  16.600 -1.2581 -0.3742  0.5068
 2981TIP3    H230359   5.794   5.504  16.491  0.0525 -1.4482  0.2825
 2982TIP3   OH230360   2.677   3.889   1.392 -0.4846  0.3698  0.0172
 2982TIP3    H130361   2.731   3.962   1.423  0.4072  0.2471 -1.1935
 2982TIP3    H230362   2.609   3.930   1.339 -1.2521  0.4731  1.0518
 2983TIP3   OH230363   2.041   5.372   2.584 -0.2897  0.0340  0.2991
 2983TIP3    H130364   2.000   5.458   2.586  0.8240  0.5616  0.9843
 2983TIP3    H230365   1.990   5.323   2.519 -1.5340  0.8936  0.5940
 2984TIP3   OH230366   5.269   2.188  15.648 -0.2867 -0.1558 -0.4485
 2984TIP3    H130367   5.253   2.187  15.554 -1.7685  0.5732 -0.2388
 2984TIP3    H230368   5.229   2.270  15.678  1.5138  0.4009  0.6090
 2985TIP3   OH230369   0.885   5.050   1.178 -0.0600 -1.0974 -0.0176
 2985TIP3    H130370   0.900   4.975   1.236 -0.1047  0.0323  1.5313
 2985TIP3    H230371   0.843   5.115   1.234  0.5815  0.3382 -1.1341
 2986TIP3   OH230372   1.021   0.931  10.673  0.1868 -0.4737  0.1661
 2986TIP3    H130373   1.012   0.946  10.579  0.8038 -0.6052  0.0828
 2986TIP3    H230374   0.981   1.008  10.713 -1.7025 -1.2166 -0.1520
 2987TIP3   OH230375   1.547   1.120   2.564  0.7660 -0.1299  0.1947
 2987TIP3    H130376   1.497   1.040   2.580  0.1988  0.3477  0.9173
 2987TIP3    H230377   1.515   1.182   2.630  0.8669  0.8403 -0.6367
 2988TIP3   OH230378   0.550   5.010  12.763 -0.3623 -0.2315 -0.8136
 2988TIP3    H130379   0.558   5.004  12.858 -1.5546 -1.8916 -0.7786
 2988TIP3    H230380   0.634   5.048  12.735 -0.3207  1.1459  0.9307
 2989TIP3   OH230381   3.253   4.726  15.811  0.3265 -0.4075  0.3821
 2989TIP3    H130382   3.290   4.813  15.822  1.5706 -0.6508 -1.3844
 2989TIP3    H230383   3.209   4.729  15.726 -0.7367 -1.1459  0.8841
 2990TIP3   OH230384   5.732   4.061  15.573  0.2708  0.0405 -0.3789
 2990TIP3    H130385   5.786   4.083  15.497  0.0213 -0.5525 -0.7327
 2990TIP3    H230386   5.786   4.002  15.625  0.6478  0.8628  0.1870
 2991TIP3   OH230387   1.810   4.436   5.102  0.2991 -0.3213 -0.2650
 2991TIP3    H130388   1.844   4.485   5.177 -0.2699  0.9311 -0.7884
 2991TIP3    H230389   1.715   4.448   5.107  0.2177 -0.7012 -0.8601
 2992TIP3   OH230390   1.134   2.723   2.610 -0.2810 -0.1468  0.3688
 2992TIP3    H130391   1.120   2.721   2.704  1.4198  1.2279  0.7021
 2992TIP3    H230392   1.164   2.812   2.592  0.7278 -0.7680 -1.2500
 2993TIP3   OH230393   0.611   2.428   3.931 -0.1589  0.2435  0.0407
 2993TIP3    H130394   0.633   2.383   3.850  0.1214 -1.6782  1.1091
 2993TIP3    H230395   0.694   2.465   3.961 -0.6513  2.9063 -1.5811
 2994TIP3   OH230396   2.541   5.783   5.063  0.0227  0.3082 -0.2553
 2994TIP3    H130397   2.531   5.851   4.997 -1.5413 -1.6240 -2.1766
 2994TIP3    H230398   2.552   5.702   5.013  1.6734 -0.9368  1.9136
 2995TIP3   OH230399   3.893   2.127   1.115  0.6832 -0.2726 -0.2474
 2995TIP3    H130400   3.817   2.091   1.161  2.3873 -0.0802  3.0279
 2995TIP3    H230401   3.912   2.063   1.046 -0.4384 -2.0896  1.0459
 2996TIP3   OH230402   3.327   2.200  11.297 -0.1388  0.3117  0.7881
 2996TIP3    H130403   3.349   2.233  11.210 -0.2321 -0.1456  0.5895
 2996TIP3    H230404   3.231   2.195  11.297 -0.0893 -1.7779  0.1163
 2997TIP3   OH230405   2.458   3.609  14.159  0.1452 -0.3951 -0.4671
 2997TIP3    H130406   2.512   3.534  14.135 -1.9203 -2.1918  0.1536
 2997TIP3    H230407   2.371   3.572  14.174 -0.7435  1.9902  0.8085
 2998TIP3   OH230408   2.219   3.585   1.576  0.3451 -0.0645  0.1167
 2998TIP3    H130409   2.286   3.613   1.513  0.6023 -0.8650  0.0168
 2998TIP3    H230410   2.259   3.599   1.661  0.1810  0.5741  0.0902
 2999TIP3   OH230411   6.735   1.110   5.425  0.3150  0.3563  0.0530
 2999TIP3    H130412   6.823   1.122   5.461  0.8154 -0.4668 -0.8333
 2999TIP3    H230413   6.744   1.128   5.331 -0.7619  1.5809  0.1591
 3000TIP3   OH230414   5.698   6.751  13.177  0.0168  0.6024  0.5775
 3000TIP3    H130415   5.684   6.765  13.271 -1.6477  1.6387  0.2065
 3000TIP3    H230416   5.620   6.703  13.148  1.2869 -1.2424  0.0033
 3001TIP3   OH230417   2.464   1.683   6.148  0.3814 -0.1831  0.3427
 3001TIP3    H130418   2.465   1.774   6.179  1.4903  0.3924 -1.2276
 3001TIP3    H230419   2.556   1.664   6.128  0.2153 -1.8182  1.0492
 3002TIP3   OH230420   1.442   2.952  15.104 -0.1510 -0.1159 -0.0059
 3002TIP3    H130421   1.435   2.897  15.182 -0.9074  1.0886  0.7953
 3002TIP3    H230422   1.415   2.895  15.032 -0.7170 -0.8508  0.7716
 3003TIP3   OH230423   0.450   3.861   3.986  0.1141 -0.1647 -0.3991
 3003TIP3    H130424   0.379   3.837   3.926 -0.3208 -0.7048  0.3144
 3003TIP3    H230425   0.423   3.946   4.022  0.2362  0.0229 -0.7462
 3004TIP3   OH230426   5.023   5.203  13.062 -0.1651  0.6069  0.0634
 3004TIP3    H130427   5.074   5.283  13.078 -0.8002  0.9015  0.6613
 3004TIP3    H230428   5.008   5.167  13.150  0.5738 -0.4605 -0.2352
 3005TIP3   OH230429   3.810   1.089   2.304 -0.2183 -0.0614  0.1045
 3005TIP3    H130430   3.753   1.146   2.252 -0.9913 -1.8080 -1.0704
 3005TIP3    H230431   3.899   1.118   2.282 -0.5879  0.9276 -0.1536
 3006TIP3   OH230432   3.441   4.940  16.687 -0.0432 -0.5487 -0.2246
 3006TIP3    H130433   3.427   4.876  16.617 -0.4595 -0.7914  0.0722
 3006TIP3    H230434   3.377   5.009  16.670  1.9858  1.0494 -1.9495
 3007TIP3   OH230435   3.602   0.525   2.218 -0.0352  0.3126  0.1847
 3007TIP3    H130436   3.673   0.485   2.269 -0.7747 -0.7767  0.4053
 3007TIP3    H230437   3.646   0.578   2.152  1.0378 -1.4971 -0.6352
 3008TIP3   OH230438   1.794   3.933   4.061  0.6328  0.2800 -0.0514
 3008TIP3    H130439   1.809   3.841   4.082 -1.3610 -0.4908 -1.6824
 3008TIP3    H230440   1.811   3.979   4.143  0.4812 -1.6577  1.1450
 3009TIP3   OH230441   3.595   0.098   2.456 -0.9222 -0.3178 -0.2443
 3009TIP3    H130442   3.681   0.127   2.485 -1.3231  0.1564  0.5001
 3009TIP3    H230443   3.536   0.120   2.528 -1.5559 -1.3028 -0.4370
 3010TIP3   OH230444   5.473   2.995  14.012 -0.1684 -0.2534 -0.6385
 3010TIP3    H130445   5.491   2.953  14.096 -0.8814 -0.2549 -0.4818
 3010TIP3    H230446   5.414   2.935  13.967 -0.2512  0.0239 -0.9015
 3011TIP3   OH230447   0.307   1.648  16.528  0.6209 -0.0702 -0.4128
 3011TIP3    H130448   0.360   1.569  16.536  2.1169  0.9736  0.8174
 3011TIP3    H230449   0.372   1.719  16.530 -0.8374  1.2790  1.1688
 3012TIP3   OH230450   1.851   3.611  16.553 -0.5040 -0.3299  0.0929
 3012TIP3    H130451   1.792   3.562  16.610 -0.0152  1.4756  2.3152
 3012TIP3    H230452   1.934   3.615  16.601  0.0133  1.0584 -0.8435
 3013TIP3   OH230453   2.003   4.768  10.891  0.0405 -0.3506  0.1673
 3013TIP3    H130454   1.951   4.694  10.859 -0.7798  0.0131  0.6247
 3013TIP3    H230455   1.940   4.824  10.935  0.7933  0.2286  0.5315
 3014TIP3   OH230456   5.184   1.732   0.488  0.5186  0.6939 -0.0816
 3014TIP3    H130457   5.174   1.686   0.572  1.4939 -1.3687 -1.0175
 3014TIP3    H230458   5.274   1.714   0.462  0.5938  2.2874 -1.0651
 3015TIP3   OH230459   2.701   4.817   3.645 -0.6808 -0.3252  0.0355
 3015TIP3    H130460   2.747   4.891   3.606 -0.3779 -0.7603 -0.4449
 3015TIP3    H230461   2.769   4.752   3.662 -0.7090  0.0635  1.8419
 3016TIP3   OH230462   1.322   3.651  12.046  0.3502  0.1935 -0.2293
 3016TIP3    H130463   1.324   3.626  12.138 -0.5964  1.1658  0.0735
 3016TIP3    H230464   1.237   3.621  12.015 -0.4029  2.0766 -0.1056
 3017TIP3   OH230465   0.864   1.020  12.702  0.3075  0.1727  0.5567
 3017TIP3    H130466   0.809   0.947  12.729  1.3892 -1.4034 -1.2995
 3017TIP3    H230467   0.950   0.999  12.738  0.2189  1.6349  1.7585
 3018TIP3   OH230468   3.907   1.888  13.205 -0.2280  0.4038  0.2455
 3018TIP3    H130469   3.827   1.840  13.183  0.0457 -0.7052  1.5260
 3018TIP3    H230470   3.913   1.881  13.300  2.4246 -1.3092  0.0488
 3019TIP3   OH230471   6.245   4.902   5.430 -0.3839  0.4905 -0.5357
 3019TIP3    H130472   6.221   4.980   5.381 -0.4544  0.2304 -0.9248
 3019TIP3    H230473   6.340   4.898   5.423 -0.4734 -0.1585 -1.6239
 3020TIP3   OH230474   3.239   6.758   1.549  0.4663 -0.5994  0.1312
 3020TIP3    H130475   3.262   6.670   1.520  2.9143 -0.6597  1.8913
 3020TIP3    H230476   3.235   6.810   1.468  2.1920 -1.7003 -0.7185
 3021TIP3   OH230477   2.185   5.111   1.020 -0.2110 -0.3084 -0.1982
 3021TIP3    H130478   2.144   5.069   0.944 -2.9723  1.5367  0.1211
 3021TIP3    H230479   2.133   5.083   1.095  0.6918  0.1690  0.6346
 3022TIP3   OH230480   5.164   6.586   3.281 -0.2208  0.5592 -0.2976
 3022TIP3    H130481   5.207   6.602   3.365  1.8721 -0.6712 -1.0493
 3022TIP3    H230482   5.213   6.512   3.243 -2.1630 -0.0002 -1.8675
 3023TIP3   OH230483   4.903   2.930   3.815  0.0556  0.3347  0.6407
 3023TIP3    H130484   4.917   2.839   3.840  1.2812  0.7461  1.5852
 3023TIP3    H230485   4.871   2.972   3.895 -1.1815  0.5925  0.0174
 3024TIP3   OH230486   5.751   6.221  10.821  0.2084  0.3432 -0.2247
 3024TIP3    H130487   5.730   6.145  10.767  1.1886  0.3227 -0.6012
 3024TIP3    H230488   5.707   6.204  10.905  0.7135 -0.8236 -0.1782
 3025TIP3   OH230489   3.037   2.894   1.842  0.6149 -0.4038  0.2888
 3025TIP3    H130490   2.989   2.922   1.920  0.4217 -0.6608  0.2629
 3025TIP3    H230491   2.973   2.845   1.790  0.0629  1.6954 -1.1456
 3026TIP3   OH230492   2.532   3.280  14.500 -0.3839  0.3087 -0.7648
 3026TIP3    H130493   2.567   3.297  14.587  1.3987  1.2539 -1.6056
 3026TIP3    H230494   2.439   3.301  14.506 -0.4601 -0.4427  1.0949
 3027TIP3   OH230495   1.245   1.220  11.029  0.1527 -0.0835  0.6141
 3027TIP3    H130496   1.244   1.243  10.936  0.5803  0.7493  0.8096
 3027TIP3    H230497   1.197   1.137  11.033  0.6785 -0.4627 -0.4345
 3028TIP3   OH230498   3.428   3.930   2.820 -0.3027  0.8363  0.0998
 3028TIP3    H130499   3.491   3.989   2.862  0.9693  0.0409 -0.6213
 3028TIP3    H230500   3.474   3.899   2.742 -2.3381  1.7627 -1.5669
 3029TIP3   OH230501   6.664   2.616  15.615  0.2290 -0.6250 -0.1355
 3029TIP3    H130502   6.576   2.589  15.591 -0.9511  2.2422  0.6193
 3029TIP3    H230503   6.719   2.584  15.544 -1.2419 -3.0884 -0.2862
 3030TIP3   OH230504   0.955   2.685   3.378 -0.4834  0.1143  0.1774
 3030TIP3    H130505   0.864   2.705   3.357 -0.7873 -0.5658  0.8136
 3030TIP3    H230506   0.965   2.712   3.470  0.5484  2.1147 -0.4549
 3031TIP3   OH230507   4.005   0.577   6.077 -0.7050 -0.3326 -0.3634
 3031TIP3    H130508   3.953   0.499   6.096 -0.7911 -0.3216 -0.5584
 3031TIP3    H230509   3.969   0.645   6.134  0.6531 -0.9316  1.3047
 3032TIP3   OH230510   5.818   0.529   1.913 -0.0643  0.4064 -0.2090
 3032TIP3    H130511   5.851   0.588   1.845 -0.8726 -0.3720 -1.3118
 3032TIP3    H230512   5.733   0.565   1.937 -0.7639 -0.5270 -1.2093
 3033TIP3   OH230513   0.569   1.048  15.422 -0.1634 -0.6387 -0.5358
 3033TIP3    H130514   0.645   1.031  15.477  0.9742 -0.4032 -1.9726
 3033TIP3    H230515   0.601   1.107  15.353 -2.0628  0.8357 -0.2412
 3034TIP3   OH230516   6.404   0.535  10.921  0.7348 -0.7457 -0.4800
 3034TIP3    H130517   6.444   0.553  11.006 -0.5513  0.5174 -0.0948
 3034TIP3    H230518   6.421   0.614  10.869 -0.6435 -0.4350 -0.5083
 3035TIP3   OH230519   4.466   6.678  15.898 -0.2328 -0.3340  0.7081
 3035TIP3    H130520   4.393   6.665  15.958  0.0050  2.1137  1.6534
 3035TIP3    H230521   4.539   6.632  15.939 -1.1029 -2.6016 -0.1283
 3036TIP3   OH230522   1.117   5.080  13.742 -0.3854 -0.0423  0.2297
 3036TIP3    H130523   1.031   5.060  13.704 -0.8002 -0.0123  1.1301
 3036TIP3    H230524   1.109   5.055  13.834  0.9094 -1.0273  0.1023
 3037TIP3   OH230525   1.380   2.296   0.233 -0.4239 -0.2677 -0.6924
 3037TIP3    H130526   1.337   2.243   0.301 -0.4418 -0.6619 -1.0097
 3037TIP3    H230527   1.459   2.247   0.211  1.3930  1.4780  1.4200
 3038TIP3   OH230528   3.224   2.606  15.347  0.3213 -0.0320 -0.0478
 3038TIP3    H130529   3.258   2.517  15.355 -0.2856 -0.1880  0.8717
 3038TIP3    H230530   3.243   2.631  15.256  0.8964 -0.9242 -0.1811
 3039TIP3   OH230531   5.891   0.218  13.920  0.3463  0.2536  0.6610
 3039TIP3    H130532   5.929   0.260  13.843  0.6671 -0.5315  0.3805
 3039TIP3    H230533   5.966   0.182  13.967  0.0617 -0.1475  0.8108
 3040TIP3   OH230534   0.453   2.182  14.604  0.0992  0.5535  0.1522
 3040TIP3    H130535   0.475   2.269  14.638  0.3612  1.0055 -1.1451
 3040TIP3    H230536   0.381   2.197  14.543 -1.2074 -0.4164  1.3696
 3041TIP3   OH230537   0.830   0.294  13.229  0.6011 -0.2723  0.3606
 3041TIP3    H130538   0.793   0.224  13.282 -6.2793  1.2175 -1.5022
 3041TIP3    H230539   0.828   0.261  13.139 -0.8357  1.5060 -0.3215
 3042TIP3   OH230540   4.365   6.804  13.731  0.1657  0.4821 -0.0863
 3042TIP3    H130541   4.285   6.833  13.686  0.0377  0.0158 -0.1668
 3042TIP3    H230542   4.423   6.776  13.661 -0.1093 -0.4355  0.0455
 3043TIP3   OH230543   1.958   4.343   0.648 -0.1236  0.1652  0.0501
 3043TIP3    H130544   1.912   4.307   0.724 -1.6601  1.4068 -0.2229
 3043TIP3    H230545   2.037   4.383   0.685 -1.0029  1.0338  1.0939
 3044TIP3   OH230546   5.928   4.741  15.121 -0.1708 -0.4726  0.1019
 3044TIP3    H130547   5.940   4.806  15.191 -1.1129 -1.4086  1.1616
 3044TIP3    H230548   6.001   4.680  15.132  0.0692 -0.2447 -0.1843
 3045TIP3   OH230549   0.646   3.429   4.183 -0.0159 -0.5819  0.1647
 3045TIP3    H130550   0.709   3.471   4.241  1.7511  1.4052 -2.9301
 3045TIP3    H230551   0.565   3.478   4.197  0.7640  0.8103 -0.0070
 3046TIP3   OH230552   4.221   4.018   0.444 -0.4844  0.2369  0.1345
 3046TIP3    H130553   4.285   4.057   0.384  1.4674  0.3391  2.1423
 3046TIP3    H230554   4.174   4.093   0.481 -1.1103  0.2237 -0.6062
 3047TIP3   OH230555   2.735   4.145  13.140 -0.4356  0.0629  0.1113
 3047TIP3    H130556   2.756   4.087  13.213 -0.5559 -0.0502  0.0558
 3047TIP3    H230557   2.819   4.178  13.111 -0.3292 -0.4362 -0.1503
 3048TIP3   OH230558   0.380   3.689  13.142 -0.1225 -0.2477  0.1987
 3048TIP3    H130559   0.412   3.599  13.138  2.3318  0.4733  1.4854
 3048TIP3    H230560   0.455   3.742  13.116 -1.6572  1.4559 -1.0206
 3049TIP3   OH230561   0.690   6.009   0.209 -0.0596 -0.2307  0.7216
 3049TIP3    H130562   0.695   5.957   0.289 -0.9618 -0.0569  0.9074
 3049TIP3    H230563   0.700   6.100   0.239  0.4664 -0.2185  0.5238
 3050TIP3   OH230564   5.965   5.414   0.548 -0.2111  0.2079 -0.0870
 3050TIP3    H130565   5.969   5.385   0.639  2.5161  0.2386 -0.1286
 3050TIP3    H230566   6.045   5.380   0.508 -0.3561  1.8735 -1.9703
 3051TIP3   OH230567   1.502   0.800   0.178  0.0023 -0.0833  0.5085
 3051TIP3    H130568   1.523   0.877   0.126  0.0976 -0.7178 -0.4041
 3051TIP3    H230569   1.418   0.822   0.220  0.1938  0.6423  0.5309
 3052TIP3   OH230570   5.104   5.187   5.758 -0.5648 -0.1060  0.2578
 3052TIP3    H130571   5.052   5.191   5.678  1.1555 -2.1053 -1.0924
 3052TIP3    H230572   5.043   5.160   5.826 -1.5658 -1.0233 -0.9681
 3053TIP3   OH230573   2.004   6.505  11.552  0.2068  0.7769  0.1424
 3053TIP3    H130574   2.085   6.516  11.601  0.3426  3.1426 -0.4462
 3053TIP3    H230575   1.987   6.592  11.515 -3.1309  0.6375  1.0432
 3054TIP3   OH230576   3.618   5.891   0.326  0.1101 -0.1121  0.2000
 3054TIP3    H130577   3.567   5.856   0.253  1.1430  1.4508 -1.3759
 3054TIP3    H230578   3.563   5.960   0.363 -0.0478 -0.2841  0.2816
 3055TIP3   OH230579   2.027   4.000  14.563  0.0103  0.0710  0.5981
 3055TIP3    H130580   2.058   3.946  14.635 -1.4343 -1.6708 -0.0190
 3055TIP3    H230581   1.940   4.029  14.590 -0.7817 -1.0537 -0.6285
 3056TIP3   OH230582   6.392   2.314  16.812 -0.1242 -0.0271 -0.0505
 3056TIP3    H130583   6.455   2.269  16.756  1.2315  2.3441 -0.5227
 3056TIP3    H230584   6.323   2.343  16.752 -1.5672 -2.1992  0.3993
 3057TIP3   OH230585   2.913   5.932  14.810 -0.5203 -0.1111  0.3514
 3057TIP3    H130586   2.888   5.909  14.900  0.5169  1.4937  1.0890
 3057TIP3    H230587   2.869   6.015  14.793  0.9116  0.6433  0.1580
 3058TIP3   OH230588   1.495   1.108  15.944 -0.0207 -0.4322 -0.0859
 3058TIP3    H130589   1.459   1.159  16.017 -0.8524  0.0506 -0.8202
 3058TIP3    H230590   1.576   1.154  15.920 -0.4197  0.1588 -0.3076
 3059TIP3   OH230591   6.245   0.794  16.874  0.3510 -0.6513  0.9336
 3059TIP3    H130592   6.319   0.851  16.854  1.3886 -1.5505  2.0555
 3059TIP3    H230593   6.205   0.775  16.789  1.4690 -0.2496  0.3021
 3060TIP3   OH230594   2.718   4.425  13.338  0.0280 -0.6258  0.3675
 3060TIP3    H130595   2.687   4.391  13.253 -2.3810  3.5854 -0.7332
 3060TIP3    H230596   2.649   4.399  13.400 -0.4390 -0.0480  0.0977
 3061TIP3   OH230597   1.815   3.712  10.957 -0.7828 -0.2405 -0.3201
 3061TIP3    H130598   1.727   3.744  10.937 -0.2879 -0.1979 -2.7180
 3061TIP3    H230599   1.827   3.638  10.897  0.3576 -1.0750  0.8861
 3062TIP3   OH230600   5.122   1.264  11.247 -0.2807  0.0961 -0.2905
 3062TIP3    H130601   5.127   1.324  11.322 -1.3328 -0.3509  0.1618
 3062TIP3    H230602   5.105   1.322  11.172 -1.2953  0.3839  0.1415
 3063TIP3   OH230603   3.724   5.135   4.334 -0.5339 -0.2110  0.1397
 3063TIP3    H130604   3.663   5.062   4.329 -0.7574 -0.0573  0.6687
 3063TIP3    H230605   3.681   5.200   4.388  0.3882 -0.3936  1.1315
 3064TIP3   OH230606   2.627   3.410  16.139  0.2957 -0.0380 -0.1584
 3064TIP3    H130607   2.707   3.426  16.089  0.4987  1.1078  0.4819
 3064TIP3    H230608   2.585   3.337  16.095  0.6995  0.6173 -1.6993
 3065TIP3   OH230609   6.384   6.184  13.858  0.2179 -0.0591  0.0951
 3065TIP3    H130610   6.317   6.230  13.808 -0.9608 -1.2858  0.4914
 3065TIP3    H230611   6.422   6.122  13.796 -0.2729 -0.6025  0.3228
 3066TIP3   OH230612   0.625   0.457  12.395  0.0046 -0.1359  0.2193
 3066TIP3    H130613   0.555   0.523  12.393  1.2628  1.2330 -1.7106
 3066TIP3    H230614   0.641   0.436  12.303  0.1447 -2.6521  0.7582
 3067TIP3   OH230615   4.886   5.401  14.286  0.1460 -0.7104  0.2047
 3067TIP3    H130616   4.869   5.354  14.205  3.6985  0.1039 -1.1739
 3067TIP3    H230617   4.850   5.488  14.271 -1.7125 -1.3379  0.7074
 3068TIP3   OH230618   0.991   2.224   2.227  0.6051 -0.5297  0.3579
 3068TIP3    H130619   0.928   2.164   2.267 -1.0073  0.8112 -0.0425
 3068TIP3    H230620   1.056   2.168   2.187 -1.5258 -2.1153 -1.1318
 3069TIP3   OH230621   3.444   0.771   0.103  0.1137 -0.2892  0.4612
 3069TIP3    H130622   3.465   0.681   0.077  0.4572 -0.3172  0.8144
 3069TIP3    H230623   3.383   0.802   0.036  2.7732  0.4845 -1.7962
 3070TIP3   OH230624   1.372   4.687   6.178  0.4267  0.3699  0.3605
 3070TIP3    H130625   1.443   4.623   6.189 -0.6709 -0.8549  0.5010
 3070TIP3    H230626   1.304   4.659   6.238 -0.9620  0.4024 -1.1257
 3071TIP3   OH230627   4.873   4.416  16.543 -0.0370 -0.0226 -0.3371
 3071TIP3    H130628   4.884   4.426  16.449  0.4841 -0.0450 -0.2765
 3071TIP3    H230629   4.957   4.440  16.581 -0.4509  0.6878  0.1738
 3072TIP3   OH230630   1.765   0.822  13.613 -0.1437 -0.1691  0.5461
 3072TIP3    H130631   1.771   0.887  13.683 -0.6818 -1.2449  1.6135
 3072TIP3    H230632   1.766   0.738  13.658 -0.5737 -0.8818 -0.7413
 3073TIP3   OH230633   2.141   3.793   5.403  0.1960 -0.5969 -0.5557
 3073TIP3    H130634   2.046   3.783   5.391 -0.1451  0.9894  0.4489
 3073TIP3    H230635   2.160   3.880   5.366  1.5716 -1.5257 -2.1700
 3074TIP3   OH230636   4.617   1.884   6.161  0.1645  0.5121  0.1870
 3074TIP3    H130637   4.624   1.969   6.204 -1.2362  0.4072  0.6726
 3074TIP3    H230638   4.695   1.836   6.189  0.3923  1.2401  0.8235
 3075TIP3   OH230639   3.977   1.580  14.183 -0.5152  0.1851 -0.3156
 3075TIP3    H130640   3.966   1.498  14.230 -0.9168  0.8611  0.7896
 3075TIP3    H230641   4.069   1.578  14.154 -0.6471 -0.8513 -0.7187
 3076TIP3   OH230642   4.913   5.962   1.193 -0.2022 -0.1092  0.3248
 3076TIP3    H130643   4.861   5.955   1.113  1.2037  2.2205 -0.9077
 3076TIP3    H230644   4.983   5.897   1.182 -0.5894 -0.5025  0.1531
 3077TIP3   OH230645   2.552   5.545   1.656 -0.5796 -0.2711 -0.8693
 3077TIP3    H130646   2.608   5.488   1.709 -3.0046 -0.0661  2.1242
 3077TIP3    H230647   2.608   5.620   1.634  0.3384  0.0692  2.2128
 3078TIP3   OH230648   1.158   4.261   3.140 -0.2585  0.0315  0.4174
 3078TIP3    H130649   1.081   4.212   3.115 -0.5663  0.9194 -0.4326
 3078TIP3    H230650   1.132   4.353   3.132  0.9780  0.3516 -0.2554
 3079TIP3   OH230651   6.541   2.515  13.345  0.0702 -0.0880 -0.5110
 3079TIP3    H130652   6.522   2.466  13.425  1.1124 -1.0338 -0.8069
 3079TIP3    H230653   6.569   2.601  13.376  2.2440 -1.0149  0.2948
 3080TIP3   OH230654   4.970   6.278   3.863  0.2300  0.4902 -0.2365
 3080TIP3    H130655   5.008   6.231   3.938 -0.8496  1.9710  1.3136
 3080TIP3    H230656   4.899   6.221   3.834  0.1693  0.2413  0.3681
 3081TIP3   OH230657   6.269   5.879  11.563 -0.1753  0.4145  0.0938
 3081TIP3    H130658   6.232   5.905  11.479 -0.7603 -2.1839 -0.5535
 3081TIP3    H230659   6.361   5.905  11.558 -0.5220  1.5181 -0.7799
 3082TIP3   OH230660   0.935   6.066  11.872 -0.2949 -0.0584  0.3141
 3082TIP3    H130661   0.859   6.055  11.815 -0.1994  1.6745 -0.2269
 3082TIP3    H230662   0.901   6.061  11.961 -0.7063 -1.2626  0.0955
 3083TIP3   OH230663   3.973   2.913   1.817 -0.0271  0.7633  0.1133
 3083TIP3    H130664   4.054   2.952   1.849 -0.5560  0.0242  2.6526
 3083TIP3    H230665   3.915   2.987   1.800  1.0307  1.2822 -1.4201
 3084TIP3   OH230666   2.720   4.319   0.615  0.6273  0.0413 -0.0759
 3084TIP3    H130667   2.625   4.314   0.621  0.6509 -1.1044 -0.4314
 3084TIP3    H230668   2.739   4.294   0.525  1.3617 -1.6318  0.5021
 3085TIP3   OH230669   0.601   6.803   5.941 -0.3929 -0.8022  0.0266
 3085TIP3    H130670   0.626   6.732   6.001  2.5181  1.3324  1.5607
 3085TIP3    H230671   0.684   6.833   5.904 -1.7142  0.7988 -1.8322
 3086TIP3   OH230672   4.046   3.782   1.448  0.1400  0.1002  0.1196
 3086TIP3    H130673   4.078   3.799   1.359  0.2107  2.0175  0.4539
 3086TIP3    H230674   4.075   3.693   1.468 -1.0730 -0.9289 -2.2648
 3087TIP3   OH230675   5.912   4.868  12.879 -0.0398  0.3726  0.1908
 3087TIP3    H130676   5.878   4.870  12.790 -0.9035 -1.8148  0.3916
 3087TIP3    H230677   6.007   4.871  12.869  0.1576 -3.6601 -1.2275
 3088TIP3   OH230678   4.411   1.085  16.288 -0.2501 -0.5919  0.6215
 3088TIP3    H130679   4.495   1.061  16.326 -0.4625 -2.9826 -0.2463
 3088TIP3    H230680   4.429   1.097  16.194 -0.7801 -0.6658  0.5045
 3089TIP3   OH230681   4.276   6.437  12.574 -0.2054 -0.8531 -0.4207
 3089TIP3    H130682   4.317   6.385  12.505  1.0722 -1.2804  0.6245
 3089TIP3    H230683   4.239   6.373  12.634  0.2714 -0.5294  0.2215
 3090TIP3   OH230684   1.802   4.463  14.580 -0.2255  0.2344  0.1505
 3090TIP3    H130685   1.735   4.492  14.518 -0.3405 -0.9459 -0.3033
 3090TIP3    H230686   1.854   4.399  14.531  0.8251  0.6322  0.7122
 3091TIP3   OH230687   1.105   3.094  15.805 -0.2269  0.2970 -0.1627
 3091TIP3    H130688   1.073   3.011  15.842  0.1349  0.7471  1.1994
 3091TIP3    H230689   1.200   3.089  15.814 -0.2824  1.5466  1.5042
 3092TIP3   OH230690   6.011   5.349  15.403 -0.8269  0.2381 -0.5628
 3092TIP3    H130691   6.043   5.432  15.438  0.7908 -0.4175 -0.4009
 3092TIP3    H230692   5.973   5.372  15.318  0.4446  1.0371 -0.9436
 3093TIP3   OH230693   2.669   4.691  16.059 -0.0894  0.5099 -0.2960
 3093TIP3    H130694   2.649   4.607  16.018  1.6133 -0.1459  0.1135
 3093TIP3    H230695   2.650   4.756  15.991 -0.6229 -0.2664 -0.9131
 3094TIP3   OH230696   5.054   0.204   3.582 -0.2270 -0.9769  0.4361
 3094TIP3    H130697   5.014   0.168   3.503  0.4322 -1.0602  0.1241
 3094TIP3    H230698   4.982   0.217   3.643 -0.8514 -0.2658 -0.4299
 3095TIP3   OH230699   3.682   1.660   5.026  0.3116 -0.3844  0.3144
 3095TIP3    H130700   3.739   1.730   5.057 -0.7392 -0.2617  2.0410
 3095TIP3    H230701   3.706   1.650   4.933  1.3481  1.3716  0.3451
 3096TIP3   OH230702   2.562   0.133  16.418  0.3492 -0.4228  0.4128
 3096TIP3    H130703   2.618   0.070  16.373 -0.0744 -0.2772 -0.3324
 3096TIP3    H230704   2.476   0.122  16.378  0.2236  0.4916  0.4096
 3097TIP3   OH230705   3.786   2.514   2.578  0.1284  0.4823  0.5683
 3097TIP3    H130706   3.720   2.461   2.534  1.7177 -1.7192  0.6529
 3097TIP3    H230707   3.736   2.583   2.622 -1.7472  1.1821 -2.3547
 3098TIP3   OH230708   2.017   3.820   3.164 -0.4415  0.6501  0.0326
 3098TIP3    H130709   2.031   3.897   3.109 -3.5932  0.2871 -1.4704
 3098TIP3    H230710   2.085   3.758   3.137 -0.4766  1.3645 -1.7896
 3099TIP3   OH230711   1.665   3.182  11.049  0.1495  0.2424  0.1022
 3099TIP3    H130712   1.587   3.223  11.011  0.3143 -0.3798 -0.9741
 3099TIP3    H230713   1.732   3.191  10.982  0.8329  0.2273  0.7700
 3100TIP3   OH230714   2.818   0.252   1.875  0.0351 -0.1420  0.6823
 3100TIP3    H130715   2.823   0.255   1.780 -0.7980  1.2486  0.6495
 3100TIP3    H230716   2.765   0.329   1.899  0.7918 -0.0778  2.3029
 3101TIP3   OH230717   0.486   3.122   3.348  0.6428  0.1957  0.6696
 3101TIP3    H130718   0.549   3.187   3.316  1.9527 -1.0829  0.5330
 3101TIP3    H230719   0.407   3.137   3.297  0.4194  2.5508  1.5781
 3102TIP3   OH230720   1.147   6.348  12.826  0.9413  0.6421  0.6742
 3102TIP3    H130721   1.231   6.394  12.821  1.3099 -0.0000  0.8041
 3102TIP3    H230722   1.169   6.263  12.864  0.2528  0.4062  0.5557
 3103TIP3   OH230723   0.042   3.598  16.794  0.2358 -0.1569 -0.5001
 3103TIP3    H130724   0.081   3.686  16.793  1.6950 -0.7233  1.5639
 3103TIP3    H230725  -0.032   3.606  16.854  0.3468 -0.3326 -0.3420
 3104TIP3   OH230726   4.356   5.144  14.461 -0.3085  0.6172 -0.1035
 3104TIP3    H130727   4.319   5.232  14.456  0.5268  1.0515  0.8655
 3104TIP3    H230728   4.438   5.150  14.411  0.7601  0.9774  1.6173
 3105TIP3   OH230729   5.466   3.821  12.840 -0.8243 -0.3313 -0.4978
 3105TIP3    H130730   5.520   3.896  12.818  1.2166 -1.0885  1.5017
 3105TIP3    H230731   5.449   3.830  12.934 -3.1716 -0.8092 -0.8068
 3106TIP3   OH230732   3.499   4.062   2.052 -0.2813 -0.3755 -0.3480
 3106TIP3    H130733   3.430   3.997   2.045  0.3594 -0.9239 -3.0565
 3106TIP3    H230734   3.557   4.029   2.120 -2.0512 -0.4840  1.1642
 3107TIP3   OH230735   1.535   6.793  12.941  0.2959  0.6135  0.0880
 3107TIP3    H130736   1.607   6.792  13.004  2.1289  0.5310 -1.9009
 3107TIP3    H230737   1.519   6.886  12.924  1.0534  0.6215 -0.6435
 3108TIP3   OH230738   6.167   4.308   2.093  0.2349  0.4402 -0.4345
 3108TIP3    H130739   6.080   4.297   2.054  0.6232  0.2105 -1.2407
 3108TIP3    H230740   6.228   4.277   2.026  0.9231  0.2361  0.2763
 3109TIP3   OH230741   3.882   5.134  16.117  0.8880 -0.5061 -0.1548
 3109TIP3    H130742   3.857   5.056  16.067 -0.4503 -0.9232  1.1026
 3109TIP3    H230743   3.912   5.196  16.050 -1.5422 -0.7477 -1.5770
 3110TIP3   OH230744   1.001   1.050   0.703 -0.0848  0.4109 -0.0945
 3110TIP3    H130745   0.990   1.108   0.628 -0.2203 -0.3179 -0.6472
 3110TIP3    H230746   1.062   0.983   0.674 -2.1868 -1.4323 -0.5020
 3111TIP3   OH230747   1.929   5.677   4.739  0.4210 -0.3042 -0.1660
 3111TIP3    H130748   1.926   5.590   4.698  2.6548 -0.9424  0.8328
 3111TIP3    H230749   1.986   5.665   4.815  1.5314  2.2346 -0.5050
 3112TIP3   OH230750   6.298   4.807   5.953  0.7414 -0.2483 -0.0657
 3112TIP3    H130751   6.279   4.867   5.880  2.5984  0.3497 -0.0996
 3112TIP3    H230752   6.383   4.770   5.932  0.1216 -2.1129  0.5131
 3113TIP3   OH230753   2.565   2.051   2.781  0.1931  0.2450 -0.1480
 3113TIP3    H130754   2.608   1.985   2.835 -0.2422 -1.1726 -1.4816
 3113TIP3    H230755   2.633   2.082   2.721 -0.1416 -0.6927 -1.0494
 3114TIP3   OH230756   3.052   3.857  14.841 -0.2644  0.1865 -0.0666
 3114TIP3    H130757   3.069   3.862  14.935 -1.1723  0.5996  0.0860
 3114TIP3    H230758   3.129   3.813  14.805  0.6614  1.1230  0.7010
 3115TIP3   OH230759   4.265   0.650   0.914 -0.1801 -1.2617 -0.4028
 3115TIP3    H130760   4.301   0.561   0.916 -1.8559 -1.9863  0.5926
 3115TIP3    H230761   4.192   0.644   0.852  0.2213 -0.3355 -0.9751
 3116TIP3   OH230762   3.748   1.828   2.843  0.4221 -0.9215  0.4601
 3116TIP3    H130763   3.814   1.889   2.877 -0.0913 -0.6874  1.0479
 3116TIP3    H230764   3.715   1.784   2.921 -4.2229  2.9112  1.1122
 3117TIP3   OH230765   6.098   2.569   4.779 -0.0215 -0.1968 -0.4339
 3117TIP3    H130766   6.026   2.629   4.800  0.4426  0.2202  0.0124
 3117TIP3    H230767   6.055   2.486   4.762 -0.5953 -0.0411  0.1770
 3118TIP3   OH230768   1.880   1.916   6.325  0.8976  0.2833 -0.3241
 3118TIP3    H130769   1.970   1.891   6.302  1.5153  3.6749 -2.2188
 3118TIP3    H230770   1.890   1.997   6.376 -1.0785  0.2044  0.2641
 3119TIP3   OH230771   0.262   2.904  16.039 -0.0428 -0.1844 -0.2275
 3119TIP3    H130772   0.355   2.901  16.018 -0.4501 -1.9724 -1.9704
 3119TIP3    H230773   0.241   2.817  16.071 -0.9225  0.5452  1.3451
 3120TIP3   OH230774   1.186   6.120  11.739 -0.1005 -0.0295  0.5423
 3120TIP3    H130775   1.203   6.041  11.688 -0.4153  0.4765 -0.3610
 3120TIP3    H230776   1.105   6.101  11.787  0.0382 -0.3957  0.6330
 3121TIP3   OH230777   2.971   2.743   3.437 -0.1557  0.2244 -0.5959
 3121TIP3    H130778   2.925   2.786   3.364  2.3625  1.8466 -1.3567
 3121TIP3    H230779   3.008   2.663   3.398 -1.5333 -0.6609 -0.1813
 3122TIP3   OH230780   3.914   3.627   4.554  0.4573  0.0176  0.6224
 3122TIP3    H130781   3.905   3.621   4.459  2.1987 -0.4208  0.4339
 3122TIP3    H230782   3.850   3.693   4.580 -0.6669 -0.4748 -0.7290
 3123TIP3   OH230783   0.415   6.129   5.685 -0.0036  0.1634  0.2504
 3123TIP3    H130784   0.404   6.078   5.766  0.3714 -0.2075  0.0701
 3123TIP3    H230785   0.370   6.078   5.618 -0.0276  0.3053  0.1575
 3124TIP3   OH230786   5.808   0.493  10.339  0.0069  0.7474  0.1836
 3124TIP3    H130787   5.838   0.556  10.405  0.4273  2.7288 -1.7459
 3124TIP3    H230788   5.760   0.547  10.276 -1.2194 -1.2161 -0.6355
 3125TIP3   OH230789   4.376   2.340   4.657 -0.3224 -0.0274  0.6061
 3125TIP3    H130790   4.469   2.361   4.661  0.3454 -2.4284 -0.3406
 3125TIP3    H230791   4.347   2.338   4.748  0.9208 -0.5534  1.0070
 3126TIP3   OH230792   3.405   3.292  14.049 -0.1415 -0.6529  1.0692
 3126TIP3    H130793   3.410   3.386  14.066  1.1220 -0.6745  0.9005
 3126TIP3    H230794   3.316   3.278  14.016  0.0437  0.6828 -0.0927
 3127TIP3   OH230795   4.269   6.538   5.666  0.1327  0.1737  0.1323
 3127TIP3    H130796   4.286   6.632   5.663 -1.5993  0.4963 -0.6801
 3127TIP3    H230797   4.355   6.498   5.653  0.4858  1.6695 -3.1363
 3128TIP3   OH230798   2.681   5.557  14.028 -0.8642  0.1573 -0.0185
 3128TIP3    H130799   2.727   5.487  13.982  0.2471 -0.2574  1.6522
 3128TIP3    H230800   2.598   5.565  13.981 -0.3349 -1.1417 -1.2599
 3129TIP3   OH230801   1.553   5.916  12.976 -0.1115 -0.2712 -0.2951
 3129TIP3    H130802   1.641   5.924  12.939 -0.2849 -1.1845 -0.9427
 3129TIP3    H230803   1.495   5.924  12.901 -0.5195 -1.0057 -0.0711
 3130TIP3   OH230804   4.029   4.684   5.563 -0.1255 -0.1832 -0.0930
 3130TIP3    H130805   4.077   4.632   5.499 -0.0094  2.3384 -2.1846
 3130TIP3    H230806   4.077   4.767   5.568 -2.0940  0.9709  0.6347
 3131TIP3   OH230807   5.415   5.509   5.512  0.0456  0.1402  0.3721
 3131TIP3    H130808   5.357   5.525   5.437 -0.7903 -3.2284  0.1133
 3131TIP3    H230809   5.478   5.581   5.510 -0.5819  0.7711 -2.9541
 3132TIP3   OH230810   4.096   1.617  11.686 -0.4818 -0.7449 -0.5312
 3132TIP3    H130811   4.060   1.649  11.769 -0.7173 -0.1158 -0.8643
 3132TIP3    H230812   4.146   1.539  11.710  1.5386  0.7941  0.5872
 3133TIP3   OH230813   3.365   0.746   1.465 -0.1303 -0.4142  0.3276
 3133TIP3    H130814   3.316   0.741   1.547 -1.6091  0.7072 -0.4312
 3133TIP3    H230815   3.332   0.674   1.413 -1.3039  0.5642 -0.3256
 3134TIP3   OH230816   6.574   6.737  15.788  0.0217  0.6632 -0.0890
 3134TIP3    H130817   6.494   6.714  15.742  0.4551 -0.1054 -0.4804
 3134TIP3    H230818   6.628   6.781  15.722 -0.0630  1.1513  0.1637
 3135TIP3   OH230819   5.916   2.167  17.055 -0.1190 -0.0956  0.1615
 3135TIP3    H130820   5.830   2.190  17.089 -0.0730 -1.2862  1.1484
 3135TIP3    H230821   5.928   2.225  16.979 -1.6772  0.2436  0.1375
 3136TIP3   OH230822   2.918   3.325  14.483  0.3319 -0.0943  1.0999
 3136TIP3    H130823   2.850   3.315  14.549 -0.6390  0.6976  0.2605
 3136TIP3    H230824   2.939   3.418  14.484 -1.0548  0.3142 -0.9495
 3137TIP3   OH230825   0.214   3.161  15.736 -0.0052 -0.0715 -0.3410
 3137TIP3    H130826   0.170   3.179  15.653 -0.1629  1.4265  0.0314
 3137TIP3    H230827   0.268   3.239  15.751  0.6285 -0.6706  0.5794
 3138TIP3   OH230828   0.413   3.605   2.384 -0.1373 -0.4379  0.3328
 3138TIP3    H130829   0.442   3.519   2.354  0.7373 -0.1808  0.4294
 3138TIP3    H230830   0.493   3.652   2.403 -0.5985  0.6168 -0.2854
 3139TIP3   OH230831   1.999   1.620  15.171  0.4500 -0.3890  0.0584
 3139TIP3    H130832   1.940   1.664  15.110  0.3617 -2.4246 -1.4207
 3139TIP3    H230833   2.070   1.587  15.117  0.7394 -1.6415  1.1519
 3140TIP3   OH230834   3.592   6.511  15.428  0.1796  0.4804 -0.4089
 3140TIP3    H130835   3.618   6.601  15.408 -0.4989  0.8973  0.5014
 3140TIP3    H230836   3.524   6.520  15.494 -0.1331 -0.6995 -0.5421
 3141TIP3   OH230837   6.160   0.716  15.947  0.5328 -0.3764  0.3108
 3141TIP3    H130838   6.193   0.804  15.930 -1.8547  0.7525  1.1322
 3141TIP3    H230839   6.200   0.691  16.031  0.1461  0.4992  0.7624
 3142TIP3   OH230840   2.893   6.236   4.476  0.3621 -0.0220  0.4292
 3142TIP3    H130841   2.855   6.149   4.465  1.1857 -0.4866  1.1047
 3142TIP3    H230842   2.914   6.265   4.387  0.6654 -0.7834  0.2510
 3143TIP3   OH230843   5.952   0.107   0.101  0.1995  0.8545  0.2481
 3143TIP3    H130844   6.010   0.054   0.048 -0.0777 -0.6328  1.3518
 3143TIP3    H230845   6.007   0.138   0.173  0.1448  1.3303  0.0886
 3144TIP3   OH230846   2.670   6.113  16.853 -0.1645 -0.0287  0.0938
 3144TIP3    H130847   2.750   6.101  16.904  1.1982  0.2957 -1.8741
 3144TIP3    H230848   2.611   6.045  16.885  0.8513 -0.2429  1.6264
 3145TIP3   OH230849   3.246   5.165  13.419  0.3534  0.3626 -0.1470
 3145TIP3    H130850   3.265   5.072  13.432  0.8340  0.2292 -1.5705
 3145TIP3    H230851   3.242   5.201  13.507  0.6025 -0.9257  0.4200
 3146TIP3   OH230852   5.771   2.995  11.726  0.6431 -0.2376  0.9232
 3146TIP3    H130853   5.698   2.948  11.685  0.8723 -0.9492  1.3210
 3146TIP3    H230854   5.822   2.927  11.770  0.4167  0.4924  2.3754
 3147TIP3   OH230855   3.375   1.900   0.683  0.0640  0.4082  0.3887
 3147TIP3    H130856   3.444   1.907   0.750  0.9233  1.2328 -0.5304
 3147TIP3    H230857   3.365   1.990   0.651 -0.7308  0.1196 -0.1944
 3148TIP3   OH230858   2.172   1.646  10.371 -0.1162  0.5192  0.2146
 3148TIP3    H130859   2.154   1.558  10.337  0.0298  0.5634  0.0182
 3148TIP3    H230860   2.087   1.690  10.371 -0.3828  0.0471  1.2948
 3149TIP3   OH230861   4.997   1.380   5.418 -0.1731  0.2824  0.3498
 3149TIP3    H130862   4.949   1.429   5.484 -2.6299  0.4931 -1.4758
 3149TIP3    H230863   5.049   1.446   5.372 -1.4020  0.7982 -0.3497
 3150TIP3   OH230864   2.751   4.712   0.841  0.0578 -0.2732  0.1609
 3150TIP3    H130865   2.735   4.669   0.757 -1.5410  1.9331 -0.7613
 3150TIP3    H230866   2.846   4.712   0.850  0.2683 -0.4755 -1.7068
 3151TIP3   OH230867   3.351   0.730   5.266  0.0725  0.4362 -0.2436
 3151TIP3    H130868   3.413   0.673   5.220 -0.1468 -0.6988  0.7987
 3151TIP3    H230869   3.405   0.799   5.304  0.3377  1.0113 -1.5912
 3152TIP3   OH230870   4.958   3.513   3.370  0.1171 -0.5593  0.3902
 3152TIP3    H130871   4.980   3.475   3.455 -1.0394 -0.6532  0.6647
 3152TIP3    H230872   5.034   3.567   3.347 -0.0366  0.4293  2.0480
 3153TIP3   OH230873   5.780   2.103  12.886  0.0189 -0.0828  0.6630
 3153TIP3    H130874   5.845   2.173  12.894  0.9448 -0.6320 -1.4706
 3153TIP3    H230875   5.720   2.134  12.819  0.4756 -1.3255 -0.3603
 3154TIP3   OH230876   5.725   1.427  13.832 -0.6731  0.2536 -0.0635
 3154TIP3    H130877   5.683   1.359  13.780  2.1717 -2.0061  0.3315
 3154TIP3    H230878   5.739   1.386  13.918  0.3672  1.6385  0.4671
 3155TIP3   OH230879   2.307   5.698   0.067 -0.0240  0.0018 -0.4326
 3155TIP3    H130880   2.385   5.663   0.111 -0.3286  1.1010  1.0924
 3155TIP3    H230881   2.247   5.624   0.062  1.0040 -0.7970 -1.4035
 3156TIP3   OH230882   4.335   2.165   5.588 -0.3058 -0.3415 -0.0641
 3156TIP3    H130883   4.276   2.224   5.635 -1.1372 -0.5846 -0.7714
 3156TIP3    H230884   4.421   2.180   5.628 -0.5620  1.1035 -0.0021
 3157TIP3   OH230885   1.756   0.828   4.488  0.0621  0.1237 -0.4928
 3157TIP3    H130886   1.734   0.745   4.446 -3.4777  0.9063 -0.4643
 3157TIP3    H230887   1.704   0.894   4.442 -0.6893  1.6437  2.2702
 3158TIP3   OH230888   5.387   3.989   6.140 -0.4060  0.0842  0.1866
 3158TIP3    H130889   5.401   4.083   6.136  1.0284 -0.1258 -2.3195
 3158TIP3    H230890   5.474   3.953   6.160 -0.8928 -0.7211  0.9098
 3159TIP3   OH230891   6.643   1.748   5.725 -0.2216 -0.1266 -0.3258
 3159TIP3    H130892   6.648   1.674   5.785  0.4632 -0.8137 -1.2024
 3159TIP3    H230893   6.552   1.779   5.734 -0.8860 -1.8086 -0.7802
 3160TIP3   OH230894   0.891   6.583   1.368  0.3640 -0.1794 -0.0893
 3160TIP3    H130895   0.887   6.523   1.293 -0.8383 -1.1672  0.7256
 3160TIP3    H230896   0.907   6.669   1.328 -0.0314 -0.7107 -1.4713
 3161TIP3   OH230897   2.539   2.113   1.684 -0.2174  0.5640 -0.2193
 3161TIP3    H130898   2.479   2.163   1.739 -2.2641 -0.2116 -1.6225
 3161TIP3    H230899   2.582   2.052   1.744 -3.1814 -1.0239  0.4846
 3162TIP3   OH230900   1.814   0.869   4.849 -0.5647 -0.4837 -0.4375
 3162TIP3    H130901   1.831   0.940   4.787  0.8302 -0.4645 -0.0763
 3162TIP3    H230902   1.888   0.872   4.910 -1.0093 -1.6017  0.1964
 3163TIP3   OH230903   6.260   5.892   4.537 -0.4176  0.4896 -0.7352
 3163TIP3    H130904   6.211   5.810   4.534 -0.0508  0.2002  0.5407
 3163TIP3    H230905   6.351   5.865   4.523 -0.4855  0.9231 -2.2207
 3164TIP3   OH230906   0.533   0.342   4.211 -0.1056  0.3654 -0.7178
 3164TIP3    H130907   0.491   0.412   4.160  0.4457  0.8182 -0.5521
 3164TIP3    H230908   0.466   0.273   4.215 -1.2363  1.4766  0.4272
 3165TIP3   OH230909   2.763   3.853   4.159  0.3091 -0.3354  0.6439
 3165TIP3    H130910   2.745   3.861   4.252  0.6262 -1.4032  0.8113
 3165TIP3    H230911   2.684   3.886   4.116 -0.3087 -0.9154  1.3129
 3166TIP3   OH230912   4.121   6.500  14.864  0.1634 -0.4606 -0.6455
 3166TIP3    H130913   4.068   6.431  14.905  1.3617 -0.8498  0.3009
 3166TIP3    H230914   4.139   6.466  14.776 -0.4329 -0.7003 -0.6862
 3167TIP3   OH230915   0.728   1.726  13.473 -0.0327 -0.0759  0.0374
 3167TIP3    H130916   0.799   1.783  13.500  0.3246 -0.4780 -0.0479
 3167TIP3    H230917   0.753   1.695  13.386 -0.2737 -0.2807  0.0375
 3168TIP3   OH230918   2.128   6.379  13.236 -1.0470  0.2710 -0.2520
 3168TIP3    H130919   2.152   6.445  13.300  0.1906  0.7662 -1.1814
 3168TIP3    H230920   2.118   6.298  13.286 -0.0673  0.6397  0.5619
 3169TIP3   OH230921   4.048   2.935   3.388  0.4268 -0.0337 -0.0737
 3169TIP3    H130922   3.955   2.958   3.392  1.0221  2.4426  1.0008
 3169TIP3    H230923   4.068   2.935   3.294  0.2975  4.0413 -0.2532
 3170TIP3   OH230924   0.226   3.522   1.050  0.5845  0.4728  0.4548
 3170TIP3    H130925   0.313   3.489   1.028 -0.5508 -1.5366 -1.4331
 3170TIP3    H230926   0.171   3.495   0.977 -1.3764  2.9896  0.8610
 3171TIP3   OH230927   1.776   1.848   1.837 -0.3857 -0.1061  0.2126
 3171TIP3    H130928   1.805   1.908   1.767 -1.4612  0.3015  0.1017
 3171TIP3    H230929   1.850   1.846   1.898  0.8810 -1.0539 -1.2875
 3172TIP3   OH230930   6.293   5.047   3.997 -0.1537  0.2245  0.1389
 3172TIP3    H130931   6.288   5.114   3.929 -0.7104  1.6133  1.4755
 3172TIP3    H230932   6.225   4.984   3.975  0.5537 -0.0687 -1.2854
 3173TIP3   OH230933   6.097   5.748  16.114  0.2177 -0.2905  0.2869
 3173TIP3    H130934   6.187   5.760  16.084  0.6563 -0.5757  1.4349
 3173TIP3    H230935   6.047   5.734  16.034  1.0299  0.8180 -0.4442
 3174TIP3   OH230936   5.482   6.029  12.212  0.6074 -0.1237 -0.1191
 3174TIP3    H130937   5.483   5.945  12.259 -0.9787 -0.2797 -0.2980
 3174TIP3    H230938   5.398   6.029  12.166  1.3434  0.8122 -1.5342
 3175TIP3   OH230939   4.256   2.589  14.915  0.7590  0.1286  0.0229
 3175TIP3    H130940   4.180   2.636  14.952 -0.7105 -0.6001 -1.8935
 3175TIP3    H230941   4.301   2.655  14.863  0.1364  0.0364 -0.6433
 3176TIP3   OH230942   4.047   6.191   6.055  0.0977 -0.0802 -0.6448
 3176TIP3    H130943   3.961   6.152   6.043 -0.6527  0.5837  1.9312
 3176TIP3    H230944   4.085   6.194   5.967 -2.2061 -1.0147 -1.7438
 3177TIP3   OH230945   2.561   5.184   1.696  0.4082  0.7153 -0.1279
 3177TIP3    H130946   2.485   5.222   1.654  1.2424  1.7732 -0.7413
 3177TIP3    H230947   2.605   5.258   1.738  0.6673  0.0017  0.9109
 3178TIP3   OH230948   2.736   4.560   4.621 -0.2575  0.2005  0.0864
 3178TIP3    H130949   2.751   4.528   4.710  0.2144  1.0349  0.3248
 3178TIP3    H230950   2.719   4.654   4.632 -0.9227  0.1728 -0.6405
 3179TIP3   OH230951   3.977   0.140   0.170  0.2978 -0.1827  0.0537
 3179TIP3    H130952   4.042   0.184   0.225 -0.9636  1.2397  0.4788
 3179TIP3    H230953   3.979   0.049   0.199  1.0553  0.1423  1.0820
 3180TIP3   OH230954   5.183   4.270  13.882  0.0984 -0.0205  0.0562
 3180TIP3    H130955   5.252   4.250  13.819  0.4566  1.4034 -0.0552
 3180TIP3    H230956   5.102   4.246  13.837  0.5063 -1.8245  0.2394
 3181TIP3   OH230957   6.066   0.400  13.422  0.0910  0.0409  0.4714
 3181TIP3    H130958   6.037   0.470  13.363 -1.5714 -1.1254 -0.1543
 3181TIP3    H230959   6.058   0.439  13.509 -0.7743  0.6614  0.1352
 3182TIP3   OH230960   3.996   3.278   0.315  0.4594 -0.4701  0.0306
 3182TIP3    H130961   4.064   3.322   0.366 -0.5926  0.1445  0.9520
 3182TIP3    H230962   4.023   3.290   0.224  1.1353  0.5051  0.3413
 3183TIP3   OH230963   0.292   5.290  15.106  0.2654 -0.1310 -0.2477
 3183TIP3    H130964   0.249   5.206  15.119 -0.4717  0.3780  0.8337
 3183TIP3    H230965   0.284   5.307  15.012  0.1689 -1.1201 -0.4318
 3184TIP3   OH230966   5.708   6.502  12.346 -0.0062 -0.4268  0.2158
 3184TIP3    H130967   5.736   6.581  12.392 -0.2115 -0.5087  0.4801
 3184TIP3    H230968   5.749   6.509  12.260 -0.6303  0.3421 -0.0318
 3185TIP3   OH230969   6.552   4.418  17.075  0.3036 -0.1159 -0.0414
 3185TIP3    H130970   6.595   4.372  17.003  1.2904 -2.4077  1.8664
 3185TIP3    H230971   6.474   4.365  17.093 -0.4640  0.9919 -0.0603
 3186TIP3   OH230972   2.285   1.423   4.450  0.1513  0.3675  0.0493
 3186TIP3    H130973   2.257   1.488   4.514 -0.4630 -0.9661  1.1864
 3186TIP3    H230974   2.380   1.423   4.455  0.1318  0.7889  0.4193
 3187TIP3   OH230975   0.366   6.716   3.843  0.3920  0.1360  0.1160
 3187TIP3    H130976   0.299   6.689   3.906  1.4779  1.4742  1.9886
 3187TIP3    H230977   0.440   6.743   3.898  0.8128  2.9936 -1.6422
 3188TIP3   OH230978   2.729   3.226   1.402 -0.4098  0.4479 -0.2768
 3188TIP3    H130979   2.822   3.245   1.410 -0.1228 -1.0718  0.5306
 3188TIP3    H230980   2.718   3.196   1.312  0.2044 -0.7418  0.0115
 3189TIP3   OH230981   5.480   2.813   1.061  0.0370  0.1630 -0.1684
 3189TIP3    H130982   5.484   2.901   1.023 -1.4203  0.0943 -0.5308
 3189TIP3    H230983   5.571   2.786   1.068  0.5515  1.8962  0.4224
 3190TIP3   OH230984   6.406   3.502  16.842  0.5997  0.3362  0.6454
 3190TIP3    H130985   6.394   3.413  16.874 -3.3358  0.3703 -0.3326
 3190TIP3    H230986   6.403   3.556  16.921  2.0079 -0.2618  1.1423
 3191TIP3   OH230987   0.398   5.655   3.958  0.1832  0.4909  0.0115
 3191TIP3    H130988   0.354   5.732   3.922 -0.5430  0.3383  0.5632
 3191TIP3    H230989   0.463   5.632   3.891  0.7911  1.9022  0.0782
 3192TIP3   OH230990   2.842   5.976   4.404 -0.4004  0.0069  0.2569
 3192TIP3    H130991   2.919   5.972   4.461 -0.5922  0.0125  0.5167
 3192TIP3    H230992   2.767   5.970   4.464 -0.5960 -1.3643 -0.1002
 3193TIP3   OH230993   0.416   0.358  16.375 -0.6432 -0.4088  0.4860
 3193TIP3    H130994   0.333   0.317  16.348 -0.3033 -0.0208 -1.2331
 3193TIP3    H230995   0.484   0.299  16.343 -0.1915  0.6543 -0.5790
 3194TIP3   OH230996   5.362   3.603  16.775  0.0377  0.3673  0.3777
 3194TIP3    H130997   5.279   3.646  16.795  0.1913  1.0530 -0.4010
 3194TIP3    H230998   5.345   3.553  16.696  0.2259  0.0873  0.5142
 3195TIP3   OH230999   2.166   6.694  16.808 -0.2471 -0.0692  0.4593
 3195TIP3    H131000   2.121   6.778  16.808 -1.7833 -0.7719 -2.3812
 3195TIP3    H231001   2.131   6.648  16.885 -1.1775  0.9920  0.6898
 3196TIP3   OH231002   1.649   3.811  16.420  0.7495 -0.0296 -0.6116
 3196TIP3    H131003   1.644   3.890  16.474  0.9950 -0.6097  0.2863
 3196TIP3    H231004   1.559   3.794  16.394 -0.0101 -1.7871  2.6979
 3197TIP3   OH231005   5.856   3.189  15.395 -0.1984  0.2297  0.4608
 3197TIP3    H131006   5.801   3.149  15.462  0.9274  0.3234  1.4917
 3197TIP3    H231007   5.902   3.259  15.442  0.5354  0.3665 -0.4406
 3198TIP3   OH231008   4.304   3.801  12.954 -0.3761 -0.7739  0.0111
 3198TIP3    H131009   4.340   3.841  13.033 -0.1976  1.7205 -1.2302
 3198TIP3    H231010   4.236   3.740  12.986 -2.7962  2.6582  2.0697
 3199TIP3   OH231011   4.552   6.447   2.042  0.1060 -0.0868  0.2201
 3199TIP3    H131012   4.589   6.405   1.964  1.7049 -1.6885  1.7459
 3199TIP3    H231013   4.474   6.395   2.062  1.2705 -1.5232  1.2587
 3200TIP3   OH231014   3.921   3.040  15.068  0.8030 -0.1850  0.0325
 3200TIP3    H131015   3.842   3.024  15.120  1.1951 -1.7211  0.2080
 3200TIP3    H231016   3.919   3.134  15.049 -0.4864  0.0006  0.9627
 3201TIP3   OH231017   3.971   4.057   5.398 -0.3404 -0.2663  0.2633
 3201TIP3    H131018   3.878   4.058   5.422 -0.4923 -0.8172 -0.2590
 3201TIP3    H231019   4.017   4.048   5.481 -0.7650 -0.1450  0.5132
 3202TIP3   OH231020   0.747   0.385   0.841  0.1687 -0.2115  0.2797
 3202TIP3    H131021   0.743   0.444   0.915 -0.5890 -1.4974  1.3082
 3202TIP3    H231022   0.793   0.307   0.874  3.2790  0.6126 -1.6739
 3203TIP3   OH231023   4.813   4.874  11.443 -0.2148 -0.5828 -0.2350
 3203TIP3    H131024   4.815   4.863  11.348 -2.0080  0.3979 -0.4439
 3203TIP3    H231025   4.750   4.809  11.473 -1.4303  0.6434 -0.0322
 3204TIP3   OH231026   3.044   0.796  11.724 -0.3295  0.1146 -0.1546
 3204TIP3    H131027   3.014   0.883  11.699 -0.1659 -0.2132 -1.6514
 3204TIP3    H231028   3.113   0.776  11.660 -1.1952 -1.5772 -0.6289
 3205TIP3   OH231029   0.505   4.514  16.012  0.2149  0.5050 -0.1957
 3205TIP3    H131030   0.462   4.454  16.073 -0.2754  0.5797 -0.4621
 3205TIP3    H231031   0.436   4.542  15.953  0.8177 -0.0553 -1.1836
 3206TIP3   OH231032   6.266   4.551   4.194  0.1143  0.9004  0.0811
 3206TIP3    H131033   6.329   4.549   4.267 -0.3997 -2.3172  0.5972
 3206TIP3    H231034   6.318   4.523   4.118 -0.0879  0.9436 -0.0715
 3207TIP3   OH231035   1.967   5.559   1.451 -0.4146  0.3674 -0.2636
 3207TIP3    H131036   1.872   5.573   1.441 -0.7213 -2.5796 -3.1605
 3207TIP3    H231037   2.005   5.601   1.374  0.2990 -0.7524 -0.5413
 3208TIP3   OH231038   1.448   4.976   2.421  0.3599 -0.0141  0.1592
 3208TIP3    H131039   1.445   5.071   2.411 -0.5741  0.1337  1.6927
 3208TIP3    H231040   1.359   4.951   2.444  0.5893 -1.2827 -0.2469
 3209TIP3   OH231041   3.695   1.387  12.048  0.1024 -0.5698 -0.1402
 3209TIP3    H131042   3.669   1.381  11.956  1.8501  0.1791 -0.7303
 3209TIP3    H231043   3.729   1.301  12.070  0.8183 -0.4112 -0.5906
 3210TIP3   OH231044   1.056   5.936   0.270  0.1317  0.3334 -0.1673
 3210TIP3    H131045   1.044   5.847   0.305  0.6696  0.0805 -0.6016
 3210TIP3    H231046   1.020   5.993   0.338  0.1331 -0.1981  0.2955
 3211TIP3   OH231047   0.285   5.844  16.325 -0.3334  0.9642  0.0482
 3211TIP3    H131048   0.321   5.927  16.294  0.9793 -0.2518 -1.8912
 3211TIP3    H231049   0.254   5.800  16.246  1.1408 -1.3617  0.6437
 3212TIP3   OH231050   5.401   2.238  15.030  0.4378 -0.1379 -0.1690
 3212TIP3    H131051   5.435   2.290  14.957 -0.8437 -0.9830 -1.4010
 3212TIP3    H231052   5.371   2.157  14.990 -2.9106  0.4786  0.8207
 3213TIP3   OH231053   4.953   0.952   2.694  0.3807  0.5989 -0.0893
 3213TIP3    H131054   4.952   0.955   2.598  1.6832 -1.7275 -0.2410
 3213TIP3    H231055   5.044   0.969   2.718 -0.0298  1.7101  0.8123
 3214TIP3   OH231056   4.095   4.726  14.117 -0.3516  0.0107 -0.0103
 3214TIP3    H131057   4.157   4.791  14.083  1.2436 -1.8964 -0.9611
 3214TIP3    H231058   4.138   4.642  14.101 -1.2862 -1.2304  3.2307
 3215TIP3   OH231059   4.064   3.643  13.001 -0.4627 -0.1598  0.0946
 3215TIP3    H131060   4.120   3.613  13.072  0.3261 -2.0471 -1.2538
 3215TIP3    H231061   3.989   3.583  13.003 -1.2276  0.7852  0.3151
 3216TIP3   OH231062   4.963   0.017   0.959  0.5115 -0.7183  0.1868
 3216TIP3    H131063   4.885   0.004   1.013  1.1849  0.0133  1.3676
 3216TIP3    H231064   4.930   0.060   0.880 -0.2966 -0.4729  0.6473
 3217TIP3   OH231065   4.037   0.174  16.573  0.4180  0.5185  0.6952
 3217TIP3    H131066   4.072   0.102  16.521  0.8908  0.9575  0.3911
 3217TIP3    H231067   4.051   0.147  16.664 -1.7560 -0.9268  0.6687
 3218TIP3   OH231068   1.480   0.270  11.324 -0.2924 -0.1775 -0.3511
 3218TIP3    H131069   1.567   0.249  11.357 -0.2577  0.1726 -0.2165
 3218TIP3    H231070   1.496   0.317  11.242 -0.3067  1.3748  0.5161
 3219TIP3   OH231071   1.757   1.380   2.766 -0.2498 -0.1458 -0.2542
 3219TIP3    H131072   1.751   1.343   2.678  2.7165  0.5905 -0.8883
 3219TIP3    H231073   1.763   1.475   2.751  0.6194 -0.0385  0.6958
 3220TIP3   OH231074   4.116   4.441   1.575 -0.2823 -0.1590 -0.1161
 3220TIP3    H131075   4.038   4.389   1.558  0.2527 -1.5758  1.5279
 3220TIP3    H231076   4.119   4.451   1.670  1.4244  0.0295 -0.1452
 3221TIP3   OH231077   4.277   2.088   4.311 -0.0024  0.3774 -0.2457
 3221TIP3    H131078   4.258   1.998   4.284  2.9965  0.0042 -1.4709
 3221TIP3    H231079   4.246   2.142   4.239  0.6128  0.0715 -0.7474
 3222TIP3   OH231080   5.176   1.799  15.926  0.5195  0.4983 -0.0402
 3222TIP3    H131081   5.196   1.858  15.999  1.1005 -1.1828  1.2061
 3222TIP3    H231082   5.206   1.713  15.955 -1.3199 -0.6573 -1.3397
 3223TIP3   OH231083   1.725   4.300  12.190  0.5702  0.2958 -0.8245
 3223TIP3    H131084   1.632   4.277  12.195  0.4119  1.1480  1.1824
 3223TIP3    H231085   1.728   4.374  12.129 -0.0724  0.1916 -0.9903
 3224TIP3   OH231086   1.176   5.615  12.425 -0.2728  0.3490 -0.6845
 3224TIP3    H131087   1.105   5.663  12.381 -1.5539 -1.7119 -1.0040
 3224TIP3    H231088   1.210   5.556  12.358 -0.2063 -0.7198  0.2632
 3225TIP3   OH231089   0.272   5.586   1.947  0.1147  0.5056  0.3929
 3225TIP3    H131090   0.214   5.636   2.003  0.7181  0.9502  0.6253
 3225TIP3    H231091   0.358   5.626   1.958  0.3502  0.2544 -0.4274
 3226TIP3   OH231092   4.347   6.179  12.156 -0.6118 -0.3995  0.1620
 3226TIP3    H131093   4.363   6.273  12.159  0.4703 -0.5856  1.9656
 3226TIP3    H231094   4.422   6.143  12.107 -1.7550 -0.2438 -1.7987
 3227TIP3   OH231095   2.797   1.978   2.344  0.9110 -0.1593  0.0825
 3227TIP3    H131096   2.871   1.933   2.304  1.6591  0.8489  0.2767
 3227TIP3    H231097   2.816   2.071   2.333  1.2892  0.2074  2.9227
 3228TIP3   OH231098   4.748   2.164   5.704  0.5577  0.3804 -0.2146
 3228TIP3    H131099   4.774   2.133   5.617  2.5657 -0.2102  0.5299
 3228TIP3    H231100   4.724   2.256   5.690  1.7498  0.5627 -1.2674
 3229TIP3   OH231101   4.846   4.019   5.135 -0.2643  0.3938  0.8688
 3229TIP3    H131102   4.842   3.983   5.223  1.3693 -0.6030  0.5700
 3229TIP3    H231103   4.755   4.016   5.103 -0.6306 -0.6218  1.9579
 3230TIP3   OH231104   2.934   6.460  11.235 -0.2231 -0.0873  0.6521
 3230TIP3    H131105   2.883   6.414  11.301 -0.1163 -1.9627 -0.5085
 3230TIP3    H231106   2.882   6.453  11.155  0.6287  0.2424  0.0461
 3231TIP3   OH231107   2.093   0.477  13.889  0.2606 -0.2887 -0.0575
 3231TIP3    H131108   2.059   0.475  13.979  0.8413 -1.2901  0.1507
 3231TIP3    H231109   2.055   0.557  13.852 -1.8990 -1.0535  0.3313
 3232TIP3   OH231110   1.867   1.660  14.692 -0.4459  0.4521 -0.3932
 3232TIP3    H131111   1.794   1.610  14.656 -2.3075  1.2745  1.9366
 3232TIP3    H231112   1.826   1.740  14.727  1.4541  0.6815  1.5399
 3233TIP3   OH231113   3.146   4.354   6.161  0.0388  0.5631  0.4229
 3233TIP3    H131114   3.094   4.323   6.235  0.1924 -0.2462  0.1980
 3233TIP3    H231115   3.215   4.288   6.150  0.9528  1.4627  0.5348
 3234TIP3   OH231116   2.550   4.391  16.165  0.0539 -0.8009 -0.6641
 3234TIP3    H131117   2.595   4.373  16.083 -0.1103  0.1498 -0.9773
 3234TIP3    H231118   2.618   4.430  16.221  0.1487 -1.3838 -0.3609
 3235TIP3   OH231119   3.386   2.455  11.793  0.7718 -0.1190  0.1194
 3235TIP3    H131120   3.457   2.394  11.772  1.3757  0.4479  0.4371
 3235TIP3    H231121   3.432   2.533  11.827  0.0414  0.6406 -0.5999
 3236TIP3   OH231122   5.440   5.124   4.787  0.0360 -0.8824 -0.4171
 3236TIP3    H131123   5.369   5.142   4.725 -1.8104 -0.7348  1.5939
 3236TIP3    H231124   5.411   5.165   4.869  1.9848 -1.7176  0.7586
 3237TIP3   OH231125   1.706   2.382   0.715 -0.5109 -0.5832 -0.2365
 3237TIP3    H131126   1.722   2.288   0.707 -1.1019 -0.5979 -1.5372
 3237TIP3    H231127   1.616   2.394   0.684 -0.3810  0.4357 -0.2593
 3238TIP3   OH231128   3.514   0.235  16.340 -0.2705 -0.0352  0.2925
 3238TIP3    H131129   3.469   0.150  16.337 -1.0948  0.3330  1.5239
 3238TIP3    H231130   3.505   0.269  16.251  1.3671 -1.8507 -0.6356
 3239TIP3   OH231131   0.021   2.775   1.642 -0.2644  0.3161 -0.3988
 3239TIP3    H131132   0.037   2.750   1.551 -0.0303  1.3808 -0.6603
 3239TIP3    H231133   0.095   2.738   1.689 -0.6097 -0.6200 -0.5541
 3240TIP3   OH231134   3.821   3.035   2.355  0.2590 -0.7514 -0.0438
 3240TIP3    H131135   3.856   2.969   2.296  1.9383 -1.1304  1.2990
 3240TIP3    H231136   3.743   2.993   2.394 -2.5654  0.4824 -3.8110
 3241TIP3   OH231137   5.676   1.069   3.986  0.0881  0.8267 -0.2166
 3241TIP3    H131138   5.726   1.072   4.067 -1.6013 -0.8594  0.9800
 3241TIP3    H231139   5.601   1.126   4.002 -1.5755 -1.4069  0.4649
 3242TIP3   OH231140   4.720   1.457   2.995 -0.2106 -0.0611  0.5425
 3242TIP3    H131141   4.649   1.422   2.941 -0.5426 -0.6278  1.3326
 3242TIP3    H231142   4.715   1.407   3.077  0.9245  0.0905  0.7140
 3243TIP3   OH231143   2.711   5.777   3.107 -0.3703  0.2140  0.7061
 3243TIP3    H131144   2.798   5.777   3.149  0.5714  1.8291 -1.1126
 3243TIP3    H231145   2.702   5.689   3.072  0.1349 -0.2348  1.6493
 3244TIP3   OH231146   2.745   2.803  12.230 -0.2655 -0.0736  0.6230
 3244TIP3    H131147   2.830   2.769  12.255  0.2523  0.8076  0.1129
 3244TIP3    H231148   2.750   2.815  12.136 -1.1094 -0.4111  0.5202
 3245TIP3   OH231149   5.611   6.422   1.879  0.1218  0.2617 -0.2280
 3245TIP3    H131150   5.699   6.385   1.889 -0.8583 -2.0698  0.3967
 3245TIP3    H231151   5.616   6.507   1.923  2.2450  0.5554 -0.9098
 3246TIP3   OH231152   1.902   3.720   0.503 -0.3277 -0.7918 -0.1258
 3246TIP3    H131153   1.986   3.677   0.520 -0.3832 -0.4788  1.0498
 3246TIP3    H231154   1.838   3.650   0.506 -0.4241 -0.6931  1.8162
 3247TIP3   OH231155   6.171   1.514   4.441  0.0027  0.0471  0.3276
 3247TIP3    H131156   6.173   1.608   4.461 -1.9072  0.2784 -0.3881
 3247TIP3    H231157   6.124   1.475   4.514  0.5729 -0.3256  0.4973
 3248TIP3   OH231158   0.604   1.110   6.395  0.7302  0.5294 -0.0489
 3248TIP3    H131159   0.530   1.114   6.334  1.2881 -0.0642 -0.7932
 3248TIP3    H231160   0.680   1.093   6.339  1.2578 -0.0352  0.8093
 3249TIP3   OH231161   3.242   3.903   5.106  0.5941  0.1950 -0.0710
 3249TIP3    H131162   3.239   3.835   5.173 -0.0472  1.0457  0.7938
 3249TIP3    H231163   3.326   3.947   5.120  0.5960  0.1787 -0.0309
 3250TIP3   OH231164   5.902   2.786   4.795  0.1718 -0.3318  0.1834
 3250TIP3    H131165   5.830   2.838   4.830  0.4882  1.1438 -1.2489
 3250TIP3    H231166   5.945   2.843   4.731  0.5297 -2.3437 -1.5034
 3251TIP3   OH231167   6.113   0.607   2.029  0.1550 -0.0700 -0.7319
 3251TIP3    H131168   6.048   0.546   2.064 -1.8979  1.4753 -1.6400
 3251TIP3    H231169   6.082   0.694   2.058  1.8504  0.7229 -1.1721
 3252TIP3   OH231170   5.150   1.968   3.835 -0.0452 -0.2307  0.3962
 3252TIP3    H131171   5.074   1.910   3.838 -1.0584  0.9686 -0.7130
 3252TIP3    H231172   5.157   1.993   3.743  1.3752  0.1151  0.5766
 3253TIP3   OH231173   3.237   5.990  16.759 -0.5559 -0.1524 -0.1848
 3253TIP3    H131174   3.186   5.908  16.763 -1.6286  0.3515 -2.0485
 3253TIP3    H231175   3.186   6.046  16.700  0.7063  1.4813  0.2175
 3254TIP3   OH231176   3.147   1.702  13.503 -0.5807  0.1623 -0.3682
 3254TIP3    H131177   3.056   1.721  13.524 -0.2107  1.1622  0.4493
 3254TIP3    H231178   3.177   1.648  13.577 -0.5923 -0.4435 -0.8001
 3255TIP3   OH231179   4.054   4.584  10.895  0.2238 -0.1155  0.1167
 3255TIP3    H131180   4.120   4.653  10.882  1.3259 -1.3794 -1.3818
 3255TIP3    H231181   4.055   4.568  10.990  0.7614  1.1325  0.3452
 3256TIP3   OH231182   4.419   1.415   2.969  0.0429 -0.2263 -0.8667
 3256TIP3    H131183   4.375   1.482   2.916  0.6026  0.4752 -0.4658
 3256TIP3    H231184   4.447   1.462   3.048 -1.0508 -1.3207  0.2128
 3257TIP3   OH231185   6.746   1.619  15.385 -0.5600 -0.4640  0.6566
 3257TIP3    H131186   6.801   1.688  15.348  0.2862 -0.7834  1.2797
 3257TIP3    H231187   6.663   1.627  15.339  0.4667 -0.9081 -1.3986
 3258TIP3   OH231188   4.027   1.712   0.016 -0.0005  0.5875 -0.1500
 3258TIP3    H131189   4.043   1.664   0.098  1.0525  2.1807  0.6401
 3258TIP3    H231190   4.034   1.646  -0.052  0.1714 -0.5951  0.9641
 3259TIP3   OH231191   6.167   5.284   3.224 -0.1326  0.2938  0.5748
 3259TIP3    H131192   6.201   5.279   3.134  1.7102 -1.4021  1.2902
 3259TIP3    H231193   6.191   5.372   3.253  0.7828  0.2591 -0.0358
 3260TIP3   OH231194   2.831   0.771   1.889 -0.2730  0.3023  0.6490
 3260TIP3    H131195   2.745   0.811   1.875  0.3155  0.8827 -1.7027
 3260TIP3    H231196   2.886   0.842   1.922 -0.2310  0.4129  0.3418
 3261TIP3   OH231197   6.015   5.608  14.444  0.1720  0.3182  0.7542
 3261TIP3    H131198   5.953   5.679  14.427 -1.3794 -0.9775  0.7364
 3261TIP3    H231199   6.030   5.568  14.358 -0.5579 -0.6000  1.0329
 3262TIP3   OH231200   2.442   6.191   2.965 -0.7083  0.3310  0.0439
 3262TIP3    H131201   2.435   6.267   2.907 -0.2744 -0.0939 -0.5870
 3262TIP3    H231202   2.484   6.225   3.044  1.3668  0.3858 -1.0004
 3263TIP3   OH231203   6.731   1.863  14.466  0.7124 -0.3382 -0.1151
 3263TIP3    H131204   6.740   1.849  14.561  0.5074 -0.3897 -0.1038
 3263TIP3    H231205   6.675   1.940  14.459 -3.1997 -2.9251 -0.2168
 3264TIP3   OH231206   3.722   5.981  10.916  0.0938 -0.1235  0.6517
 3264TIP3    H131207   3.701   6.019  11.001 -1.8122  1.3237 -0.4023
 3264TIP3    H231208   3.761   5.896  10.937 -0.7788 -0.0153  2.9476
 3265TIP3   OH231209   1.416   3.367  12.977  0.4159  0.1054 -0.4144
 3265TIP3    H131210   1.449   3.306  13.042 -0.1197 -2.1029 -2.0950
 3265TIP3    H231211   1.326   3.384  13.003 -0.0324 -1.3537 -0.9059
 3266TIP3   OH231212   6.157   5.402   3.523  0.1098  0.2268  0.1805
 3266TIP3    H131213   6.178   5.489   3.487 -1.3045  0.1588 -0.9318
 3266TIP3    H231214   6.066   5.388   3.497  0.6816 -2.1380 -0.7880
 3267TIP3   OH231215   1.968   0.334  12.760  0.3013 -0.2855 -0.0107
 3267TIP3    H131216   2.060   0.309  12.748  0.1244 -0.6562 -0.6617
 3267TIP3    H231217   1.942   0.290  12.841 -0.2043 -2.9348 -1.4816
 3268TIP3   OH231218   1.253   4.920  16.945  0.1250 -0.4604  0.5757
 3268TIP3    H131219   1.230   4.829  16.963 -1.9039 -0.0153  0.4356
 3268TIP3    H231220   1.211   4.940  16.862  0.3728  0.6530  0.7003
 3269TIP3   OH231221   4.470   3.328  14.388 -0.5645  0.2839 -0.1131
 3269TIP3    H131222   4.480   3.411  14.341  2.5622  0.8083  1.2044
 3269TIP3    H231223   4.555   3.285  14.378 -1.8172 -2.4239 -0.0197
 3270TIP3   OH231224   0.838   1.979   1.661  0.2294 -0.1385  0.3920
 3270TIP3    H131225   0.814   2.064   1.699  0.3010 -0.7149  1.7856
 3270TIP3    H231226   0.931   1.970   1.682 -0.0383 -1.0439  1.2444
 3271TIP3   OH231227   4.821   1.181   5.394 -0.1677 -0.3653 -0.4093
 3271TIP3    H131228   4.865   1.266   5.387 -1.1555  0.1202 -0.9814
 3271TIP3    H231229   4.890   1.117   5.379  0.4185  0.3642 -0.9305
 3272TIP3   OH231230   1.713   5.659   2.993  0.5979  0.4952 -0.1925
 3272TIP3    H131231   1.634   5.677   2.943  0.1108 -0.4106  0.2235
 3272TIP3    H231232   1.785   5.677   2.932  0.0033 -1.5111 -1.5799
 3273TIP3   OH231233   6.577   4.023  11.466  0.2570  0.1844 -0.2672
 3273TIP3    H131234   6.588   4.110  11.505 -2.8098 -0.1097  1.5505
 3273TIP3    H231235   6.623   3.965  11.526  1.2230  0.3823 -0.7939
 3274TIP3   OH231236   5.679   5.210   1.314  0.5598 -0.0462 -0.8146
 3274TIP3    H131237   5.707   5.158   1.390 -0.0481 -3.2547 -2.5996
 3274TIP3    H231238   5.589   5.234   1.335  0.9712  0.6653  0.2158
 3275TIP3   OH231239   5.469   5.061   3.349  0.2106  0.2905 -0.0700
 3275TIP3    H131240   5.517   5.121   3.293 -1.4452  0.2909 -1.5750
 3275TIP3    H231241   5.442   4.990   3.291 -0.0911 -0.6040  1.1098
 3276TIP3   OH231242   1.763   1.365   1.274 -0.2193  0.0842 -0.2169
 3276TIP3    H131243   1.834   1.305   1.249  2.2458  1.4665  2.8599
 3276TIP3    H231244   1.723   1.390   1.190  2.1631 -1.6324 -2.0182
 3277TIP3   OH231245   6.285   4.634  15.481 -0.2565 -0.3156  0.0476
 3277TIP3    H131246   6.209   4.613  15.534 -1.2214  0.2245 -1.0742
 3277TIP3    H231247   6.252   4.637  15.391  1.2931 -1.0469 -0.5802
 3278TIP3   OH231248   2.879   2.615  10.866 -0.6246  0.5361  0.1519
 3278TIP3    H131249   2.849   2.577  10.948 -0.6655  1.0302  0.3701
 3278TIP3    H231250   2.810   2.596  10.803  0.1777 -1.3898 -0.2244
 3279TIP3   OH231251   0.492   4.698   2.057 -0.3760 -0.4508  0.5822
 3279TIP3    H131252   0.399   4.700   2.037 -0.5677  1.7600  1.4873
 3279TIP3    H231253   0.496   4.687   2.152  0.2534  0.3855  0.6609
 3280TIP3   OH231254   2.283   1.040   2.170 -0.1335 -0.1099 -0.1522
 3280TIP3    H131255   2.298   0.953   2.207  1.4700  0.2428  0.0997
 3280TIP3    H231256   2.237   1.023   2.088 -1.6684 -1.0430  0.8533
 3281TIP3   OH231257   6.290   2.735   5.515  0.1472  0.3474 -0.2106
 3281TIP3    H131258   6.310   2.814   5.565  0.4940  0.3893 -0.4103
 3281TIP3    H231259   6.376   2.696   5.496 -0.0486 -0.5486  0.6392
 3282TIP3   OH231260   0.641   4.692   2.737  0.8506  0.0965  0.2584
 3282TIP3    H131261   0.712   4.633   2.759  0.6662 -0.6931 -1.1732
 3282TIP3    H231262   0.641   4.697   2.642 -1.2708 -0.2827  0.1741
 3283TIP3   OH231263   5.334   2.448   6.209 -0.1529 -0.3080 -0.0593
 3283TIP3    H131264   5.324   2.356   6.233 -2.2256 -0.5145 -1.4751
 3283TIP3    H231265   5.426   2.468   6.229  0.1802 -2.4671  0.8905
 3284TIP3   OH231266   6.542   5.306  12.824 -0.6072 -0.3114  0.3516
 3284TIP3    H131267   6.590   5.384  12.797 -1.8621  0.7128  1.0015
 3284TIP3    H231268   6.594   5.268  12.895  0.4711 -0.5981 -0.5699
 3285TIP3   OH231269   4.113   0.809  15.006 -0.0120  0.2182 -0.4241
 3285TIP3    H131270   4.161   0.787  15.086 -1.4697 -1.8874 -0.0462
 3285TIP3    H231271   4.022   0.822  15.035 -0.6579 -1.0379 -1.7485
 3286TIP3   OH231272   1.909   1.643   2.670 -0.3252 -0.3021 -0.1881
 3286TIP3    H131273   1.821   1.615   2.643 -0.5114 -0.7961  0.8685
 3286TIP3    H231274   1.955   1.661   2.588 -0.9771 -1.3818 -0.8159
 3287TIP3   OH231275   3.329   2.765   1.852 -0.1571  0.5753  0.1717
 3287TIP3    H131276   3.286   2.841   1.890 -1.4360  1.1662 -2.2375
 3287TIP3    H231277   3.335   2.785   1.759  0.2881 -1.8869 -0.4036
 3288TIP3   OH231278   5.618   2.274   3.175  0.5169 -0.0617  0.6418
 3288TIP3    H131279   5.626   2.369   3.183  1.2592 -0.1505  1.0695
 3288TIP3    H231280   5.618   2.242   3.265 -0.9494 -0.3920  0.5467
 3289TIP3   OH231281   2.532   2.209  13.636 -0.1363  0.2300 -0.3624
 3289TIP3    H131282   2.511   2.172  13.550  0.4896 -0.0124 -0.4173
 3289TIP3    H231283   2.519   2.303  13.626 -0.7793  0.1284 -0.5087
 3290TIP3   OH231284   2.135   4.441   0.855  0.2815  0.1381 -0.0521
 3290TIP3    H131285   2.133   4.373   0.923  1.9330 -0.0635 -0.1728
 3290TIP3    H231286   2.089   4.515   0.894 -2.1502 -1.2118 -0.1545
 3291TIP3   OH231287   1.596   2.787  16.521  0.1734  0.2580 -0.0522
 3291TIP3    H131288   1.576   2.739  16.602 -1.0582 -0.8750 -0.9792
 3291TIP3    H231289   1.581   2.723  16.451  3.1777  0.5533 -1.1484
 3292TIP3   OH231290   4.707   5.286  11.932  0.5605 -0.0465  0.1178
 3292TIP3    H131291   4.616   5.291  11.960  0.2356 -0.1166 -0.8914
 3292TIP3    H231292   4.733   5.196  11.953  0.2601 -0.1626  0.0028
 3293TIP3   OH231293   6.655   4.363   1.490  0.5840 -0.0663 -0.0062
 3293TIP3    H131294   6.578   4.321   1.528  1.4856 -1.4825  0.3034
 3293TIP3    H231295   6.637   4.364   1.396  0.6835 -1.5011 -0.0617
 3294TIP3   OH231296   4.656   1.168  13.711  0.1723 -0.7257 -0.0022
 3294TIP3    H131297   4.605   1.101  13.758 -0.4350 -0.5206 -0.3509
 3294TIP3    H231298   4.604   1.248  13.721  0.1688 -0.6221 -0.7960
 3295TIP3   OH231299   3.154   5.063   0.942 -0.0579  0.0433 -0.4189
 3295TIP3    H131300   3.196   5.052   1.027 -1.5732  1.1345  0.5181
 3295TIP3    H231301   3.066   5.094   0.962  0.1675  2.2777 -2.4130
 3296TIP3   OH231302   2.992   3.936   2.284  0.1494  0.2925  0.5740
 3296TIP3    H131303   2.912   3.919   2.233 -0.2776 -2.6150  1.9620
 3296TIP3    H231304   2.960   3.973   2.366  0.3781  0.6030  0.5219
 3297TIP3   OH231305   5.768   5.966  12.550  0.3941 -0.7977 -0.1032
 3297TIP3    H131306   5.822   5.940  12.625 -1.3452 -1.4511  0.9907
 3297TIP3    H231307   5.728   6.049  12.578 -0.4967 -1.1943 -0.1626
 3298TIP3   OH231308   2.156   1.034   5.263  0.3640 -0.3944  1.3171
 3298TIP3    H131309   2.168   0.948   5.303  0.8933 -0.2914  1.3916
 3298TIP3    H231310   2.234   1.083   5.289  0.6711 -0.2905  0.2371
 3299TIP3   OH231311   3.618   6.184  13.191 -0.2614 -0.5781 -0.0727
 3299TIP3    H131312   3.676   6.122  13.147  1.9466  1.6209 -0.5603
 3299TIP3    H231313   3.660   6.199  13.276 -0.6364  0.3471 -0.0380
 3300TIP3   OH231314   1.559   4.565  16.910  0.1160  0.3285 -0.1503
 3300TIP3    H131315   1.618   4.527  16.975 -0.6954  0.6906  0.8124
 3300TIP3    H231316   1.542   4.493  16.849  0.4242 -0.1860  0.3559
 3301TIP3   OH231317   1.625   3.765  15.513 -0.3080  0.3610  0.1381
 3301TIP3    H131318   1.700   3.757  15.455 -0.0118  0.6070  0.4796
 3301TIP3    H231319   1.594   3.676  15.525 -0.6289  0.3416 -0.7205
 3302TIP3   OH231320   5.600   3.700  16.896 -0.3094 -0.2805 -0.7854
 3302TIP3    H131321   5.592   3.667  16.985 -0.2032  2.4007  0.2875
 3302TIP3    H231322   5.536   3.648  16.846 -0.7351 -1.4806  0.9092
 3303TIP3   OH231323   4.310   6.528  12.117 -1.0957 -0.8431 -0.2330
 3303TIP3    H131324   4.324   6.520  12.211 -0.4902 -3.1261 -0.4543
 3303TIP3    H231325   4.216   6.514  12.105 -1.4536  1.0020  0.1152
 3304TIP3   OH231326   4.987   5.718  14.510  0.2277 -0.7165  0.2809
 3304TIP3    H131327   5.057   5.772  14.546 -1.0004  0.9663  0.2478
 3304TIP3    H231328   4.949   5.770  14.439 -0.1418 -2.1979 -0.6533
 3305TIP3   OH231329   4.031   5.142  16.669  0.0120 -0.1062  0.4162
 3305TIP3    H131330   3.961   5.078  16.680  1.2480 -1.6328 -0.1362
 3305TIP3    H231331   4.015   5.182  16.584 -0.2243 -0.4137  0.3147
 3306TIP3   OH231332   4.332   0.659   4.402  0.5449  0.1984  0.4219
 3306TIP3    H131333   4.399   0.650   4.470  0.8017  0.3931  0.1944
 3306TIP3    H231334   4.357   0.595   4.335  2.1518  2.2504 -1.0218
 3307TIP3   OH231335   0.551   6.751   4.287 -0.0400  0.1867  0.0736
 3307TIP3    H131336   0.490   6.820   4.262  0.0587 -0.0630 -0.8762
 3307TIP3    H231337   0.594   6.784   4.366 -0.0582  1.1652 -0.3195
 3308TIP3   OH231338   5.995   4.542   0.134 -0.2471 -0.4098  0.7061
 3308TIP3    H131339   6.063   4.608   0.122 -0.5336 -0.2207  0.0827
 3308TIP3    H231340   6.042   4.467   0.172  0.4112 -0.4569 -0.1556
 3309TIP3   OH231341   5.210   2.709   1.768 -0.3091  0.5316 -0.7826
 3309TIP3    H131342   5.275   2.641   1.750 -0.3724  0.6558 -1.5120
 3309TIP3    H231343   5.221   2.771   1.696 -1.2405  0.5541 -0.9087
 3310TIP3   OH231344   5.225   3.989   4.123 -0.1837 -0.3302 -0.0742
 3310TIP3    H131345   5.241   4.048   4.049 -1.3401  0.1132  0.0131
 3310TIP3    H231346   5.237   3.902   4.086 -1.1197 -0.1297 -0.8900
 3311TIP3   OH231347   3.907   3.781   2.428  0.2430 -0.0536 -0.1767
 3311TIP3    H131348   3.936   3.872   2.428  1.5894 -0.4441  0.6733
 3311TIP3    H231349   3.912   3.755   2.520 -1.8405 -0.4875 -0.1421
 3312TIP3   OH231350   2.383   2.891  11.399 -0.2502 -0.1332 -0.4445
 3312TIP3    H131351   2.415   2.927  11.316 -0.8485  1.2606 -0.1006
 3312TIP3    H231352   2.309   2.946  11.422 -0.0439 -0.4454  1.0692
 3313TIP3   OH231353   5.732   1.967   2.166 -0.3967 -0.0090 -0.0336
 3313TIP3    H131354   5.820   1.949   2.199  0.1617  0.4383 -1.2229
 3313TIP3    H231355   5.710   2.053   2.201 -0.3731 -0.1336  0.2903
 3314TIP3   OH231356   6.787   0.746  14.983 -0.0731 -0.1901  0.2812
 3314TIP3    H131357   6.728   0.737  14.909 -1.2076  1.7251  0.9052
 3314TIP3    H231358   6.855   0.680  14.967 -0.9970 -0.7267 -1.7408
 3315TIP3   OH231359   1.061   5.473  13.409  0.2419 -0.3138  0.1633
 3315TIP3    H131360   1.111   5.525  13.471 -1.0315  0.9485  0.1966
 3315TIP3    H231361   1.015   5.538  13.356  0.9887 -1.3610 -1.8669
 3316TIP3   OH231362   5.186   3.537  17.110  0.2530  0.5516  0.2364
 3316TIP3    H131363   5.138   3.511  17.189 -0.2030 -0.7498 -0.4516
 3316TIP3    H231364   5.197   3.456  17.060  1.2943  1.2013 -0.6462
 3317TIP3   OH231365   3.237   3.888   4.383  0.0645  0.2128 -0.0689
 3317TIP3    H131366   3.209   3.797   4.378  0.5704  0.0497 -0.0013
 3317TIP3    H231367   3.280   3.896   4.468 -2.1007  1.1390  1.0141
 3318TIP3   OH231368   1.696   3.024   0.808  0.5535  0.1489 -0.2742
 3318TIP3    H131369   1.710   2.930   0.809 -0.0848  0.0505  0.2445
 3318TIP3    H231370   1.666   3.045   0.896 -0.0438  0.7160 -0.6029
 3319TIP3   OH231371   5.484   2.927  13.196 -0.7807  0.3369 -0.6480
 3319TIP3    H131372   5.440   2.945  13.112  1.7088  1.6646 -1.7744
 3319TIP3    H231373   5.512   2.836  13.190 -0.4514  0.4766 -1.3774
 3320TIP3   OH231374   6.182   1.021   1.446 -0.4214  0.2546  0.1724
 3320TIP3    H131375   6.255   0.978   1.402 -1.3741  0.2591 -1.5060
 3320TIP3    H231376   6.119   0.951   1.463 -0.4062  0.3907  0.8093
 3321TIP3   OH231377   2.662   1.551   5.812  0.3263 -0.4310 -0.4783
 3321TIP3    H131378   2.645   1.631   5.762 -2.5049 -1.1178 -0.7932
 3321TIP3    H231379   2.723   1.578   5.880  0.4874  1.6813 -1.3732
 3322TIP3   OH231380   5.897   2.453   5.692 -0.0381 -0.1091 -0.3037
 3322TIP3    H131381   5.918   2.383   5.753  1.4170 -1.4131 -2.1586
 3322TIP3    H231382   5.958   2.523   5.715  0.9724 -0.8506 -0.6537
 3323TIP3   OH231383   2.847   1.828   1.086  0.1095  0.0740  0.8262
 3323TIP3    H131384   2.943   1.837   1.084  0.1488 -0.3352  0.9433
 3323TIP3    H231385   2.823   1.814   0.995  0.5582 -3.9665  1.1705
 3324TIP3   OH231386   0.596   3.584   2.062  0.0040  0.0849  0.0661
 3324TIP3    H131387   0.687   3.559   2.044 -0.3610 -0.0390 -1.8423
 3324TIP3    H231388   0.544   3.511   2.027 -0.8321 -0.2225  1.8490
 3325TIP3   OH231389   6.241   0.527  11.559 -0.5208  0.3692 -0.4112
 3325TIP3    H131390   6.289   0.574  11.491 -1.1718  1.8636  0.1199
 3325TIP3    H231391   6.307   0.473  11.602 -0.1984 -1.0884 -2.5784
 3326TIP3   OH231392   4.419   4.525   6.680  0.1015  0.0272  0.3880
 3326TIP3    H131393   4.343   4.508   6.625  1.0166  1.0626 -1.2690
 3326TIP3    H231394   4.421   4.452   6.742 -0.9923 -1.1592 -0.9216
 3327TIP3   OH231395   5.700   6.159  14.870 -0.3355 -0.4507  0.1075
 3327TIP3    H131396   5.762   6.099  14.910 -0.6747 -0.2753  0.9280
 3327TIP3    H231397   5.709   6.240  14.921  0.3648  0.3225 -1.2029
 3328TIP3   OH231398   3.210   4.960   2.357 -0.0480  0.0741  1.1550
 3328TIP3    H131399   3.221   5.050   2.388  2.1398  1.3817 -2.7787
 3328TIP3    H231400   3.135   4.964   2.298  0.6784 -0.3833  0.1739
 3329TIP3   OH231401   0.645   2.034   5.175 -0.0440  0.0084  0.2735
 3329TIP3    H131402   0.714   2.065   5.234  0.5803  1.7261 -1.2529
 3329TIP3    H231403   0.619   1.949   5.211  3.7987 -1.3837  0.1974
 3330TIP3   OH231404   4.614   4.754  14.523  0.4643  0.0842 -0.1756
 3330TIP3    H131405   4.646   4.841  14.550  0.5392  0.3070 -0.9709
 3330TIP3    H231406   4.636   4.697  14.597  2.7723  0.2039 -0.6958
 3331TIP3   OH231407   0.683   5.749   6.075  0.7016  0.0835 -0.3100
 3331TIP3    H131408   0.728   5.834   6.075 -0.3070  0.6539  0.4908
 3331TIP3    H231409   0.706   5.710   6.159 -0.0251  0.2425 -0.0297
 3332TIP3   OH231410   3.309   6.346  10.690 -0.0458  0.0273  0.3674
 3332TIP3    H131411   3.327   6.357  10.596  0.7757  1.2145  0.6464
 3332TIP3    H231412   3.395   6.329  10.729  0.0393  2.1935  1.2412
 3333TIP3   OH231413   0.078   4.353   1.115  0.8921 -0.0148 -0.1162
 3333TIP3    H131414   0.154   4.332   1.169  1.7685 -0.4932 -1.4670
 3333TIP3    H231415   0.052   4.441   1.142  0.1522 -0.8907  2.3091
 3334TIP3   OH231416   2.031   0.519  13.403  0.4892  0.3289  0.0240
 3334TIP3    H131417   2.033   0.447  13.340  0.3465  0.1682  0.2023
 3334TIP3    H231418   2.083   0.588  13.362  2.6763 -0.7267  0.8960
 3335TIP3   OH231419   2.117   3.103  13.877 -0.2191  0.3717 -0.1571
 3335TIP3    H131420   2.069   3.035  13.830  1.9337  0.6471 -3.0035
 3335TIP3    H231421   2.206   3.070  13.883  0.4322  2.1145  0.2195
 3336TIP3   OH231422   5.998   4.296  14.631  0.0073  0.1512  0.4123
 3336TIP3    H131423   6.043   4.346  14.699 -1.3050 -0.9547  2.1524
 3336TIP3    H231424   5.916   4.343  14.616 -0.5608 -0.6253  0.9935
 3337TIP3   OH231425   3.678   5.545  17.107 -0.0539  0.2661 -0.2390
 3337TIP3    H131426   3.763   5.583  17.086  0.1504  0.5123  0.9646
 3337TIP3    H231427   3.693   5.450  17.102  0.2866  0.3075 -0.0754
 3338TIP3   OH231428   4.598   2.563   3.789 -0.0841  0.4803 -0.2440
 3338TIP3    H131429   4.670   2.574   3.727 -1.6362  1.2445 -2.0244
 3338TIP3    H231430   4.548   2.644   3.783 -1.2814 -0.1512  0.6819
 3339TIP3   OH231431   2.200   0.907  16.220 -0.2515  0.3821 -0.1185
 3339TIP3    H131432   2.224   0.985  16.271 -1.1288 -0.1376  1.1289
 3339TIP3    H231433   2.122   0.934  16.171 -2.3076 -0.4693  2.4682
 3340TIP3   OH231434   4.299   0.375  16.408 -0.0636 -0.2535 -0.1037
 3340TIP3    H131435   4.351   0.448  16.442  0.6718 -0.5343 -0.5900
 3340TIP3    H231436   4.239   0.354  16.479  0.0064  0.5408  0.2088
 3341TIP3   OH231437   3.940   3.048   0.484  0.0007 -0.2080  0.1665
 3341TIP3    H131438   4.031   3.062   0.508  0.3986 -0.1093 -1.2901
 3341TIP3    H231439   3.927   3.102   0.405 -1.2373 -0.4246  0.1898
 3342TIP3   OH231440   0.535   1.460  11.625 -0.1676 -0.2174  0.6686
 3342TIP3    H131441   0.544   1.365  11.634 -0.8936 -0.2361  1.2680
 3342TIP3    H231442   0.586   1.496  11.697  0.6453 -0.1228  0.0593
 3343TIP3   OH231443   5.931   5.558  17.166  0.0487  0.2045 -0.3598
 3343TIP3    H131444   5.866   5.515  17.111 -2.3203 -0.6027  2.7896
 3343TIP3    H231445   5.939   5.646  17.129 -2.1596  0.0404 -1.3928
 3344TIP3   OH231446   3.272   0.978   4.678  0.6006  0.2769 -0.2179
 3344TIP3    H131447   3.253   1.046   4.614  0.3104 -0.8749 -1.4181
 3344TIP3    H231448   3.340   0.925   4.637  2.3784  1.0331  1.6061
 3345TIP3   OH231449   5.998   3.267   5.876  0.2701 -0.3304  0.3755
 3345TIP3    H131450   6.007   3.278   5.782  1.5231 -2.2489  0.2116
 3345TIP3    H231451   6.087   3.250   5.906 -0.2525 -0.7545  1.7603
 3346TIP3   OH231452   5.277   3.303   2.942  0.5092  0.3043 -0.0152
 3346TIP3    H131453   5.314   3.274   3.026  1.9968  0.2955 -0.6439
 3346TIP3    H231454   5.285   3.398   2.945  1.0186  0.2752 -0.3359
 3347TIP3   OH231455   3.900   6.412   2.659  0.0771  0.1781 -0.2436
 3347TIP3    H131456   3.901   6.446   2.748  0.8115  0.4608 -0.3498
 3347TIP3    H231457   3.819   6.445   2.621 -1.0492 -1.2329  0.7955
 3348TIP3   OH231458   0.096   2.920  15.041 -0.1457  0.7779 -0.2686
 3348TIP3    H131459   0.070   2.981  15.110 -0.5698  1.5707 -1.1064
 3348TIP3    H231460   0.135   2.846  15.088 -0.9492  1.0348  0.8455
 3349TIP3   OH231461   0.539   5.574  11.492  0.2916 -0.1630 -0.2102
 3349TIP3    H131462   0.598   5.549  11.421 -0.0551 -2.5087  0.2432
 3349TIP3    H231463   0.453   5.544  11.464  0.2754 -1.9151  1.4767
 3350TIP3   OH231464   4.802   2.065  15.496 -0.3225 -0.1659 -1.1440
 3350TIP3    H131465   4.850   2.121  15.556 -0.0958 -0.9158 -0.6224
 3350TIP3    H231466   4.729   2.120  15.466 -1.1508 -0.1687  0.7537
 3351TIP3   OH231467   3.839   6.165   2.903  0.4666  0.2976  0.0262
 3351TIP3    H131468   3.754   6.168   2.858 -0.0199 -0.0792  0.8860
 3351TIP3    H231469   3.902   6.142   2.835 -0.1616  0.3202 -0.5750
 3352TIP3   OH231470   5.371   3.207   3.172  0.0935 -0.6101 -0.0949
 3352TIP3    H131471   5.303   3.211   3.239 -0.8682 -0.9657 -1.0216
 3352TIP3    H231472   5.450   3.238   3.216 -0.8564  0.6862  0.7436
 3353TIP3   OH231473   3.049   0.367   1.987  0.1369  0.0336  0.0263
 3353TIP3    H131474   2.976   0.324   1.943  0.6278 -0.3182 -0.4647
 3353TIP3    H231475   3.065   0.315   2.065 -0.6641  0.5923  0.5816
 3354TIP3   OH231476   6.017   1.053   3.252 -0.0802  0.3213 -0.0102
 3354TIP3    H131477   5.931   1.083   3.280 -1.2209  0.0105 -2.8427
 3354TIP3    H231478   6.057   1.129   3.211 -0.2371 -0.2499 -1.2700
 3355TIP3   OH231479   4.134   0.804   1.497  0.3822 -0.2481 -0.3701
 3355TIP3    H131480   4.160   0.895   1.485  1.0912 -0.1676  1.5044
 3355TIP3    H231481   4.050   0.797   1.452 -0.1715  1.5932  0.2922
 3356TIP3   OH231482   4.914   0.143   2.067  0.1039 -0.6128 -0.1162
 3356TIP3    H131483   4.821   0.120   2.061 -0.6381  1.8146  1.0750
 3356TIP3    H231484   4.952   0.105   1.988 -2.0902 -0.8324 -1.1647
 3357TIP3   OH231485   6.394   3.047  16.697 -0.4567  0.1203  0.3671
 3357TIP3    H131486   6.463   3.076  16.637  0.2464 -0.2052  0.9931
 3357TIP3    H231487   6.316   3.039  16.642  0.3899 -1.1188 -0.7401
 3358TIP3   OH231488   6.296   4.070  13.201  0.0524 -0.6296 -0.0456
 3358TIP3    H131489   6.267   4.159  13.221 -0.3734 -1.1094  1.6264
 3358TIP3    H231490   6.218   4.016  13.210  0.3771 -1.2388 -0.7352
 3359TIP3   OH231491   5.271   3.072  12.466  0.4482  0.2845  0.2636
 3359TIP3    H131492   5.193   3.019  12.451  0.1933  0.2737  1.5325
 3359TIP3    H231493   5.331   3.014  12.513  0.5000  0.8497  0.9064
 3360TIP3   OH231494   4.434   5.687   4.311  0.5021 -0.4257 -0.1682
 3360TIP3    H131495   4.386   5.761   4.351 -1.7815 -2.4464  1.0992
 3360TIP3    H231496   4.409   5.690   4.219 -0.2346 -0.0911  0.0316
 3361TIP3   OH231497   2.256   5.231   1.874  0.1539 -0.6565 -0.3695
 3361TIP3    H131498   2.231   5.303   1.931 -2.2103 -0.8354 -1.1019
 3361TIP3    H231499   2.320   5.182   1.925 -0.0471  0.5533  1.1275
 3362TIP3   OH231500   6.034   5.067  11.494 -0.2276  0.0347 -0.1069
 3362TIP3    H131501   5.984   5.072  11.576  0.8440  0.2835  0.5569
 3362TIP3    H231502   5.981   5.116  11.431 -0.5356  0.8203  0.7341
 3363TIP3   OH231503   2.952   2.784   6.165 -0.1947  0.3394 -0.3601
 3363TIP3    H131504   3.038   2.775   6.208 -0.9399 -0.4760  1.0353
 3363TIP3    H231505   2.971   2.774   6.072  1.1347 -0.5782 -0.0231
 3364TIP3   OH231506   3.200   3.535  16.207 -0.4376  0.2237  0.3698
 3364TIP3    H131507   3.115   3.506  16.241 -0.7955 -0.4192 -0.9896
 3364TIP3    H231508   3.178   3.588  16.130  0.4145 -1.0621 -0.7966
 3365TIP3   OH231509   0.342   0.855   6.750  0.3597 -0.3824  0.3204
 3365TIP3    H131510   0.429   0.871   6.716  0.2181  0.4467  0.3163
 3365TIP3    H231511   0.316   0.939   6.789 -0.5058 -0.5575  0.1467
 3366TIP3   OH231512   4.942   6.124  13.525  0.4075  0.4424 -0.2065
 3366TIP3    H131513   5.022   6.107  13.476  0.9816 -1.3752  1.2470
 3366TIP3    H231514   4.880   6.057  13.497  0.1729  0.4299  0.3102
 3367TIP3   OH231515   2.996   1.273  12.627  0.2623  0.0082  0.7920
 3367TIP3    H131516   3.003   1.337  12.556  2.1045  1.3781  2.1053
 3367TIP3    H231517   2.952   1.198  12.588 -3.2627  2.4661 -0.5734
 3368TIP3   OH231518   0.984   6.581  16.104 -0.0710  0.0266 -0.0961
 3368TIP3    H131519   0.956   6.626  16.024  1.0964 -1.5449 -1.4573
 3368TIP3    H231520   0.959   6.640  16.175 -3.6627  0.2646 -1.3781
 3369TIP3   OH231521   3.421   4.332   0.940  0.2248 -0.3458  0.0987
 3369TIP3    H131522   3.506   4.296   0.914 -1.1601 -1.9304 -2.6485
 3369TIP3    H231523   3.376   4.260   0.982 -0.6784 -0.2980 -0.7621
 3370TIP3   OH231524   2.015   6.407  15.881 -0.0746 -0.1506 -0.6624
 3370TIP3    H131525   2.081   6.340  15.859  0.9994  0.0153  1.7396
 3370TIP3    H231526   1.974   6.374  15.961  0.7402  2.1939  0.8114
 3371TIP3   OH231527   5.215   4.343   3.722  0.0156  0.1151  0.2186
 3371TIP3    H131528   5.120   4.328   3.718 -0.2785  1.8536 -0.0262
 3371TIP3    H231529   5.233   4.398   3.646  1.0732  0.5838  0.7938
 3372TIP3   OH231530   4.346   5.377  12.629 -0.2418 -0.0981 -0.3357
 3372TIP3    H131531   4.357   5.344  12.541  0.3763  1.2424 -0.7961
 3372TIP3    H231532   4.435   5.392  12.661 -0.4703 -0.0530  0.3105
 3373TIP3   OH231533   4.481   0.855   0.261 -0.4393  0.9006  0.6495
 3373TIP3    H131534   4.433   0.782   0.301 -0.1247  1.1370  1.4679
 3373TIP3    H231535   4.538   0.813   0.196 -1.6544  0.5999 -0.2682
 3374TIP3   OH231536   3.257   0.449  13.623 -0.0775 -0.1916  0.1533
 3374TIP3    H131537   3.254   0.510  13.549  2.0107  0.5560  0.6125
 3374TIP3    H231538   3.196   0.379  13.599  2.1538 -1.1816 -3.4019
 3375TIP3   OH231539   4.355   5.917  16.738  0.3174 -0.5129  0.4134
 3375TIP3    H131540   4.382   5.899  16.648  0.9202  0.4589  0.3881
 3375TIP3    H231541   4.269   5.875  16.746 -0.7094  1.1235 -1.2726
 3376TIP3   OH231542   6.345   1.664  14.772 -0.3895  0.2490 -0.1266
 3376TIP3    H131543   6.334   1.571  14.753  2.1044  0.1495 -1.4405
 3376TIP3    H231544   6.277   1.707  14.720  0.1369 -0.6907 -1.6493
 3377TIP3   OH231545   6.554   4.822   1.496  0.9615  0.1298 -0.0784
 3377TIP3    H131546   6.538   4.820   1.591 -1.2664 -1.1862 -0.4222
 3377TIP3    H231547   6.469   4.803   1.457  2.1073 -0.6219 -2.3383
 3378TIP3   OH231548   3.909   3.847  13.117 -0.0985  0.7298 -0.2501
 3378TIP3    H131549   3.968   3.905  13.165  0.0075  0.3507  0.0887
 3378TIP3    H231550   3.965   3.774  13.088  0.4323  2.1588 -3.2162
 3379TIP3   OH231551   0.064   6.300  16.034  0.2190  0.0328  0.0001
 3379TIP3    H131552   0.116   6.335  15.962 -1.2901  1.3832 -0.4886
 3379TIP3    H231553   0.042   6.211  16.006  0.0018  0.3938 -1.0358
 3380TIP3   OH231554   3.537   1.070   3.030  0.2189 -0.1219  0.0810
 3380TIP3    H131555   3.457   1.065   3.083 -1.6503  1.6281 -2.2958
 3380TIP3    H231556   3.575   0.982   3.036 -1.9669 -1.0894  1.2164
 3381TIP3   OH231557   1.967   6.378  15.593 -0.4452 -0.4651 -0.3422
 3381TIP3    H131558   1.902   6.438  15.559 -1.0605 -0.8143  0.1783
 3381TIP3    H231559   1.934   6.354  15.680  1.1955  0.6126  0.6399
 3382TIP3   OH231560   6.009   5.385  12.540  0.3464 -0.1141  0.3014
 3382TIP3    H131561   5.920   5.383  12.576 -0.4260 -0.6513 -1.4924
 3382TIP3    H231562   6.061   5.331  12.599 -0.4854  0.3037  1.4508
 3383TIP3   OH231563   6.248   2.106  15.184 -0.2321  0.3657  0.1927
 3383TIP3    H131564   6.340   2.116  15.206 -0.4397  1.0098  0.8182
 3383TIP3    H231565   6.239   2.146  15.097  0.1802 -0.2098 -0.1146
 3384TIP3   OH231566   2.016   2.287   5.496  0.1978  0.0160 -0.0721
 3384TIP3    H131567   2.023   2.211   5.554  0.3073 -0.5313 -0.8033
 3384TIP3    H231568   1.923   2.312   5.500  0.2481  0.1414  0.5259
 3385TIP3   OH231569   2.113   5.054   2.259  0.7337  0.3501 -0.0938
 3385TIP3    H131570   2.154   5.140   2.267  0.8485  0.3115 -0.2650
 3385TIP3    H231571   2.099   5.025   2.349  0.0497  0.8564 -0.0276
 3386TIP3   OH231572   5.186   5.169  15.979  0.0692  0.3522  0.5894
 3386TIP3    H131573   5.228   5.150  16.062  0.0172  1.0710  0.7850
 3386TIP3    H231574   5.139   5.252  15.993  1.7060  1.5869 -0.7000
 3387TIP3   OH231575   3.543   1.048   2.585  0.4431  0.1208 -0.3772
 3387TIP3    H131576   3.506   0.969   2.546 -1.4456 -0.7058  2.7279
 3387TIP3    H231577   3.638   1.032   2.585  0.5112 -0.1839 -3.5390
 3388TIP3   OH231578   5.853   1.732  11.488 -0.2906 -0.1472 -0.1366
 3388TIP3    H131579   5.839   1.816  11.530  1.0925  0.0721 -0.0922
 3388TIP3    H231580   5.936   1.700  11.523 -1.1712 -1.9273  0.4749
 3389TIP3   OH231581   2.117   4.082   2.247 -0.7285  0.1151 -0.6282
 3389TIP3    H131582   2.108   4.020   2.319  0.8688  0.5283 -0.0327
 3389TIP3    H231583   2.090   4.032   2.169  0.0043 -1.1754 -0.0917
 3390TIP3   OH231584   1.990   4.212   1.928 -0.0038  0.0750 -0.4199
 3390TIP3    H131585   2.078   4.239   1.956 -0.0089 -0.1289 -0.2044
 3390TIP3    H231586   1.969   4.138   1.984 -0.9806  1.1278  0.6547
 3391TIP3   OH231587   5.040   6.203   1.650 -0.1868 -0.5324 -0.0804
 3391TIP3    H131588   5.096   6.198   1.573  0.4689 -0.3094  0.3763
 3391TIP3    H231589   4.955   6.168   1.620  0.5734 -2.1742 -0.4212
 3392TIP3   OH231590   1.960   3.424   5.503  0.1586  0.2187 -0.7768
 3392TIP3    H131591   2.030   3.430   5.437  0.6151  1.0441 -0.2400
 3392TIP3    H231592   1.962   3.332   5.531  0.6429  0.0965 -1.1815
 3393TIP3   OH231593   2.075   0.059  10.600 -0.2583 -0.6501 -0.3122
 3393TIP3    H131594   2.135   0.134  10.595  1.0339 -1.6972 -1.5483
 3393TIP3    H231595   2.013   0.083  10.668  1.3196  0.6725  0.7537
 3394TIP3   OH231596   3.871   3.374   0.813 -0.4313 -0.3504  0.9518
 3394TIP3    H131597   3.831   3.293   0.783 -0.5560 -0.1679  0.6151
 3394TIP3    H231598   3.909   3.413   0.734 -2.1553  0.9354  0.6631
 3395TIP3   OH231599   1.510   6.700   1.524 -0.1062  0.1174 -0.0389
 3395TIP3    H131600   1.519   6.629   1.588  2.1412 -0.9005 -1.3776
 3395TIP3    H231601   1.488   6.777   1.577  2.5417 -0.4628  2.1584
 3396TIP3   OH231602   4.595   0.034  16.172 -0.5970 -0.2232  0.0185
 3396TIP3    H131603   4.505   0.017  16.145 -0.2517 -0.7045 -0.8858
 3396TIP3    H231604   4.642  -0.046  16.149  0.2034  0.2934 -0.1847
 3397TIP3   OH231605   1.248   2.158  14.045 -0.1147 -0.2634 -0.3974
 3397TIP3    H131606   1.266   2.249  14.023  1.2275 -1.0336 -2.8186
 3397TIP3    H231607   1.156   2.146  14.023 -0.4229  0.5974  0.3615
 3398TIP3   OH231608   1.838   6.315   1.274 -0.1217  0.0725  0.2433
 3398TIP3    H131609   1.757   6.296   1.321 -1.6616  2.8248 -1.0769
 3398TIP3    H231610   1.900   6.341   1.342 -1.0774  0.2469  1.0656
 3399TIP3   OH231611   0.306   0.557   4.566 -0.0626  0.4225  0.5637
 3399TIP3    H131612   0.387   0.568   4.617  1.3489 -0.5464 -1.3434
 3399TIP3    H231613   0.328   0.591   4.479 -2.9106  3.5692  0.8858
 3400TIP3   OH231614   2.599   6.783   1.954 -0.5307 -0.6076 -0.0745
 3400TIP3    H131615   2.677   6.837   1.959  0.2055 -1.6439  0.0421
 3400TIP3    H231616   2.536   6.826   2.011 -0.2910  0.6067 -0.6789
 3401TIP3   OH231617   1.081   3.669   5.494 -0.0889 -0.5182  0.1676
 3401TIP3    H131618   1.120   3.669   5.406  0.4931 -3.6222  0.3086
 3401TIP3    H231619   1.009   3.607   5.488 -0.1377 -0.6530  1.8439
 3402TIP3   OH231620   6.550   1.635   1.980 -0.2457 -0.1971  0.4885
 3402TIP3    H131621   6.517   1.546   1.988 -1.1740  0.2273  1.5969
 3402TIP3    H231622   6.478   1.684   1.941  0.0687  0.1821  0.3754
 3403TIP3   OH231623   6.272   5.260  10.625 -0.2549 -0.3542  0.2592
 3403TIP3    H131624   6.298   5.349  10.601  0.5871  0.2642  3.0533
 3403TIP3    H231625   6.331   5.204  10.575 -0.9522  0.6184 -1.7197
 3404TIP3   OH231626   6.276   1.769  14.294  0.4963 -0.3018 -0.0905
 3404TIP3    H131627   6.331   1.800  14.222  1.1529  0.3887  0.6867
 3404TIP3    H231628   6.249   1.681  14.267  0.8695 -0.1233 -1.0971
 3405TIP3   OH231629   5.873   6.190   0.584 -0.5237 -0.1026  0.0506
 3405TIP3    H131630   5.964   6.199   0.559 -0.6716  1.2193 -0.0832
 3405TIP3    H231631   5.875   6.135   0.662  0.3601 -0.2278 -0.0498
 3406TIP3   OH231632   5.556   3.558  16.508 -0.0450  0.8045  0.5979
 3406TIP3    H131633   5.589   3.566  16.418 -0.6833  0.2773  0.3127
 3406TIP3    H231634   5.465   3.588  16.502  0.0776  1.3033  1.1837
 3407TIP3   OH231635   1.108   5.040  13.148  0.0952 -0.0274 -0.0102
 3407TIP3    H131636   1.090   5.083  13.231  1.9332 -0.5771  0.7295
 3407TIP3    H231637   1.071   4.952  13.157  1.2056 -0.4494  0.6828
 3408TIP3   OH231638   5.752   5.741  14.733  0.0186  0.0802 -0.0904
 3408TIP3    H131639   5.720   5.650  14.735  1.2819 -0.4026  2.4013
 3408TIP3    H231640   5.674   5.794  14.717 -0.6901 -1.4032 -2.0085
 3409TIP3   OH231641   3.081   6.399   1.378 -0.4306 -0.0178 -0.8757
 3409TIP3    H131642   3.175   6.403   1.399  0.2191 -3.4003 -2.2805
 3409TIP3    H231643   3.078   6.411   1.283 -1.1934 -1.2059 -1.0279
 3410TIP3   OH231644   6.350   1.130  13.106  0.5179 -0.3597 -0.6020
 3410TIP3    H131645   6.358   1.127  13.011 -0.3525  2.8255 -0.9173
 3410TIP3    H231646   6.264   1.170  13.121  0.4735 -1.1399  1.5530
 3411TIP3   OH231647   5.387   5.818   3.091  0.7126  0.3174 -0.0081
 3411TIP3    H131648   5.413   5.756   3.023  0.5584  0.2771 -0.0303
 3411TIP3    H231649   5.333   5.883   3.045  0.4216  0.1656  0.1189
 3412TIP3   OH231650   3.273   5.322  13.667 -0.0847  0.1725 -0.2464
 3412TIP3    H131651   3.182   5.291  13.664 -0.1024  0.1795  0.1710
 3412TIP3    H231652   3.273   5.390  13.734  0.1804  0.3391 -0.4152
 3413TIP3   OH231653   4.635   1.717   3.017  0.1512  0.3348 -0.9133
 3413TIP3    H131654   4.677   1.631   3.005  0.4237  0.1923  0.8426
 3413TIP3    H231655   4.695   1.778   2.974  0.0075 -0.3139 -2.0975
 3414TIP3   OH231656   6.708   5.052  12.588 -0.1491 -0.0307 -0.2475
 3414TIP3    H131657   6.687   4.967  12.625 -0.7089  0.3602  0.3694
 3414TIP3    H231658   6.766   5.093  12.652 -1.6022  0.8874  0.5280
 3415TIP3   OH231659   2.083   5.964   4.144  0.4233  0.2807 -0.2062
 3415TIP3    H131660   2.170   5.974   4.183  0.2590  2.1154 -0.2048
 3415TIP3    H231661   2.096   5.985   4.051 -0.0172  0.7084 -0.1780
 3416TIP3   OH231662   3.020   5.370   4.760  0.8216 -0.0015  0.2088
 3416TIP3    H131663   3.053   5.460   4.764  0.1353  0.3922 -1.9665
 3416TIP3    H231664   3.011   5.344   4.852  0.1200  2.4861  0.9148
 3417TIP3   OH231665   6.240   5.231   5.627 -0.7963  0.0433 -0.4843
 3417TIP3    H131666   6.164   5.243   5.570 -0.2945  0.8635 -1.0029
 3417TIP3    H231667   6.286   5.314   5.623 -0.6787  0.0920  1.0458
 3418TIP3   OH231668   3.703   4.243  17.172  0.6410 -0.0839  0.0852
 3418TIP3    H131669   3.619   4.273  17.206  0.2227 -0.0248 -0.9757
 3418TIP3    H231670   3.681   4.174  17.110  1.4904 -1.3498  1.1309
 3419TIP3   OH231671   3.313   4.506  11.974 -0.0450 -0.0433 -0.0155
 3419TIP3    H131672   3.406   4.497  11.951 -0.4097 -2.6402 -0.7610
 3419TIP3    H231673   3.277   4.562  11.905  0.9478  1.0089  0.2934
 3420TIP3   OH231674   1.465   2.245   4.775 -0.7017  0.0484 -0.4180
 3420TIP3    H131675   1.557   2.244   4.752 -0.9957 -0.1227 -1.6421
 3420TIP3    H231676   1.462   2.212   4.865  0.3987 -0.2049 -0.4694
 3421TIP3   OH231677   6.722   3.709   1.297 -0.6521 -0.2031  0.0938
 3421TIP3    H131678   6.759   3.771   1.234 -2.4051 -1.0565 -1.9250
 3421TIP3    H231679   6.798   3.666   1.335  0.5130  0.6272 -1.1819
 3422TIP3   OH231680   3.815   2.119   4.798 -0.4780 -0.4135  0.1809
 3422TIP3    H131681   3.722   2.132   4.819 -0.5531 -1.5969  0.6741
 3422TIP3    H231682   3.861   2.145   4.877 -0.2477  1.5742 -0.5478
 3423TIP3   OH231683   3.108   1.041   1.419  0.0611  0.0748 -0.0960
 3423TIP3    H131684   3.117   1.137   1.417 -0.3001  0.1038 -1.9962
 3423TIP3    H231685   3.186   1.009   1.374 -0.6608 -0.4364 -1.0135
 3424TIP3   OH231686   4.187   3.585  11.343 -0.3364 -0.3723  0.1123
 3424TIP3    H131687   4.176   3.640  11.421 -1.3063  0.3812 -0.5419
 3424TIP3    H231688   4.115   3.610  11.285 -1.1737 -2.7887  0.0394
 3425TIP3   OH231689   0.688   3.322   3.275  0.0059  0.1434 -0.1417
 3425TIP3    H131690   0.772   3.294   3.313  0.0707  0.6006  0.0516
 3425TIP3    H231691   0.674   3.410   3.310 -0.5667  0.0603 -0.1583
 3426TIP3   OH231692   6.026   2.396   4.137 -0.0665 -0.1464  0.3701
 3426TIP3    H131693   6.018   2.301   4.132  0.6642 -0.1602 -1.1466
 3426TIP3    H231694   6.096   2.411   4.201  1.5385 -0.7593 -1.1683
 3427TIP3   OH231695   0.963   0.272  12.266 -0.5433 -0.5077 -0.7948
 3427TIP3    H131696   1.031   0.292  12.201 -0.8636  0.2766 -0.8951
 3427TIP3    H231697   0.912   0.353  12.273  0.3106 -0.0948  1.4433
 3428TIP3   OH231698   4.220   1.255  16.692 -0.2602 -0.5853  0.2502
 3428TIP3    H131699   4.192   1.168  16.720 -0.4880 -0.1970  1.2744
 3428TIP3    H231700   4.291   1.278  16.753  0.1643 -0.2807 -0.3559
 3429TIP3   OH231701   2.722   1.762   4.691 -0.4466  0.0230 -0.4772
 3429TIP3    H131702   2.697   1.719   4.773 -0.5627  1.0860  0.0727
 3429TIP3    H231703   2.747   1.691   4.633  0.6890 -0.7259  0.8334
 3430TIP3   OH231704   2.951   0.710  15.580 -0.8221 -0.1257 -0.5084
 3430TIP3    H131705   2.881   0.654  15.611 -1.5589  1.2405  0.3868
 3430TIP3    H231706   2.908   0.792  15.555  0.2022  0.0301 -1.8835
 3431TIP3   OH231707   0.600   3.685   1.399 -0.3065  0.3855 -0.3930
 3431TIP3    H131708   0.693   3.698   1.383  0.4249 -1.5570  1.6563
 3431TIP3    H231709   0.565   3.656   1.314  0.7717  1.7877 -1.3568
 3432TIP3   OH231710   1.325   3.201   0.298 -0.0695  0.0596  0.1675
 3432TIP3    H131711   1.413   3.211   0.263 -0.4577 -1.7642 -1.5084
 3432TIP3    H231712   1.272   3.262   0.246 -0.3212 -1.2572 -1.1662
 3433TIP3   OH231713   0.126   4.309  15.509  0.1731  0.3150  0.0728
 3433TIP3    H131714   0.053   4.343  15.561 -0.6048  0.1680 -0.8918
 3433TIP3    H231715   0.135   4.218  15.538 -1.3165 -0.2671 -1.1114
 3434TIP3   OH231716   3.950   6.124  12.829 -0.1654  0.1120 -0.4946
 3434TIP3    H131717   3.865   6.113  12.787  0.1336 -0.1371 -1.0538
 3434TIP3    H231718   3.961   6.046  12.883 -0.0502 -0.1385 -0.8704
 3435TIP3   OH231719   4.203   2.166  11.441  0.3766 -0.2707  0.1158
 3435TIP3    H131720   4.271   2.180  11.375  1.7666 -0.5653  1.4145
 3435TIP3    H231721   4.245   2.110  11.507 -1.2286 -0.6907  0.8314
 3436TIP3   OH231722   5.060   4.518   5.381 -0.2283 -0.5642 -0.0258
 3436TIP3    H131723   4.980   4.565   5.359  0.7954  1.2565 -0.0558
 3436TIP3    H231724   5.102   4.499   5.297 -0.3430 -0.9937  0.0126
 3437TIP3   OH231725   3.642   4.863   2.044 -0.1943 -0.4136 -0.3057
 3437TIP3    H131726   3.560   4.910   2.058 -0.4608 -1.0091  0.1991
 3437TIP3    H231727   3.696   4.923   1.992 -0.0282  0.9921  1.3836
 3438TIP3   OH231728   0.838   3.445  13.786 -0.1875  0.5268  0.1382
 3438TIP3    H131729   0.764   3.489  13.827 -0.6754 -1.0510  1.0375
 3438TIP3    H231730   0.913   3.501  13.804 -1.0336  1.8338 -0.2486
 3439TIP3   OH231731   4.462   5.348  10.739 -0.1110 -0.5144  0.0268
 3439TIP3    H131732   4.409   5.286  10.790 -0.1972 -1.5322 -1.2543
 3439TIP3    H231733   4.553   5.323  10.758 -0.0551  0.7656  1.6524
 3440TIP3   OH231734   2.838   3.334   0.116 -0.0182  0.6556 -0.1937
 3440TIP3    H131735   2.913   3.388   0.141 -0.2790 -0.1743  2.7149
 3440TIP3    H231736   2.877   3.251   0.089  0.1530  0.6316  0.1268
 3441TIP3   OH231737   3.795   2.955  11.082 -0.1195  0.4064 -0.3553
 3441TIP3    H131738   3.727   2.971  11.017  0.0931 -1.0331 -0.9700
 3441TIP3    H231739   3.815   2.862  11.073 -0.2530  0.0901  1.9350
 3442TIP3   OH231740   0.032   0.670  15.682 -0.1237  0.2142  0.3560
 3442TIP3    H131741   0.063   0.589  15.641  0.0525  0.1024  0.7043
 3442TIP3    H231742   0.088   0.681  15.760 -1.0946 -0.1058  1.1155
 3443TIP3   OH231743   5.541   2.643   5.835 -0.1962  0.0290  0.3669
 3443TIP3    H131744   5.572   2.561   5.796  0.3985 -0.4492  1.7733
 3443TIP3    H231745   5.617   2.675   5.884 -0.8772  0.6515  1.0279
 3444TIP3   OH231746   6.685   6.549   2.423 -0.4030  0.3195  0.1366
 3444TIP3    H131747   6.686   6.480   2.490  1.7032 -0.4515 -0.5937
 3444TIP3    H231748   6.732   6.510   2.349 -2.4597  1.2186 -1.7599
 3445TIP3   OH231749   2.189   3.933   5.128 -0.3739  0.5722 -0.0972
 3445TIP3    H131750   2.121   3.960   5.190 -0.5420  0.5779 -0.2819
 3445TIP3    H231751   2.241   4.012   5.114 -1.7539  1.2670 -1.7856
 3446TIP3   OH231752   5.770   1.122  14.387  0.9183 -0.3608  0.0673
 3446TIP3    H131753   5.796   1.212  14.406  1.1534 -0.4605  0.2259
 3446TIP3    H231754   5.677   1.127  14.367  1.4172  0.2658 -2.2975
 3447TIP3   OH231755   0.185   2.085  15.319 -0.0124 -0.6299  0.0864
 3447TIP3    H131756   0.125   2.150  15.281  0.0044 -0.0718  1.0031
 3447TIP3    H231757   0.209   2.121  15.404  1.2414 -1.0830 -0.0536
 3448TIP3   OH231758   6.601   6.514   0.122 -0.5793  0.0927 -0.0686
 3448TIP3    H131759   6.636   6.425   0.123  1.3238  0.8100  0.6581
 3448TIP3    H231760   6.551   6.519   0.040  0.8559 -1.0656 -1.0668
 3449TIP3   OH231761   4.552   5.451  15.196  0.0680  0.2611 -0.2342
 3449TIP3    H131762   4.612   5.384  15.163  0.0807 -0.3480  0.9856
 3449TIP3    H231763   4.516   5.492  15.117 -0.2625 -1.4771 -1.0231
 3450TIP3   OH231764   6.131   1.453   5.260  0.4047  0.3828 -0.4385
 3450TIP3    H131765   6.094   1.531   5.302 -1.6140 -1.1457  0.8441
 3450TIP3    H231766   6.225   1.468   5.260  0.1495  2.3837  0.6540
 3451TIP3   OH231767   0.803   3.034  15.987  0.7252  0.0600 -0.2873
 3451TIP3    H131768   0.728   3.094  15.990 -1.1141 -2.1671  0.6642
 3451TIP3    H231769   0.841   3.040  16.074 -0.3687 -1.2101  0.2968
 3452TIP3   OH231770   6.056   1.462  11.854 -0.7743 -0.2895 -0.3168
 3452TIP3    H131771   6.081   1.374  11.825 -1.8125 -0.8401  0.3995
 3452TIP3    H231772   6.092   1.469  11.942  0.5054  0.5505 -0.8871
 3453TIP3   OH231773   2.856   2.188   1.714 -0.4901  0.3402  0.2121
 3453TIP3    H131774   2.880   2.101   1.680 -0.3490 -0.5531  2.3859
 3453TIP3    H231775   2.797   2.224   1.648  0.0710 -1.0712 -1.1405
 3454TIP3   OH231776   0.202   2.173  12.653 -0.3749 -0.1564  0.3208
 3454TIP3    H131777   0.172   2.116  12.582 -0.8692  0.6554 -0.1375
 3454TIP3    H231778   0.274   2.125  12.694 -0.2926 -0.7703 -0.5299
 3455TIP3   OH231779   1.181   0.116  15.113 -0.0741  0.1135  0.1666
 3455TIP3    H131780   1.203   0.024  15.128 -0.2331 -0.0175 -0.3947
 3455TIP3    H231781   1.227   0.139  15.033 -2.2384 -0.2709 -1.2717
 3456TIP3   OH231782   3.317   6.496   3.160  0.2306  0.0573 -0.0100
 3456TIP3    H131783   3.270   6.535   3.234 -0.6352 -0.8947 -0.0308
 3456TIP3    H231784   3.344   6.571   3.107  0.3116  0.7195  0.9426
 3457TIP3   OH231785   2.265   2.950   3.502  0.1432  0.1284  0.3361
 3457TIP3    H131786   2.170   2.957   3.495  0.2159  0.1611 -0.6921
 3457TIP3    H231787   2.279   2.876   3.561 -0.5138  0.5456  1.0399
 3458TIP3   OH231788   1.705   5.543  11.693  0.1430  0.7660  0.0516
 3458TIP3    H131789   1.680   5.453  11.674 -1.3750  1.0290  0.6367
 3458TIP3    H231790   1.634   5.596  11.656  0.1697  1.6110  1.1461
 3459TIP3   OH231791   2.469   1.812   5.554  0.2834 -0.5753  0.4960
 3459TIP3    H131792   2.488   1.849   5.468 -0.1740 -1.4205  0.0199
 3459TIP3    H231793   2.555   1.790   5.591  0.5560  0.7684  0.7233
 3460TIP3   OH231794   2.378   2.560  15.623  0.1546  0.0570 -0.0214
 3460TIP3    H131795   2.318   2.631  15.602  1.2543  0.8072 -0.7221
 3460TIP3    H231796   2.465   2.598  15.614  0.9077 -1.9874 -2.9494
 3461TIP3   OH231797   4.879   0.742   1.184  0.0583 -0.0621  0.1658
 3461TIP3    H131798   4.912   0.831   1.180 -0.6577  0.1690 -1.8545
 3461TIP3    H231799   4.894   0.707   1.096 -1.8904 -1.0927  0.1818
 3462TIP3   OH231800   0.345   4.336   2.107 -0.0199  0.2946  0.5078
 3462TIP3    H131801   0.258   4.298   2.110 -0.0629  0.3961  0.5431
 3462TIP3    H231802   0.404   4.262   2.093 -0.2470  0.3904 -1.2432
 3463TIP3   OH231803   2.663   1.775   2.890 -0.6223 -0.4289 -0.6584
 3463TIP3    H131804   2.598   1.717   2.850 -1.0391  1.1502 -2.4278
 3463TIP3    H231805   2.644   1.773   2.983 -1.4126 -2.1417 -0.8202
 3464TIP3   OH231806   2.407   2.347  11.809  0.4818 -0.2368  0.1956
 3464TIP3    H131807   2.431   2.273  11.865 -0.3546 -1.6702 -1.2468
 3464TIP3    H231808   2.479   2.354  11.746  0.9739  0.7684  0.8460
 3465TIP3   OH231809   2.031   2.454  12.960  0.1854  0.4610  0.0964
 3465TIP3    H131810   2.069   2.536  12.928 -1.6244  1.7257  1.0294
 3465TIP3    H231811   2.105   2.395  12.967  1.3987  1.6731 -1.5974
 3466TIP3   OH231812   2.604   0.787   0.130  0.1142  0.7842 -0.2250
 3466TIP3    H131813   2.536   0.792   0.062  0.8285  0.9385 -0.9371
 3466TIP3    H231814   2.652   0.707   0.110  1.0091  1.3929 -0.5511
 3467TIP3   OH231815   1.925   3.336   1.216  0.2843  0.6674 -0.0693
 3467TIP3    H131816   2.000   3.325   1.158  1.0609 -0.8808  1.1400
 3467TIP3    H231817   1.930   3.262   1.276 -2.4468  0.2886 -0.1672
 3468TIP3   OH231818   2.146   3.872  13.000  0.3074  0.0133 -0.1094
 3468TIP3    H131819   2.164   3.931  12.926  0.8565 -1.7701 -1.4859
 3468TIP3    H231820   2.213   3.894  13.064  0.4414  0.9431 -0.5441
 3469TIP3   OH231821   4.169   2.585   0.150  0.1001 -0.4580  0.6796
 3469TIP3    H131822   4.145   2.600   0.241  0.7151  3.7731  0.3287
 3469TIP3    H231823   4.258   2.619   0.143 -0.5045  0.8392 -1.7909
 3470TIP3   OH231824   3.902   6.566  16.545  0.3665  0.4092  0.0225
 3470TIP3    H131825   3.927   6.629  16.477  1.0646  0.3035  0.1757
 3470TIP3    H231826   3.981   6.514  16.559  0.5500  1.0841  1.6332
 3471TIP3   OH231827   0.491   1.942   0.266  0.4009 -0.3098 -0.4631
 3471TIP3    H131828   0.529   2.015   0.314  1.8533 -0.7977 -0.8221
 3471TIP3    H231829   0.408   1.976   0.233 -0.8217 -0.0415  2.5592
 3472TIP3   OH231830   2.614   1.741   3.158 -0.5070 -0.1398 -0.5921
 3472TIP3    H131831   2.693   1.754   3.211 -1.1076 -1.1239  0.6073
 3472TIP3    H231832   2.605   1.646   3.150 -2.8881 -0.2073  1.4765
 3473TIP3   OH231833   2.036   0.307  12.208 -0.1163 -0.1312 -0.0993
 3473TIP3    H131834   2.039   0.217  12.176  0.7761  0.5255 -2.0144
 3473TIP3    H231835   2.087   0.306  12.288 -1.1231 -1.5422  0.5641
 3474TIP3   OH231836   4.106   5.264  12.721 -0.1723 -0.0801 -0.5430
 3474TIP3    H131837   4.195   5.283  12.691 -0.5624  0.5583 -1.3327
 3474TIP3    H231838   4.075   5.346  12.758 -0.0270 -0.6225  0.8215
 3475TIP3   OH231839   2.196   2.722  13.609  0.0370 -1.2172 -0.1814
 3475TIP3    H131840   2.165   2.640  13.571  2.3986 -2.3542  0.1269
 3475TIP3    H231841   2.268   2.696  13.666  0.6387  1.0547  0.1968
 3476TIP3   OH231842   1.245   3.970  15.931  0.1544  0.3577 -0.0163
 3476TIP3    H131843   1.271   3.976  16.023  0.9567 -1.4073 -0.0799
 3476TIP3    H231844   1.157   3.933  15.934  0.0033  0.7174  0.0444
 3477TIP3   OH231845   5.785   1.893  12.562  0.4694  0.1389 -0.1061
 3477TIP3    H131846   5.773   1.941  12.480  0.0991  0.9167  0.3915
 3477TIP3    H231847   5.760   1.803  12.541  3.3867 -0.4150 -1.6620
 3478TIP3   OH231848   0.771   2.162   5.396  0.3725  0.4002 -0.0699
 3478TIP3    H131849   0.694   2.192   5.445 -0.1559 -1.2769  0.2037
 3478TIP3    H231850   0.816   2.102   5.457  1.2699  0.4832 -0.6382
 3479TIP3   OH231851   2.457   6.533   1.323 -0.7101  0.2296 -0.3028
 3479TIP3    H131852   2.551   6.548   1.333 -0.8580  1.5726 -0.7935
 3479TIP3    H231853   2.445   6.519   1.229 -0.9440 -0.4096 -0.1800
 3480TIP3   OH231854   4.427   3.571   5.515 -0.3268 -0.0609  0.3336
 3480TIP3    H131855   4.447   3.486   5.556  1.5436 -0.4782 -1.2849
 3480TIP3    H231856   4.496   3.629   5.547 -1.1716  0.6772  0.8462
 3481TIP3   OH231857   6.515   6.731  13.700  0.6660  0.1156  0.2186
 3481TIP3    H131858   6.477   6.799  13.644  0.6447 -0.2007 -0.1505
 3481TIP3    H231859   6.561   6.672  13.640 -0.1774 -0.7713  0.4239
 3482TIP3   OH231860   0.857   4.987  13.659  0.0473 -0.3119  0.3569
 3482TIP3    H131861   0.776   5.037  13.665  0.4712  0.4145  0.1572
 3482TIP3    H231862   0.857   4.951  13.570  0.4922  0.6683 -0.0569
 3483TIP3   OH231863   5.299   1.406  16.262 -0.1045 -0.4818 -0.0007
 3483TIP3    H131864   5.361   1.339  16.234 -1.3205 -1.1494 -1.2386
 3483TIP3    H231865   5.218   1.357  16.281 -1.1016  0.6345 -1.2050
 3484TIP3   OH231866   0.148   4.503  12.627  0.1487  0.0905  0.7368
 3484TIP3    H131867   0.108   4.464  12.705 -0.0608 -0.6213  0.2774
 3484TIP3    H231868   0.074   4.541  12.579  0.3286  0.9195  1.0893
 3485TIP3   OH231869   5.522   5.753   0.780  0.3579 -0.8022  0.1533
 3485TIP3    H131870   5.464   5.709   0.842  1.1982 -1.6219  0.3889
 3485TIP3    H231871   5.593   5.788   0.833 -0.3398  0.9640 -0.0271
 3486TIP3   OH231872   2.375   5.834   3.038 -0.0552 -0.1212  0.1099
 3486TIP3    H131873   2.461   5.874   3.030  0.7644 -1.6879  0.6435
 3486TIP3    H231874   2.391   5.740   3.031 -1.6804 -0.4744  0.5426
 3487TIP3   OH231875   5.469   5.003   1.959  0.1231 -0.3214 -0.4372
 3487TIP3    H131876   5.520   5.055   1.897 -0.0502  0.0718 -0.2495
 3487TIP3    H231877   5.464   5.057   2.038  2.0774 -1.6302  0.6584
 3488TIP3   OH231878   6.146   1.648   6.953 -0.0404 -0.0409  0.2500
 3488TIP3    H131879   6.057   1.664   6.923  0.4491  1.6049 -0.4197
 3488TIP3    H231880   6.150   1.553   6.966 -0.7981 -0.6986 -3.2695
 3489TIP3   OH231881   1.087   0.621   3.023 -0.3745 -0.0418  0.0457
 3489TIP3    H131882   1.110   0.703   2.981  0.2771  1.0305  2.3186
 3489TIP3    H231883   1.171   0.578   3.040 -0.6792 -0.9349 -0.6325
 3490TIP3   OH231884   0.145   4.926  16.110 -0.7033  0.0691  0.3411
 3490TIP3    H131885   0.219   4.884  16.154 -2.2019 -2.9131  0.2608
 3490TIP3    H231886   0.178   4.946  16.022 -0.0130 -1.4070  0.2296
 3491TIP3   OH231887   4.020   5.127  11.303 -0.7107  0.3525 -0.2385
 3491TIP3    H131888   4.023   5.177  11.222 -0.2988  0.6611 -0.0374
 3491TIP3    H231889   3.927   5.121  11.325 -0.8506 -0.0519 -0.9246
 3492TIP3   OH231890   6.021   2.809  13.777 -0.2043 -0.3316 -0.5490
 3492TIP3    H131891   5.955   2.874  13.800 -0.7777 -0.1442 -2.5254
 3492TIP3    H231892   6.050   2.835  13.689  1.8705 -0.9299 -0.0879
 3493TIP3   OH231893   4.282   2.071   0.375  0.3055  0.0644 -0.0207
 3493TIP3    H131894   4.198   2.026   0.379 -0.5119  1.5045 -0.3694
 3493TIP3    H231895   4.311   2.076   0.466 -0.1345 -0.1760  0.1331
 3494TIP3   OH231896   5.064   2.618  12.393 -0.5081  0.3606 -0.3849
 3494TIP3    H131897   5.142   2.627  12.448 -1.5194  0.1396  1.1739
 3494TIP3    H231898   5.020   2.540  12.428 -0.9748 -0.0479 -1.8270
 3495TIP3   OH231899   5.010   5.854   5.392 -0.0553  0.1667 -1.1729
 3495TIP3    H131900   5.105   5.846   5.406  0.1463 -0.3237 -2.6554
 3495TIP3    H231901   4.972   5.780   5.439  0.3194  0.1979 -0.8161
 3496TIP3   OH231902   4.983   0.363   6.228 -0.0810  0.5793  0.2903
 3496TIP3    H131903   4.996   0.412   6.309 -0.8887 -2.6072  2.5778
 3496TIP3    H231904   5.070   0.358   6.189  1.4840 -1.7221  3.5754
 3497TIP3   OH231905   6.595   0.892   6.253 -0.2256  1.2663 -0.5476
 3497TIP3    H131906   6.603   0.880   6.348  3.9013 -1.2726 -1.0187
 3497TIP3    H231907   6.594   0.987   6.242  2.9527  1.7514  1.9478
 3498TIP3   OH231908   3.568   3.686  12.459  0.0930  0.5441  0.1964
 3498TIP3    H131909   3.537   3.775  12.445 -0.0000  0.5643  0.5147
 3498TIP3    H231910   3.613   3.663  12.378  1.9393  1.6502  0.8359
 3499TIP3   OH231911   2.977   1.550   4.893  0.4886 -0.0942 -0.0164
 3499TIP3    H131912   2.968   1.552   4.798  2.7908 -2.7448 -0.4002
 3499TIP3    H231913   2.977   1.642   4.919 -2.5845  0.7043 -2.2150
 3500TIP3   OH231914   0.338   3.446   5.429 -0.2018 -0.1857 -0.3570
 3500TIP3    H131915   0.294   3.376   5.477 -0.5394  1.4815  1.9490
 3500TIP3    H231916   0.286   3.524   5.448  1.7114  1.2099 -0.5294
 3501TIP3   OH231917   4.951   4.978   2.768  0.4990 -0.2500  0.0362
 3501TIP3    H131918   4.909   4.993   2.683  0.2764  2.2682  0.5120
 3501TIP3    H231919   4.881   4.943   2.823  0.7798 -2.4332 -0.9048
 3502TIP3   OH231920   2.390   1.173   4.731  0.1697  0.1781 -0.2023
 3502TIP3    H131921   2.392   1.104   4.665 -0.7826  1.6141 -1.8153
 3502TIP3    H231922   2.342   1.135   4.804  2.1339 -1.8003  0.1589
 3503TIP3   OH231923   4.871   3.111  15.057 -0.4192  0.3384 -0.8706
 3503TIP3    H131924   4.824   3.149  15.131 -1.4524 -0.2958 -1.1766
 3503TIP3    H231925   4.934   3.179  15.031 -0.1479  0.6249  0.4732
 3504TIP3   OH231926   6.645   2.736   0.924  0.2607 -0.4608  0.0387
 3504TIP3    H131927   6.555   2.749   0.896  0.2582  0.8625  0.5889
 3504TIP3    H231928   6.697   2.780   0.856  0.4681 -0.8279 -0.0410
 3505TIP3   OH231929   2.340   5.987   3.464 -0.0808 -0.0008 -0.2442
 3505TIP3    H131930   2.320   6.002   3.372 -0.2492 -1.4667 -0.4764
 3505TIP3    H231931   2.368   5.895   3.468 -0.4111 -0.0681  1.2193
 3506TIP3   OH231932   5.382   5.289   4.079  0.0472  0.5678 -0.1305
 3506TIP3    H131933   5.347   5.242   4.003  1.7441  1.1521 -1.3532
 3506TIP3    H231934   5.475   5.265   4.080  0.0857  0.7201  1.6804
 3507TIP3   OH231935   0.689   6.733   2.132 -0.1770 -0.1716  1.0311
 3507TIP3    H131936   0.653   6.714   2.219 -1.3894 -0.9327  0.3824
 3507TIP3    H231937   0.621   6.787   2.090  0.6845  0.7348  0.7677
 3508TIP3   OH231938   2.892   1.730   5.251 -0.3807  0.0826  0.7092
 3508TIP3    H131939   2.962   1.756   5.311 -1.2267 -1.4659  2.4804
 3508TIP3    H231940   2.917   1.642   5.222 -0.1415  0.6830 -1.0307
 3509TIP3   OH231941   4.252   1.668   3.578  0.0341 -0.1988 -0.4317
 3509TIP3    H131942   4.342   1.679   3.611 -0.5010 -0.7559  1.3611
 3509TIP3    H231943   4.232   1.576   3.594 -1.2361  0.1729  0.2899
 3510TIP3   OH231944   3.578   5.885  12.298  0.3498  0.2344  0.0958
 3510TIP3    H131945   3.644   5.821  12.274  0.5431 -0.0884  1.4212
 3510TIP3    H231946   3.619   5.970  12.280  0.4818  0.0089 -0.6789
 3511TIP3   OH231947   5.553   3.704  12.599 -0.4725  0.6772 -0.1539
 3511TIP3    H131948   5.524   3.730  12.686 -0.3382 -1.1815  0.5066
 3511TIP3    H231949   5.612   3.774  12.571  0.4363  0.7452  1.7810
 3512TIP3   OH231950   0.724   3.199  16.468  0.0134 -0.4858 -0.0506
 3512TIP3    H131951   0.808   3.153  16.461  0.9714  0.8781  1.5844
 3512TIP3    H231952   0.692   3.177  16.555 -1.3611 -0.9949 -0.6608
 3513TIP3   OH231953   3.300   2.192   1.732 -0.3644  0.2040  0.1057
 3513TIP3    H131954   3.298   2.098   1.749  1.1217  0.3155  1.0949
 3513TIP3    H231955   3.279   2.201   1.639 -1.5140 -1.0119  0.2211
 3514TIP3   OH231956   5.720   4.073  16.227  0.0624 -0.0785  0.2244
 3514TIP3    H131957   5.742   4.031  16.143 -1.0756  1.0208 -0.6574
 3514TIP3    H231958   5.654   4.138  16.205 -1.1222 -0.5414  2.1722
 3515TIP3   OH231959   4.861   0.426   0.629 -0.4721 -0.5195 -0.1586
 3515TIP3    H131960   4.793   0.491   0.615 -0.4478 -0.5672 -0.4956
 3515TIP3    H231961   4.872   0.382   0.545  0.1028 -0.3936 -0.1590
 3516TIP3   OH231962   6.627   4.953  16.433  0.3299  0.4889  0.3787
 3516TIP3    H131963   6.703   5.011  16.429  0.6143  0.1046  0.0955
 3516TIP3    H231964   6.620   4.930  16.525  1.0905 -0.1624  0.2852
 3517TIP3   OH231965   2.382   1.059  16.656 -0.1349 -0.0899  0.4265
 3517TIP3    H131966   2.361   0.967  16.638  1.2097 -0.3034 -0.1668
 3517TIP3    H231967   2.338   1.108  16.587  1.1291 -0.5184 -0.7276
 3518TIP3   OH231968   4.180   0.873  14.563 -0.4400 -0.2089 -0.2880
 3518TIP3    H131969   4.152   0.899  14.651  0.6527 -0.3684  0.1162
 3518TIP3    H231970   4.150   0.783  14.554  1.3771 -0.9814  0.8170
 3519TIP3   OH231971   4.811   5.559  17.155  0.0266  0.1662  0.0547
 3519TIP3    H131972   4.885   5.604  17.115  0.4937 -0.8786 -0.2914
 3519TIP3    H231973   4.824   5.467  17.133 -0.9678 -0.1315  0.6411
 3520TIP3   OH231974   5.261   5.438   4.740  0.4277 -0.8743  0.0753
 3520TIP3    H131975   5.194   5.370   4.736  0.0996 -0.6080  0.9393
 3520TIP3    H231976   5.236   5.500   4.671  0.3277 -1.2657 -0.2428
 3521TIP3   OH231977   4.698   0.588   1.873  0.3664  0.3349 -0.3175
 3521TIP3    H131978   4.789   0.570   1.897  0.2719 -0.6493 -0.6714
 3521TIP3    H231979   4.664   0.504   1.844 -0.7371  0.6489  0.0358
 3522TIP3   OH231980   4.332   2.136   0.104  0.5040  0.3302 -0.0239
 3522TIP3    H131981   4.327   2.120   0.198  0.9065  1.3955  0.1919
 3522TIP3    H231982   4.273   2.070   0.066  1.5992 -1.2126  0.8291
 3523TIP3   OH231983   4.669   3.173  13.031  0.4356  0.1469 -0.2194
 3523TIP3    H131984   4.685   3.109  13.101  2.4456  1.6527  0.8029
 3523TIP3    H231985   4.628   3.122  12.961 -1.8659 -1.4144  2.0760
 3524TIP3   OH231986   0.054   3.438   2.100  0.3992  0.9680  0.6404
 3524TIP3    H131987   0.084   3.381   2.170  2.3675  2.7792  1.3660
 3524TIP3    H231988   0.052   3.381   2.023 -0.9878 -0.8465  1.9311
 3525TIP3   OH231989   1.476   3.072   4.064 -0.3211 -0.0771  0.2622
 3525TIP3    H131990   1.486   2.982   4.096 -0.0499 -0.8133 -1.7189
 3525TIP3    H231991   1.399   3.105   4.110 -1.4610 -1.9375 -0.1766
 3526TIP3   OH231992   5.331   5.295   4.372  0.1416 -0.3356 -0.0313
 3526TIP3    H131993   5.235   5.293   4.378 -0.0758  1.4014 -1.8719
 3526TIP3    H231994   5.350   5.298   4.279  1.9123  1.1136  0.3132
 3527TIP3   OH231995   2.151   0.755  11.158 -0.2817 -0.2283  0.2916
 3527TIP3    H131996   2.122   0.677  11.206 -2.5745  0.1003 -0.4339
 3527TIP3    H231997   2.070   0.805  11.142  1.0012  1.8536 -0.0604
 3528TIP3   OH231998   6.079   5.453  11.295  0.0944  0.2581  0.0785
 3528TIP3    H131999   6.157   5.397  11.294 -0.5468 -0.6601 -1.1868
 3528TIP3    H232000   6.097   5.520  11.229  0.9286  1.7350  1.7001
 3529TIP3   OH232001   3.873   4.385   3.927  0.0013 -0.9599  0.1277
 3529TIP3    H132002   3.893   4.400   3.835  1.1178  0.9265  0.6226
 3529TIP3    H232003   3.958   4.364   3.967  0.2106  1.6241  1.2706
 3530TIP3   OH232004   5.521   1.439  16.755  0.0734 -0.0873 -0.4520
 3530TIP3    H132005   5.432   1.405  16.745 -0.2582  0.0158  1.6451
 3530TIP3    H232006   5.570   1.400  16.683 -1.0103 -2.5468  0.0251
 3531TIP3   OH232007   2.375   2.704   5.339 -0.1859  0.8249  0.6190
 3531TIP3    H132008   2.333   2.686   5.254  1.9855  0.9892 -0.5594
 3531TIP3    H232009   2.305   2.741   5.393 -1.4906  1.3377 -1.3145
 3532TIP3   OH232010   3.327   6.772   3.621 -0.0040  0.5206 -0.1687
 3532TIP3    H132011   3.336   6.679   3.642 -0.9860  0.6156  0.7592
 3532TIP3    H232012   3.389   6.786   3.549 -0.8769 -1.1770 -1.3526
 3533TIP3   OH232013   2.160   1.274  12.341 -0.9985  0.0397  0.2369
 3533TIP3    H132014   2.146   1.285  12.435 -1.4027  1.2456  0.0589
 3533TIP3    H232015   2.104   1.341  12.301 -0.5160 -0.1835 -0.8454
 3534TIP3   OH232016   3.349   6.708  15.656 -0.5186  0.4142 -0.1888
 3534TIP3    H132017   3.335   6.614  15.673  1.4181 -0.0248 -0.8489
 3534TIP3    H232018   3.411   6.711  15.584  0.2357  2.2122  0.4713
 3535TIP3   OH232019   0.181   0.682  16.204  0.0159  0.1211 -0.0052
 3535TIP3    H132020   0.133   0.600  16.190  2.1530 -1.3955  0.9371
 3535TIP3    H232021   0.136   0.746  16.149 -1.2839 -1.8500 -1.3794
 3536TIP3   OH232022   1.335   1.776   0.878  0.0439  0.0758  0.5383
 3536TIP3    H132023   1.418   1.800   0.837 -0.5101  1.4484  0.1861
 3536TIP3    H232024   1.359   1.748   0.966  0.8663  0.6020  0.4922
 3537TIP3   OH232025   2.453   4.204  16.375  0.3089  0.2949 -0.3785
 3537TIP3    H132026   2.479   4.259  16.301 -0.4072  1.9487  0.5593
 3537TIP3    H232027   2.517   4.224  16.443 -0.5023  0.7021  0.2825
 3538TIP3   OH232028   1.216   2.648  11.562 -0.6413 -0.5172  0.1719
 3538TIP3    H132029   1.179   2.577  11.615 -0.5454 -0.4805  0.2889
 3538TIP3    H232030   1.267   2.604  11.495 -1.9530 -0.6242 -0.8081
 3539TIP3   OH232031   3.951   0.446   4.691  0.1158 -0.4516 -0.2887
 3539TIP3    H132032   4.001   0.366   4.706 -0.2336 -0.6652 -0.2763
 3539TIP3    H232033   3.863   0.426   4.721 -0.0982 -0.2279 -0.7608
 3540TIP3   OH232034   4.726   4.346  12.791 -0.1456  0.3894  0.1888
 3540TIP3    H132035   4.665   4.314  12.857  0.7292  0.7887  1.2182
 3540TIP3    H232036   4.790   4.398  12.840  0.7094  0.4345 -0.9258
 3541TIP3   OH232037   4.056   4.133  13.948  0.4817 -0.2929  0.5917
 3541TIP3    H132038   4.040   4.192  13.875  0.5529 -0.3065  0.5646
 3541TIP3    H232039   3.969   4.116  13.985  0.3788 -0.7653  0.1371
 3542TIP3   OH232040   4.996   1.405   2.222 -0.0793 -0.5347  0.1811
 3542TIP3    H132041   4.984   1.397   2.127 -1.0430  0.9553  0.1472
 3542TIP3    H232042   4.989   1.499   2.239 -0.4608 -0.8277  1.8068
 3543TIP3   OH232043   0.618   1.202   1.752 -0.2644  0.2048 -0.0416
 3543TIP3    H132044   0.647   1.260   1.823  1.4492  0.9174 -1.2630
 3543TIP3    H232045   0.695   1.148   1.732 -1.3750 -1.5189  0.0586
 3544TIP3   OH232046   6.329   1.579   6.032 -0.1905  0.0602  0.7561
 3544TIP3    H132047   6.379   1.502   6.060 -0.3528 -1.3075 -2.3434
 3544TIP3    H232048   6.382   1.653   6.061  2.8777 -1.2992 -0.8936
 3545TIP3   OH232049   3.758   4.364   0.956  0.5274  0.5305  0.5167
 3545TIP3    H132050   3.853   4.368   0.960  0.4825  1.9803  0.6371
 3545TIP3    H232051   3.738   4.270   0.954  2.0567  0.1446 -1.9632
 3546TIP3   OH232052   0.786   3.184  11.380 -0.8146 -0.2478  0.1493
 3546TIP3    H132053   0.809   3.274  11.356 -1.1330 -0.6107 -1.6131
 3546TIP3    H232054   0.790   3.135  11.298  0.3087 -2.0815  1.2344
 3547TIP3   OH232055   1.779   2.998  16.983 -0.3403 -0.1974 -0.0131
 3547TIP3    H132056   1.865   3.017  17.021  0.5740 -1.3526 -1.3811
 3547TIP3    H232057   1.789   3.018  16.890 -1.6887  0.0381 -0.1206
 3548TIP3   OH232058   5.402   3.271  13.930  0.0630 -0.3760 -0.8056
 3548TIP3    H132059   5.407   3.196  13.989  0.9276  1.7292  1.9715
 3548TIP3    H232060   5.344   3.241  13.859 -0.5775 -3.2266  0.7549
 3549TIP3   OH232061   1.402   6.625   2.261  0.2171 -0.0901 -0.2067
 3549TIP3    H132062   1.398   6.717   2.287 -0.5143 -0.2881  0.4256
 3549TIP3    H232063   1.457   6.583   2.326 -1.4389 -0.5440  0.9610
 3550TIP3   OH232064   5.044   1.731   3.528 -0.6463 -0.2779 -0.9542
 3550TIP3    H132065   5.077   1.681   3.453  0.8250 -0.2766 -0.3452
 3550TIP3    H232066   5.084   1.817   3.518 -2.1035  0.3911 -1.2701
 3551TIP3   OH232067   0.933   1.295   3.519 -0.1034 -0.2900 -0.3490
 3551TIP3    H132068   0.955   1.321   3.429 -1.3097  0.4583 -0.4649
 3551TIP3    H232069   0.981   1.214   3.533  1.8918  0.7431 -0.8648
 3552TIP3   OH232070   5.977   5.945  12.741 -0.6756 -0.0714 -0.0157
 3552TIP3    H132071   6.000   5.854  12.759 -0.4528  0.0428  0.2749
 3552TIP3    H232072   6.057   5.994  12.757 -0.9947  0.2696  0.5632
 3553TIP3   OH232073   6.249   2.396   5.864  0.2937 -0.0645 -0.2191
 3553TIP3    H132074   6.274   2.391   5.771  1.1978  2.2437 -0.1581
 3553TIP3    H232075   6.154   2.387   5.863  0.2110  0.6519 -1.4732
 3554TIP3   OH232076   4.029   1.704   1.341  0.0925  0.7482  0.5494
 3554TIP3    H132077   4.061   1.728   1.254  0.1209  1.3573  0.7194
 3554TIP3    H232078   4.092   1.744   1.401 -0.2279  0.7909  0.8595
 3555TIP3   OH232079   3.611   4.219   6.116  0.0583  0.1910 -0.2986
 3555TIP3    H132080   3.616   4.313   6.102 -2.7845  0.3535 -0.7780
 3555TIP3    H232081   3.629   4.208   6.210  2.8501  0.8524 -0.6623
 3556TIP3   OH232082   2.985   5.940   4.990  0.2708  0.0565  0.0088
 3556TIP3    H132083   2.902   5.967   4.950  0.4326 -1.5825 -1.5209
 3556TIP3    H232084   3.042   6.017   4.981 -0.8577  0.9974  0.5483
 3557TIP3   OH232085   6.583   1.019  13.932  0.1150  0.1024  0.0955
 3557TIP3    H132086   6.677   1.001  13.940 -0.1669 -1.1694  0.8250
 3557TIP3    H232087   6.553   1.025  14.022 -0.3577  1.4284 -0.1352
 3558TIP3   OH232088   2.151   0.429   2.729 -0.0472 -0.4378 -0.0234
 3558TIP3    H132089   2.204   0.350   2.718 -0.4221 -0.8095  0.8070
 3558TIP3    H232090   2.214   0.501   2.726  0.6646 -0.9277  1.9728
 3559TIP3   OH232091   6.363   5.838   4.929 -0.1799  0.2440  0.1764
 3559TIP3    H132092   6.268   5.842   4.917 -0.2518 -1.9809 -0.3593
 3559TIP3    H232093   6.391   5.764   4.875  2.0937  1.7255 -0.8535
 3560TIP3   OH232094   3.662   1.788   2.308  0.5689 -0.8936 -0.7774
 3560TIP3    H132095   3.634   1.711   2.357  1.1482 -1.4323 -1.2764
 3560TIP3    H232096   3.742   1.817   2.353  0.0503 -0.2419 -0.2533
 3561TIP3   OH232097   1.462   4.731  13.723 -0.2598 -0.1547  0.2632
 3561TIP3    H132098   1.368   4.743  13.712 -0.0004 -0.2603 -3.6951
 3561TIP3    H232099   1.492   4.813  13.762 -1.9042  0.0950  1.1020
 3562TIP3   OH232100   3.250   2.594  10.322  0.0897 -0.3275 -0.2330
 3562TIP3    H132101   3.264   2.531  10.392  0.7644  2.6847  2.5898
 3562TIP3    H232102   3.254   2.542  10.242 -0.0501 -3.8899  1.8592
 3563TIP3   OH232103   5.188   1.810  11.392  0.5889  0.4015 -0.1975
 3563TIP3    H132104   5.204   1.903  11.410  0.2055  0.3705  0.3284
 3563TIP3    H232105   5.147   1.809  11.305  0.7529  0.7034 -0.2815
 3564TIP3   OH232106   2.831   6.768  13.250 -0.7359  0.0643 -0.2628
 3564TIP3    H132107   2.883   6.727  13.319  0.6655  1.8461 -0.1575
 3564TIP3    H232108   2.801   6.696  13.195  0.4413 -1.1822  0.6696
 3565TIP3   OH232109   3.329   4.024   6.393  0.3879  0.4131 -0.2600
 3565TIP3    H132110   3.325   3.936   6.429  1.4955  0.3459 -0.2621
 3565TIP3    H232111   3.260   4.072   6.439 -0.2330 -0.4545 -0.2724
 3566TIP3   OH232112   1.452   3.743   4.483 -0.4149  0.3294  0.0634
 3566TIP3    H132113   1.502   3.684   4.540 -2.2741 -0.7508  0.6778
 3566TIP3    H232114   1.494   3.828   4.493 -0.4897  0.1391  2.8883
 3567TIP3   OH232115   1.018   2.025  15.098  0.0329 -0.7830  0.0970
 3567TIP3    H132116   0.974   1.964  15.158 -1.9183  1.8064  1.5179
 3567TIP3    H232117   0.965   2.022  15.018 -0.5338 -0.4402  0.4487
 3568TIP3   OH232118   5.489   1.669  15.821  0.1984  0.1808 -0.3088
 3568TIP3    H132119   5.476   1.726  15.897  0.9193 -0.2940  0.1843
 3568TIP3    H232120   5.419   1.693  15.760 -0.0446  0.9614  0.2693
 3569TIP3   OH232121   3.691   4.785  15.445  0.6239 -0.2590  0.3627
 3569TIP3    H132122   3.604   4.818  15.423  1.2320  0.1209 -1.6473
 3569TIP3    H232123   3.701   4.705  15.394  1.2753 -0.5599  0.9406
 3570TIP3   OH232124   6.622   4.796  14.116  0.1317  0.4670 -0.4672
 3570TIP3    H132125   6.645   4.888  14.104  2.3926  0.6024  3.2954
 3570TIP3    H232126   6.551   4.797  14.180 -0.1853 -0.3885 -0.7906
 3571TIP3   OH232127   2.179   1.062   4.254  0.3409 -0.2161  0.3162
 3571TIP3    H132128   2.274   1.054   4.250  0.3542 -0.2429  0.6028
 3571TIP3    H232129   2.159   1.145   4.211  0.4741 -0.3157  0.0625
 3572TIP3   OH232130   1.110   6.243   5.792  0.1574  0.2667 -0.3485
 3572TIP3    H132131   1.071   6.329   5.775  0.0607  1.1753  3.5680
 3572TIP3    H232132   1.071   6.216   5.875  2.2651 -2.3079 -0.0893
 3573TIP3   OH232133   1.758   6.577  14.233  0.0610  0.1203 -0.2726
 3573TIP3    H132134   1.705   6.656  14.222 -1.0658 -0.4323  0.9804
 3573TIP3    H232135   1.695   6.509  14.259  0.9778 -1.2395 -1.4629
 3574TIP3   OH232136   3.460   5.071  16.986  0.2335 -0.3690 -0.0361
 3574TIP3    H132137   3.518   5.024  16.927  0.4946 -1.4082  1.0017
 3574TIP3    H232138   3.430   5.005  17.048 -1.0439  0.4222  0.2277
 3575TIP3   OH232139   4.757   5.700   1.202  0.3156 -0.6727 -0.1109
 3575TIP3    H132140   4.779   5.726   1.113 -0.5960 -0.4531 -0.2870
 3575TIP3    H232141   4.707   5.619   1.192 -2.0078  0.6636 -0.0272
 3576TIP3   OH232142   3.451   0.801  14.325 -0.1031  0.1244  0.4419
 3576TIP3    H132143   3.367   0.788  14.281 -0.2850 -1.1018  1.1046
 3576TIP3    H232144   3.428   0.810  14.418  0.4531  0.2507  0.5697
 3577TIP3   OH232145   3.211   6.584   2.629 -0.2446  0.2390 -0.0056
 3577TIP3    H132146   3.271   6.518   2.662  0.1116  0.6667  0.2175
 3577TIP3    H232147   3.262   6.634   2.565 -0.7004 -0.0975 -0.6389
 3578TIP3   OH232148   5.603   3.160  13.281 -0.3127 -0.3203  0.5671
 3578TIP3    H132149   5.597   3.238  13.227  1.1943  0.2893  1.2009
 3578TIP3    H232150   5.558   3.092  13.232 -1.1549  0.8045 -0.2611
 3579TIP3   OH232151   0.954   2.529  11.475  0.1664 -0.1954 -0.0512
 3579TIP3    H132152   0.998   2.518  11.559  2.2084 -0.1037 -1.0450
 3579TIP3    H232153   0.957   2.441  11.436  0.5475  0.0626 -0.6149
 3580TIP3   OH232154   3.925   1.939   5.477 -0.5414 -0.2221  0.2148
 3580TIP3    H132155   4.002   1.984   5.440 -1.0410  0.0871 -0.4648
 3580TIP3    H232156   3.880   2.008   5.526  0.2905 -0.7009  1.7290
 3581TIP3   OH232157   3.118   6.774  15.413 -0.0504  0.3178 -0.2201
 3581TIP3    H132158   3.189   6.717  15.443  1.0315  1.4490 -0.5727
 3581TIP3    H232159   3.052   6.766  15.481  1.0831  0.4777  0.9455
 3582TIP3   OH232160   5.264   1.191   3.192 -0.9372  0.1702 -0.2973
 3582TIP3    H132161   5.220   1.204   3.276 -3.3433  0.4070 -1.4947
 3582TIP3    H232162   5.349   1.153   3.215 -0.4552  2.5210  2.3600
 3583TIP3   OH232163   5.230   1.726  14.213  0.4789 -0.2520  0.1469
 3583TIP3    H132164   5.310   1.704  14.165 -0.1476 -0.6768 -0.7360
 3583TIP3    H232165   5.215   1.818  14.191  0.9733 -0.0361  0.6925
 3584TIP3   OH232166   4.328   6.314   2.401  0.3346 -0.0779  0.2476
 3584TIP3    H132167   4.374   6.243   2.355 -1.0190 -1.8895  1.5541
 3584TIP3    H232168   4.275   6.269   2.466 -0.4938  2.1922  1.2142
 3585TIP3   OH232169   4.979   0.496  10.864 -0.1137  0.1755 -0.0598
 3585TIP3    H132170   5.050   0.546  10.825  0.1574 -0.3961 -0.3093
 3585TIP3    H232171   4.899   0.539  10.833  0.1078  0.1578 -0.6713
 3586TIP3   OH232172   3.191   0.041   3.039 -0.1190 -0.3101  0.4052
 3586TIP3    H132173   3.199   0.063   3.132  1.1248 -2.2155  0.8007
 3586TIP3    H232174   3.101   0.010   3.030  0.1280 -1.3926  1.3217
 3587TIP3   OH232175   3.188   2.620  15.061  0.0623 -0.2067  0.0775
 3587TIP3    H132176   3.213   2.530  15.042 -1.7776 -1.0944  1.5474
 3587TIP3    H232177   3.110   2.634  15.007  0.0078  0.3150  0.2916
 3588TIP3   OH232178   5.059   1.362   4.922  0.3342  0.8815 -0.2764
 3588TIP3    H132179   5.124   1.320   4.866  0.2494 -0.3351  0.5001
 3588TIP3    H232180   5.093   1.351   5.011  0.3584  2.5788 -0.0319
 3589TIP3   OH232181   6.674   2.788   5.693 -0.1122  0.4401  0.2250
 3589TIP3    H132182   6.714   2.818   5.774 -0.7424 -0.2306  0.8033
 3589TIP3    H232183   6.705   2.698   5.683 -0.9417  0.1261  0.3529
 3590TIP3   OH232184   5.419   0.304  14.829 -0.3451  0.3556  0.0741
 3590TIP3    H132185   5.445   0.386  14.787 -0.8267  1.0799  1.1529
 3590TIP3    H232186   5.336   0.280  14.787 -1.4264  1.6868  1.3460
 3591TIP3   OH232187   4.357   4.483   4.839 -0.3080  0.3063 -0.4398
 3591TIP3    H132188   4.337   4.449   4.752  2.5844 -0.4445 -0.9064
 3591TIP3    H232189   4.389   4.407   4.887 -3.8422  0.1835  2.1514
 3592TIP3   OH232190   2.853   5.491  16.507  0.1717 -0.2922 -0.2562
 3592TIP3    H132191   2.824   5.440  16.431 -1.3509 -0.4948  0.4152
 3592TIP3    H232192   2.937   5.452  16.531 -0.7372 -2.2524 -0.0280
 3593TIP3   OH232193   1.198   0.777  14.362  0.5810 -0.3499  0.2299
 3593TIP3    H132194   1.130   0.747  14.422  1.4975 -3.2210  0.0022
 3593TIP3    H232195   1.263   0.819  14.418  0.3257 -0.8842  0.9385
 3594TIP3   OH232196   4.378   4.803  11.026  0.0686 -0.2593 -0.4380
 3594TIP3    H132197   4.345   4.772  10.941  1.2774 -2.9863 -0.0498
 3594TIP3    H232198   4.301   4.837  11.071 -1.4061 -2.2990 -1.2188
 3595TIP3   OH232199   5.398   1.182   5.482  0.0718  0.1324  0.1603
 3595TIP3    H132200   5.442   1.258   5.445  0.2176 -0.4471 -0.8912
 3595TIP3    H232201   5.470   1.126   5.513  0.1392 -0.8666 -1.6585
 3596TIP3   OH232202   1.532   1.919   3.090  0.0341  0.2421 -0.1062
 3596TIP3    H132203   1.543   1.939   2.997  1.4998  1.2770  0.2622
 3596TIP3    H232204   1.483   1.836   3.091 -1.8340  1.2169 -1.7618
 3597TIP3   OH232205   3.869   3.674  16.658  0.0174 -0.1283  0.2953
 3597TIP3    H132206   3.920   3.710  16.586  0.5724  1.9154  1.6135
 3597TIP3    H232207   3.866   3.580  16.641  2.3689 -0.0557 -0.9784
 3598TIP3   OH232208   6.159   0.742  13.198 -0.0896  0.8991  0.2843
 3598TIP3    H132209   6.235   0.729  13.254  0.3346  0.0568 -0.4666
 3598TIP3    H232210   6.125   0.828  13.223 -0.9270 -0.1372  3.0107
 3599TIP3   OH232211   0.108   0.080   2.353  0.4377  0.1990 -0.0444
 3599TIP3    H132212   0.119   0.142   2.281  2.6356 -0.8453 -0.7152
 3599TIP3    H232213   0.094   0.134   2.430  1.2426  1.4948 -0.7812
 3600TIP3   OH232214   0.726   1.312  16.050  0.0207 -0.0552  0.5316
 3600TIP3    H132215   0.810   1.268  16.067 -0.1542 -1.0861 -1.0040
 3600TIP3    H232216   0.663   1.240  16.041 -0.5687  0.5691 -0.5790
 3601TIP3   OH232217   6.390   1.979   5.134  0.0163 -0.3617  0.0487
 3601TIP3    H132218   6.352   2.066   5.123  0.4372 -0.1695  0.1025
 3601TIP3    H232219   6.315   1.922   5.150 -0.1201  0.4448  2.9856
 3602TIP3   OH232220   2.735   2.711   3.019  0.3583 -0.1155  0.3269
 3602TIP3    H132221   2.683   2.789   3.003 -0.2234 -0.5853 -0.1431
 3602TIP3    H232222   2.761   2.680   2.932  3.7935  1.5977  0.5573
 3603TIP3   OH232223   4.535   4.793   2.880 -0.3125  0.0030 -0.4155
 3603TIP3    H132224   4.539   4.833   2.793 -1.6593  0.6167 -0.2282
 3603TIP3    H232225   4.497   4.707   2.865  0.2362 -0.2251 -0.5221
 3604TIP3   OH232226   2.606   5.771  13.690  0.5115 -0.1679  0.0495
 3604TIP3    H132227   2.606   5.780  13.785 -0.6043 -1.6927  0.2374
 3604TIP3    H232228   2.679   5.712  13.671  0.0839 -0.7212  0.0860
 3605TIP3   OH232229   3.555   4.960   3.596 -0.3620  0.0676  0.0570
 3605TIP3    H132230   3.478   5.016   3.604 -0.4006 -0.1693  1.6109
 3605TIP3    H232231   3.609   5.003   3.529 -1.1783  1.0215 -0.0068
 3606TIP3   OH232232   4.189   0.546  13.275  0.3122 -0.1090  0.8103
 3606TIP3    H132233   4.278   0.567  13.246 -0.1515  2.5623  1.0786
 3606TIP3    H232234   4.149   0.502  13.200  1.6509 -0.7968  0.4690
 3607TIP3   OH232235   3.185   4.653  17.111 -0.1393 -0.8063  0.2192
 3607TIP3    H132236   3.183   4.613  17.024 -2.1400 -0.2778 -0.0470
 3607TIP3    H232237   3.231   4.591  17.166  1.3154 -1.0865 -1.2350
 3608TIP3   OH232238   4.864   5.976   2.217  0.4082 -0.0753  0.2769
 3608TIP3    H132239   4.946   6.015   2.246  0.5111 -0.3870  0.4018
 3608TIP3    H232240   4.889   5.911   2.151  0.0953  1.5628 -1.5611
 3609TIP3   OH232241   2.653   4.414   2.896 -0.2016  0.0116  0.4485
 3609TIP3    H132242   2.738   4.392   2.859 -0.8774  0.0932 -1.2955
 3609TIP3    H232243   2.625   4.492   2.847 -0.5283  1.0517  2.2109
 3610TIP3   OH232244   2.732   1.521  10.993  0.0812  0.1121  0.7653
 3610TIP3    H132245   2.763   1.604  11.030 -2.4076  0.6522  1.8928
 3610TIP3    H232246   2.664   1.546  10.931  1.1298 -1.0229 -0.9177
 3611TIP3   OH232247   6.493   1.224   4.092 -0.1307  0.2391 -0.0624
 3611TIP3    H132248   6.469   1.281   4.019  0.3513 -0.1601 -0.5412
 3611TIP3    H232249   6.445   1.259   4.167 -3.7706 -1.6315 -1.3020
 3612TIP3   OH232250   1.943   4.854  17.038  0.3563 -0.0052 -0.2086
 3612TIP3    H132251   1.941   4.947  17.013 -1.2767 -0.0797 -0.4962
 3612TIP3    H232252   1.887   4.849  17.115 -0.1627 -0.8535 -0.6277
 3613TIP3   OH232253   3.323   6.414   5.305  0.2859 -0.7099 -0.1221
 3613TIP3    H132254   3.248   6.368   5.343  1.0649  0.3437  2.9522
 3613TIP3    H232255   3.329   6.379   5.216 -2.2451 -2.7256  0.3620
 3614TIP3   OH232256   4.033   3.851  15.053 -0.2201 -0.5679 -0.6882
 3614TIP3    H132257   3.989   3.894  15.126 -0.0813 -0.1457 -0.8526
 3614TIP3    H232258   4.024   3.912  14.979  1.2008 -0.1662 -0.5663
 3615TIP3   OH232259   6.625   6.532  11.601 -0.2094  0.6582  0.5236
 3615TIP3    H132260   6.619   6.594  11.674 -2.0143 -0.4252  1.3468
 3615TIP3    H232261   6.549   6.551  11.546 -0.6230 -0.5818  0.6258
 3616TIP3   OH232262   3.697   0.346   4.808 -0.0071 -0.1112  0.1541
 3616TIP3    H132263   3.618   0.357   4.755  1.3027  0.9615 -1.6672
 3616TIP3    H232264   3.665   0.311   4.892 -2.5962  1.9990  0.1576
 3617TIP3   OH232265   2.448   3.581  16.019 -0.1587 -0.5795 -0.2536
 3617TIP3    H132266   2.517   3.637  15.984  0.5982 -1.9069 -0.9491
 3617TIP3    H232267   2.494   3.519  16.075 -0.6041 -2.2690 -1.6974
 3618TIP3   OH232268   3.720   2.068  11.517  0.5364 -0.0965  0.2342
 3618TIP3    H132269   3.692   2.147  11.471 -2.2633 -1.2188 -0.1791
 3618TIP3    H232270   3.811   2.055  11.491  0.3041  1.6333 -1.6183
 3619TIP3   OH232271   0.226   1.960  14.848 -0.2191  0.5949 -0.0340
 3619TIP3    H132272   0.211   2.026  14.780  0.7550  2.9012  1.8378
 3619TIP3    H232273   0.252   2.011  14.925 -1.8343 -1.8251  2.2843
 3620TIP3   OH232274   4.647   5.518   2.158 -0.2763  0.3039 -0.0563
 3620TIP3    H132275   4.613   5.604   2.184 -2.4118 -0.3576 -0.5013
 3620TIP3    H232276   4.661   5.525   2.064 -0.7005  0.0766 -0.1345
 3621TIP3   OH232277   4.634   0.412  11.926  0.6655  0.3773  0.0279
 3621TIP3    H132278   4.644   0.351  11.999  0.4423  0.3632  0.0452
 3621TIP3    H232279   4.684   0.372  11.854  0.0957 -0.0821 -0.1173
 3622TIP3   OH232280   6.369   1.203   2.907  0.2302  0.3133 -0.3765
 3622TIP3    H132281   6.378   1.123   2.960 -0.1487  0.3903 -0.1910
 3622TIP3    H232282   6.326   1.173   2.827 -0.0217  0.3494 -0.2563
 3623TIP3   OH232283   5.101   2.204   3.959 -0.3580 -0.1789 -0.1150
 3623TIP3    H132284   5.151   2.125   3.939  0.3739  0.5600 -1.3765
 3623TIP3    H232285   5.024   2.199   3.902 -0.2094  0.0899 -0.3469
 3624TIP3   OH232286   3.937   2.162  13.175 -0.1394 -0.3203  0.5348
 3624TIP3    H132287   3.931   2.066  13.178 -2.6877 -0.3057 -1.1367
 3624TIP3    H232288   3.900   2.191  13.258  0.9537 -0.7594  1.1937
 3625TIP3   OH232289   5.648   0.240  13.741 -0.3956 -0.1804  0.2159
 3625TIP3    H132290   5.573   0.202  13.787  0.3186 -1.3604  0.4353
 3625TIP3    H232291   5.701   0.279  13.811 -0.0963 -0.5946  0.2201
 3626TIP3   OH232292   4.331   1.459   6.224 -0.3446  0.5097 -0.2702
 3626TIP3    H132293   4.347   1.545   6.262 -0.8937  0.4383  0.1238
 3626TIP3    H232294   4.418   1.425   6.204 -0.0876  0.8412  0.2717
 3627TIP3   OH232295   6.106   3.122  10.885  0.1381  0.0126 -0.3667
 3627TIP3    H132296   6.198   3.148  10.875  0.1510 -0.2278 -0.9333
 3627TIP3    H232297   6.057   3.201  10.862  0.1883 -0.2507 -1.4678
 3628TIP3   OH232298   4.309   4.474  13.780  0.2713 -0.7953 -0.7018
 3628TIP3    H132299   4.327   4.475  13.874 -1.0549 -0.6710 -0.4279
 3628TIP3    H232300   4.348   4.392  13.749  0.6545 -0.8729 -0.0339
 3629TIP3   OH232301   1.505   3.416  16.651 -0.3848 -0.2177 -0.2117
 3629TIP3    H132302   1.489   3.509  16.667  1.0021 -0.0255  0.1883
 3629TIP3    H232303   1.514   3.377  16.738 -0.9768 -0.7505 -0.3736
 3630TIP3   OH232304   3.684   5.816  12.659 -0.0712  0.0616 -0.0823
 3630TIP3    H132305   3.770   5.819  12.618  0.5849  0.5113  1.2688
 3630TIP3    H232306   3.661   5.907  12.675  0.0426 -0.1238  1.2272
 3631TIP3   OH232307   5.560   5.291  12.873 -0.6473  0.3668  0.4186
 3631TIP3    H132308   5.605   5.207  12.868  0.3566  0.9599 -2.9700
 3631TIP3    H232309   5.556   5.311  12.967  1.1185 -2.3612  1.1697
 3632TIP3   OH232310   5.978   3.482  16.289  0.0307 -0.0725 -0.0357
 3632TIP3    H132311   5.911   3.485  16.220 -0.4673  1.9834  0.4742
 3632TIP3    H232312   5.940   3.424  16.356 -0.5169 -0.2060 -0.4493
 3633TIP3   OH232313   2.720   4.892   4.541 -0.2977 -0.2083  0.5082
 3633TIP3    H132314   2.805   4.894   4.497 -0.4808 -1.3363  0.0686
 3633TIP3    H232315   2.738   4.919   4.631  0.8880 -2.2608  0.9501
 3634TIP3   OH232316   5.768   6.045   2.262  0.4963 -0.6889  0.2950
 3634TIP3    H132317   5.739   5.975   2.204  1.3604  1.2802 -2.7151
 3634TIP3    H232318   5.860   6.059   2.240  0.8657  0.2105  2.1368
 3635TIP3   OH232319   4.809   2.324   3.446 -0.2705  0.0326 -0.0795
 3635TIP3    H132320   4.818   2.362   3.358  1.2208  0.1804  0.1182
 3635TIP3    H232321   4.892   2.278   3.461 -0.1816  0.6863  1.5801
 3636TIP3   OH232322   6.510   2.569   3.471 -0.2282  0.6448 -0.3292
 3636TIP3    H132323   6.466   2.623   3.405 -0.8022 -0.5900 -1.0004
 3636TIP3    H232324   6.439   2.534   3.525  0.2241  1.4871  0.8456
 3637TIP3   OH232325   1.654   6.116  12.506 -0.0641 -1.1792  0.0009
 3637TIP3    H132326   1.747   6.135  12.519 -0.2893 -0.4537  0.6378
 3637TIP3    H232327   1.612   6.201  12.509 -0.6889 -1.4414 -0.9441
 3638TIP3   OH232328   2.689   5.268  16.783 -0.5321 -0.2202  0.0341
 3638TIP3    H132329   2.741   5.239  16.708  0.0088 -0.6288  0.5537
 3638TIP3    H232330   2.633   5.337  16.748  0.5227  0.3899 -0.5068
 3639TIP3   OH232331   6.055   3.505   5.054 -0.0693 -0.1745 -0.1991
 3639TIP3    H132332   6.116   3.438   5.025 -0.1473  0.1548 -1.1519
 3639TIP3    H232333   5.988   3.508   4.986  0.2689  1.3048 -0.5185
 3640TIP3   OH232334   5.963   0.859   1.454  0.2351 -0.1600  0.5317
 3640TIP3    H132335   5.923   0.801   1.390  0.2207  0.9973 -0.5386
 3640TIP3    H232336   5.898   0.928   1.468  1.8409  1.8971 -1.4411
 3641TIP3   OH232337   6.705   4.590   6.196  0.7771  0.5683 -0.2137
 3641TIP3    H132338   6.745   4.516   6.243 -0.0472 -0.8121 -1.5784
 3641TIP3    H232339   6.777   4.628   6.145  0.7271 -0.9500 -1.4910
 3642TIP3   OH232340   3.238   5.526   5.234  0.1273  0.2739  0.0612
 3642TIP3    H132341   3.157   5.576   5.222  0.1764  0.1505 -0.9311
 3642TIP3    H232342   3.307   5.584   5.202  0.4650  0.4439  1.0557
 3643TIP3   OH232343   1.915   5.082  11.804  0.1001 -0.5664 -0.1727
 3643TIP3    H132344   1.927   5.008  11.745 -1.4812 -1.8449  1.0011
 3643TIP3    H232345   1.854   5.049  11.871 -0.8614  1.8673  0.2566
 3644TIP3   OH232346   1.189   1.027   4.389  0.1775 -0.4982 -0.7371
 3644TIP3    H132347   1.267   1.071   4.357 -0.4079  0.1658 -1.2692
 3644TIP3    H232348   1.214   0.995   4.476  1.3848 -1.2495 -1.3296
 3645TIP3   OH232349   2.022   4.569   2.988 -0.4126 -0.2490 -0.0746
 3645TIP3    H132350   1.937   4.526   2.976 -1.1673  1.9099 -4.5636
 3645TIP3    H232351   2.001   4.655   3.022  0.1826 -0.2186  0.2372
 3646TIP3   OH232352   3.742   6.469   2.385 -0.1127  0.3932  0.1967
 3646TIP3    H132353   3.673   6.499   2.445  1.8200  3.3266  1.1889
 3646TIP3    H232354   3.696   6.424   2.315 -2.8522  0.5750  1.7599
 3647TIP3   OH232355   1.780   3.797   2.928  0.0767 -0.1889  0.3388
 3647TIP3    H132356   1.789   3.880   2.975  0.2335 -0.3046  0.5180
 3647TIP3    H232357   1.768   3.732   2.997  0.1003 -0.3337  0.2064
 3648TIP3   OH232358   3.205   6.094   4.952 -0.0920  0.0226 -0.1999
 3648TIP3    H132359   3.268   6.109   5.022 -0.6690  2.3714 -0.1093
 3648TIP3    H232360   3.259   6.078   4.875  0.8097  3.2708 -0.4206
 3649TIP3   OH232361   6.482   0.578   3.298  0.2758 -0.4254 -0.0596
 3649TIP3    H132362   6.421   0.564   3.226  2.8955 -3.1687 -2.0255
 3649TIP3    H232363   6.458   0.513   3.364 -1.2941  1.2008  1.0614
 3650TIP3   OH232364   5.003   1.596  16.298 -0.3381  0.1100  0.4057
 3650TIP3    H132365   5.057   1.634  16.229 -1.4182 -1.4805 -1.4024
 3650TIP3    H232366   4.952   1.669  16.333 -0.8748  0.7129 -1.5398
 3651TIP3   OH232367   5.198   3.019   1.744 -0.1269  0.3240  0.0662
 3651TIP3    H132368   5.173   3.056   1.659 -0.4045  0.3690  0.1651
 3651TIP3    H232369   5.284   3.056   1.763  1.2307 -1.8091 -1.4961
 3652TIP3   OH232370   4.800   4.003   0.788  0.1445  0.1904 -0.2776
 3652TIP3    H132371   4.850   4.077   0.754  1.6576 -0.4861  0.3653
 3652TIP3    H232372   4.710   4.021   0.762  0.8471  0.9203 -2.4726
 3653TIP3   OH232373   6.329   2.778  11.986  0.2211  0.3229  0.5799
 3653TIP3    H132374   6.418   2.748  12.004  0.0800  0.2836  1.2266
 3653TIP3    H232375   6.338   2.832  11.907  1.1991  2.0930  1.8368
 3654TIP3   OH232376   4.843   3.069   5.411  0.2045 -0.1310  0.4283
 3654TIP3    H132377   4.874   3.129   5.343 -0.9611 -0.3840 -0.3385
 3654TIP3    H232378   4.802   3.125   5.477 -0.3110 -0.0291  0.0221
 3655TIP3   OH232379   1.911   1.294  14.650 -0.1783  0.4358  0.2487
 3655TIP3    H132380   1.832   1.341  14.623  1.6064  2.1624 -2.5782
 3655TIP3    H232381   1.950   1.349  14.717 -0.4038  0.6200  0.2308
 3656TIP3   OH232382   6.617   2.867  16.806  0.4842  0.4181 -0.2226
 3656TIP3    H132383   6.628   2.959  16.829  2.7519  0.2092 -0.3182
 3656TIP3    H232384   6.524   2.860  16.781  0.2991  2.6959 -0.3996
 3657TIP3   OH232385   4.359   3.836  16.940 -0.1795 -0.4324  0.6636
 3657TIP3    H132386   4.450   3.807  16.933  0.1996  0.5783  1.1911
 3657TIP3    H232387   4.331   3.805  17.026  0.0655  0.2991  1.0151
 3658TIP3   OH232388   4.984   3.544   4.766 -0.1702  0.2973  0.0246
 3658TIP3    H132389   5.074   3.514   4.774 -0.5667 -0.3631  2.8950
 3658TIP3    H232390   4.939   3.471   4.723  0.4957  0.3491 -0.7916
 3659TIP3   OH232391   1.784   2.110   2.384 -0.1766 -0.4198 -0.2009
 3659TIP3    H132392   1.695   2.115   2.420  0.2137 -0.3987  0.7661
 3659TIP3    H232393   1.812   2.020   2.403  0.6420  0.0770  1.0237
 3660TIP3   OH232394   4.005   5.287   5.011  0.1258  0.7081 -0.3132
 3660TIP3    H132395   4.050   5.312   5.091  0.5360 -0.2192 -0.2425
 3660TIP3    H232396   4.067   5.308   4.941  0.0962  0.7481 -0.3281
 3661TIP3   OH232397   3.018   2.568   1.643 -0.6194 -0.0418  0.0879
 3661TIP3    H132398   2.976   2.649   1.671  0.3328  0.4295  0.1820
 3661TIP3    H232399   2.958   2.499   1.671 -1.3762  0.6208  0.1207
 3662TIP3   OH232400   2.847   2.962   2.031 -0.3245  0.4283 -0.8580
 3662TIP3    H132401   2.760   2.923   2.032  0.0495 -0.5478 -2.7075
 3662TIP3    H232402   2.884   2.938   2.117 -1.2366 -0.6535 -0.7366
 3663TIP3   OH232403   3.396   4.838   1.532 -0.4855  0.3416  0.1948
 3663TIP3    H132404   3.366   4.928   1.520  0.2613  0.6975  0.8887
 3663TIP3    H232405   3.422   4.835   1.624  2.2293  0.2502 -0.4958
 3664TIP3   OH232406   1.291   6.032  16.435 -0.3138 -0.4463  0.1609
 3664TIP3    H132407   1.320   5.980  16.510  0.0767  1.1007  1.1163
 3664TIP3    H232408   1.370   6.045  16.383 -0.3607 -0.5948  0.0510
 3665TIP3   OH232409   4.113   6.113  11.292  0.0227 -0.2869  0.2091
 3665TIP3    H132410   4.091   6.074  11.377  1.1370 -0.1085  0.5994
 3665TIP3    H232411   4.182   6.177  11.313  0.1761 -0.1113 -0.8060
 3666TIP3   OH232412   5.809   0.261  16.768 -0.1125 -0.4235 -0.4251
 3666TIP3    H132413   5.809   0.258  16.864 -1.2520  0.8809 -0.3539
 3666TIP3    H232414   5.814   0.354  16.748 -0.2111 -0.6715 -1.6360
 3667TIP3   OH232415   3.625   2.387  11.684  0.1670 -0.6147  0.3371
 3667TIP3    H132416   3.709   2.342  11.672 -0.2396 -1.2513 -0.1812
 3667TIP3    H232417   3.598   2.411  11.596 -0.1212 -0.2671  0.5205
 3668TIP3   OH232418   6.516   0.852   3.365 -0.0072  0.0634  0.3453
 3668TIP3    H132419   6.602   0.816   3.388 -0.4197  0.4585  2.7969
 3668TIP3    H232420   6.461   0.775   3.351  0.1280 -0.2312  1.3776
 3669TIP3   OH232421   1.478   3.342  15.927  0.7546 -0.1236 -0.1131
 3669TIP3    H132422   1.528   3.315  15.850  1.1885  0.3354  0.0012
 3669TIP3    H232423   1.473   3.438  15.920  3.4673  0.2981  1.9753
 3670TIP3   OH232424   5.403   5.258   1.384 -0.2914 -0.3160 -0.4145
 3670TIP3    H132425   5.422   5.226   1.472  0.0747 -2.3941 -1.1877
 3670TIP3    H232426   5.313   5.230   1.367 -0.6260  0.7244 -0.4608
 3671TIP3   OH232427   5.853   1.602  16.839 -0.1133  0.5800  0.4146
 3671TIP3    H132428   5.898   1.676  16.880 -0.3631  1.4028 -0.7698
 3671TIP3    H232429   5.817   1.637  16.758 -0.6411 -0.7302  0.0600
 3672TIP3   OH232430   1.316   4.173   5.221 -0.1703 -0.2318 -0.4281
 3672TIP3    H132431   1.244   4.167   5.284  1.5545  1.4843  1.9001
 3672TIP3    H232432   1.342   4.082   5.206 -0.4776 -0.6951  1.5922
 3673TIP3   OH232433   0.033   4.272  17.155 -0.7829 -0.3535  0.3554
 3673TIP3    H132434  -0.022   4.248  17.229  1.2157  2.7452  3.0783
 3673TIP3    H232435   0.065   4.359  17.175  1.7161 -0.2367 -3.1355
 3674TIP3   OH232436   1.228   3.624   1.063 -0.2218  0.2338  0.0087
 3674TIP3    H132437   1.177   3.693   1.105 -0.5183 -0.3803  0.6931
 3674TIP3    H232438   1.223   3.643   0.969 -1.4201  0.3947  0.0896
 3675TIP3   OH232439   6.431   3.419   2.230  0.2837 -0.4471  0.3165
 3675TIP3    H132440   6.485   3.471   2.290 -0.3811 -0.3891  0.8744
 3675TIP3    H232441   6.490   3.396   2.159  1.2504 -1.0019  1.2722
 3676TIP3   OH232442   6.258   6.382  12.701  0.3237 -0.5015  0.4737
 3676TIP3    H132443   6.314   6.385  12.623  1.3385 -0.0935  1.1939
 3676TIP3    H232444   6.266   6.292  12.732 -0.6104 -0.8517 -0.2447
 3677TIP3   OH232445   0.081   2.681  10.931 -0.2226  0.0038 -0.5958
 3677TIP3    H132446   0.087   2.767  10.887 -1.0920  0.1612 -0.4320
 3677TIP3    H232447   0.020   2.632  10.877  0.1622 -0.4678 -0.6040
 3678TIP3   OH232448   2.148   4.636  11.820 -0.6154 -0.0995  0.0769
 3678TIP3    H132449   2.133   4.699  11.890 -2.2827  1.0458 -1.2147
 3678TIP3    H232450   2.195   4.564  11.861 -0.6380  0.9894  2.1133
 3679TIP3   OH232451   6.374   6.380   4.100 -0.2164 -0.5634  0.1492
 3679TIP3    H132452   6.313   6.432   4.152 -1.6423 -0.2209 -1.7725
 3679TIP3    H232453   6.332   6.294   4.093  0.6889 -1.0827  0.7723
 3680TIP3   OH232454   0.099   0.182   4.376 -0.2720  0.2435  0.2963
 3680TIP3    H132455   0.028   0.125   4.404  1.0267 -1.2489  0.6745
 3680TIP3    H232456   0.121   0.233   4.454 -0.5707  0.3475  0.3153
 3681TIP3   OH232457   2.333   1.724   1.940 -0.4173 -0.0137  0.3759
 3681TIP3    H132458   2.247   1.683   1.933 -0.8063  0.9790 -1.3224
 3681TIP3    H232459   2.335   1.758   2.029 -1.8869  0.1159  0.3984
 3682TIP3   OH232460   5.659   0.291  12.877  0.1142 -0.2635  0.1453
 3682TIP3    H132461   5.728   0.330  12.930 -0.3473  1.4514 -0.4198
 3682TIP3    H232462   5.578   0.324  12.916 -0.2879 -0.4486 -0.5204
 3683TIP3   OH232463   6.210   0.613  12.197 -0.0608  0.6310  0.3972
 3683TIP3    H132464   6.163   0.532  12.213 -1.6942  1.3736 -0.4335
 3683TIP3    H232465   6.244   0.604  12.108 -2.2077  1.6998 -0.6122
 3684TIP3   OH232466   4.113   1.010   4.787 -0.2274 -0.6407 -0.3233
 3684TIP3    H132467   4.085   0.961   4.710 -0.2821 -2.1585  0.6301
 3684TIP3    H232468   4.033   1.021   4.839 -0.6764  2.2706 -1.3929
 3685TIP3   OH232469   5.513   5.652  13.468 -0.1814  0.5326  0.5460
 3685TIP3    H132470   5.560   5.595  13.530  1.6293 -0.6337 -1.7558
 3685TIP3    H232471   5.575   5.722  13.449 -0.0791  0.0478 -1.0381
 3686TIP3   OH232472   1.328   4.780   2.772 -0.1810  0.0763 -0.1554
 3686TIP3    H132473   1.307   4.831   2.694 -1.6343 -1.4802 -0.8284
 3686TIP3    H232474   1.423   4.767   2.767  0.0075  1.4565 -0.7010
 3687TIP3   OH232475   2.503   1.013  15.831 -0.0357 -0.4476 -0.3314
 3687TIP3    H132476   2.475   1.091  15.878 -2.3366 -1.1991 -0.2876
 3687TIP3    H232477   2.530   1.045  15.745 -0.4212  0.4477 -0.1313
 3688TIP3   OH232478   3.785   0.728   2.480 -0.3226 -0.0869  0.0496
 3688TIP3    H132479   3.860   0.683   2.517 -0.1562  0.0100 -0.1673
 3688TIP3    H232480   3.779   0.810   2.530 -0.4673 -0.2335  0.2698
 3689TIP3   OH232481   3.154   1.077  13.419  0.4582 -0.1549 -0.0688
 3689TIP3    H132482   3.102   1.065  13.340  0.5610 -1.4201  0.0426
 3689TIP3    H232483   3.230   1.128  13.391 -0.5304  1.2026 -0.3535
 3690TIP3   OH232484   1.691   6.104  11.636 -0.0694  0.3839 -0.2843
 3690TIP3    H132485   1.777   6.141  11.656  0.4599 -0.2924 -1.2211
 3690TIP3    H232486   1.657   6.158  11.565 -1.4785  2.1138  1.5854
 3691TIP3   OH232487   2.892   6.073   3.910 -0.6289  0.2040  0.0518
 3691TIP3    H132488   2.915   6.045   3.999 -2.4942 -0.5974  0.3413
 3691TIP3    H232489   2.843   6.154   3.923 -2.3830 -0.7974 -0.0550
 3692TIP3   OH232490   2.529   4.036   5.941  0.7691 -0.1189  0.4732
 3692TIP3    H132491   2.601   3.993   5.986  0.8766 -0.8037 -0.3234
 3692TIP3    H232492   2.559   4.126   5.928  2.5814 -0.9660 -2.0051
 3693TIP3   OH232493   3.080   3.329  16.781  0.2489 -0.4733  0.0358
 3693TIP3    H132494   3.161   3.300  16.822  1.8492  0.3770 -2.2971
 3693TIP3    H232495   3.059   3.260  16.718  0.0804  0.0706 -0.5132
 3694TIP3   OH232496   3.037   1.064  15.075 -0.1428  0.5401 -0.6035
 3694TIP3    H132497   3.130   1.082  15.064  0.1332  0.1200  0.8480
 3694TIP3    H232498   3.003   1.056  14.985  1.3650 -0.0748 -1.1521
 3695TIP3   OH232499   6.363   4.962   4.771 -0.1417 -1.0326  0.3469
 3695TIP3    H132500   6.304   4.958   4.846 -0.8081 -2.5055 -0.2122
 3695TIP3    H232501   6.430   5.025   4.797  0.1972 -2.1977  2.5782
 3696TIP3   OH232502   6.486   0.172   2.739 -0.1175 -0.6413  0.0514
 3696TIP3    H132503   6.438   0.192   2.659 -1.0475 -1.7200  0.3206
 3696TIP3    H232504   6.558   0.116   2.710  0.5737  0.3595 -0.2435
 3697TIP3   OH232505   6.397   1.379   3.111 -0.1429 -0.0187 -0.4672
 3697TIP3    H132506   6.380   1.324   3.035 -2.5833 -0.3034  0.1890
 3697TIP3    H232507   6.492   1.376   3.123 -0.0743 -3.2249 -1.0982
 3698TIP3   OH232508   4.177   4.519   5.403  0.3565  0.0158  0.4459
 3698TIP3    H132509   4.176   4.452   5.335  1.5058  1.1395 -0.7396
 3698TIP3    H232510   4.248   4.492   5.462 -1.4333 -1.6245  1.9876
 3699TIP3   OH232511   0.060   0.192  13.648  0.0258  0.0240 -0.2372
 3699TIP3    H132512   0.019   0.268  13.606 -0.8867 -0.7584 -0.8090
 3699TIP3    H232513   0.106   0.148  13.576  1.1751  0.4094  0.2328
 3700TIP3   OH232514   2.813   0.850   3.756  0.2489  0.1327 -0.4299
 3700TIP3    H132515   2.832   0.773   3.809 -1.1059 -0.4121 -0.7056
 3700TIP3    H232516   2.734   0.888   3.796 -0.6878 -0.1776 -1.9071
 3701TIP3   OH232517   3.777   6.081  15.292  0.1988 -0.2923 -0.0315
 3701TIP3    H132518   3.735   6.126  15.218  0.2726 -0.9721 -0.4919
 3701TIP3    H232519   3.749   5.990  15.284  1.9854 -0.8433 -0.5339
 3702TIP3   OH232520   1.869   4.478  14.869 -0.0960 -0.6351  0.3662
 3702TIP3    H132521   1.794   4.533  14.891 -1.4314 -1.2758 -2.2041
 3702TIP3    H232522   1.872   4.478  14.773  3.1591 -0.7454  0.3696
 3703TIP3   OH232523   3.503   0.422   0.584 -0.3601 -0.1897 -0.0502
 3703TIP3    H132524   3.490   0.479   0.660 -0.5426 -0.2916 -0.0051
 3703TIP3    H232525   3.452   0.343   0.604 -1.1731  0.1620 -0.6946
 3704TIP3   OH232526   3.191   0.216  11.070  0.0023  0.0651 -0.2694
 3704TIP3    H132527   3.247   0.245  10.999 -0.2581 -1.5797 -1.1878
 3704TIP3    H232528   3.239   0.239  11.150 -0.2158  2.9944 -0.8616
 3705TIP3   OH232529   5.379   5.203  10.928 -0.1305  0.5510  0.4590
 3705TIP3    H132530   5.455   5.146  10.940 -0.1666  0.5497  0.6741
 3705TIP3    H232531   5.339   5.209  11.014 -0.5351  0.3273  0.2889
 3706TIP3   OH232532   2.277   3.700  13.442 -0.3734  0.2590 -0.1118
 3706TIP3    H132533   2.251   3.780  13.397 -0.9448 -0.0403 -0.3159
 3706TIP3    H232534   2.343   3.729  13.505  0.7913  0.6169 -1.4389
 3707TIP3   OH232535   2.499   3.865  14.612  0.1566  0.4953 -0.5586
 3707TIP3    H132536   2.536   3.903  14.533 -1.0473  0.7398 -1.0187
 3707TIP3    H232537   2.507   3.770  14.600  0.3840  0.5404 -0.7643
 3708TIP3   OH232538   6.037   1.875  11.839  0.1355  0.4034  0.2636
 3708TIP3    H132539   6.020   1.856  11.931 -0.2549  0.6945  0.2547
 3708TIP3    H232540   5.983   1.952  11.820 -1.4778 -0.8868 -0.7365
 3709TIP3   OH232541   6.035   3.919   0.299 -0.2058 -0.1566  0.6772
 3709TIP3    H132542   5.991   3.857   0.240  0.5057  0.0380 -0.0779
 3709TIP3    H232543   5.964   3.973   0.335 -0.7630 -1.0142  0.8781
 3710TIP3   OH232544   2.137   2.107  13.209 -0.2196 -0.5173  0.0030
 3710TIP3    H132545   2.121   2.200  13.224  1.2772 -0.0264 -1.2386
 3710TIP3    H232546   2.071   2.062  13.263  0.3025  1.1939  2.1781
 3711TIP3   OH232547   1.050   1.321  15.173  0.0088  0.7185  0.2335
 3711TIP3    H132548   1.078   1.231  15.158  2.9057  1.5975 -0.2108
 3711TIP3    H232549   1.074   1.340  15.263 -4.0727  0.0049  1.6944
 3712TIP3   OH232550   2.237   6.780   2.201 -0.1383 -0.7762  0.1152
 3712TIP3    H132551   2.169   6.761   2.136 -1.8124  1.4384  1.0585
 3712TIP3    H232552   2.215   6.725   2.276  0.5509 -1.7993 -0.4200
 3713TIP3   OH232553   6.223   4.019  13.587  0.4305  0.1162  0.0966
 3713TIP3    H132554   6.220   3.967  13.506  0.9304 -0.6240  0.5391
 3713TIP3    H232555   6.300   3.985  13.634  0.6130  1.0851  0.5165
 3714TIP3   OH232556   2.231   0.045  13.046 -0.4788 -0.0677 -0.0307
 3714TIP3    H132557   2.160  -0.013  13.075 -1.4247  0.5940 -0.9376
 3714TIP3    H232558   2.201   0.078  12.961  1.5097 -0.7509 -1.0431
 3715TIP3   OH232559   6.640   0.845  15.738  0.2852 -0.0390 -0.5429
 3715TIP3    H132560   6.625   0.794  15.817  0.7018 -0.2580 -0.6043
 3715TIP3    H232561   6.694   0.789  15.683  2.2384  1.1316  0.0948
 3716TIP3   OH232562   0.272   1.840   3.282 -0.3277 -0.2763  0.0758
 3716TIP3    H132563   0.280   1.749   3.309  0.6172  0.3811  2.2340
 3716TIP3    H232564   0.200   1.840   3.218  0.1298 -2.5975 -0.5236
 3717TIP3   OH232565   3.167   0.500  11.458  0.1635  0.3992  0.1942
 3717TIP3    H132566   3.119   0.583  11.463 -1.4101 -0.1162 -3.4353
 3717TIP3    H232567   3.100   0.435  11.440  1.8062 -0.9556 -1.3378
 3718TIP3   OH232568   4.046   3.575  12.394  0.4934  0.3992 -0.0315
 3718TIP3    H132569   4.099   3.653  12.410  1.1026 -0.1096  0.4985
 3718TIP3    H232570   4.077   3.511  12.458 -1.0172  0.1919  0.5397
 3719TIP3   OH232571   3.639   6.535   2.674  0.4554 -0.2074  0.1692
 3719TIP3    H132572   3.613   6.626   2.682  0.2054 -0.2569 -0.0528
 3719TIP3    H232573   3.591   6.489   2.743 -1.1543 -0.5239 -1.0928
 3720TIP3   OH232574   5.847   1.676   1.137  0.6115 -0.1586  0.7303
 3720TIP3    H132575   5.814   1.766   1.135  0.1300 -0.3445  0.0189
 3720TIP3    H232576   5.819   1.638   1.054  0.9737 -0.9139  0.9424
 3721TIP3   OH232577   4.273   2.894   2.885  0.1722  0.4114  0.1316
 3721TIP3    H132578   4.365   2.875   2.864  0.4956  1.2195  0.7677
 3721TIP3    H232579   4.226   2.816   2.858  0.7401  0.8179 -2.2670
 3722TIP3   OH232580   4.465   4.368   1.859  1.0877 -0.0212 -0.2983
 3722TIP3    H132581   4.534   4.312   1.893  0.8246  0.0645  0.3937
 3722TIP3    H232582   4.493   4.457   1.881  1.5060  0.1412 -1.3954
 3723TIP3   OH232583   5.632   2.258   0.619 -0.4443 -0.3764  0.3680
 3723TIP3    H132584   5.618   2.336   0.565 -0.6697 -0.4164  0.3660
 3723TIP3    H232585   5.639   2.293   0.708  0.7860 -0.2284  0.2243
 3724TIP3   OH232586   5.199   1.750   4.566  0.3708  0.8809  0.0302
 3724TIP3    H132587   5.212   1.782   4.655  3.6412 -1.1067  0.4379
 3724TIP3    H232588   5.165   1.662   4.576 -1.1946  1.3456 -0.8202
 3725TIP3   OH232589   3.260   2.890  15.644  0.0053  0.0402  0.3965
 3725TIP3    H132590   3.333   2.894  15.582  1.4415  1.6902  2.0579
 3725TIP3    H232591   3.272   2.806  15.689  0.1854 -0.2140 -0.1150
 3726TIP3   OH232592   4.575   1.195  15.760  0.6009  0.3077  0.0204
 3726TIP3    H132593   4.545   1.236  15.841  0.3637  0.0809  0.0460
 3726TIP3    H232594   4.670   1.211  15.759  0.4578  1.1870 -0.1610
 3727TIP3   OH232595   4.451   6.657   3.900  0.5479  0.2001 -0.1031
 3727TIP3    H132596   4.485   6.586   3.953  0.9283 -0.1599 -0.8032
 3727TIP3    H232597   4.393   6.615   3.837  0.4092  0.5656 -0.2216
 3728TIP3   OH232598   1.586   4.272   2.624  0.1591  0.0822 -0.3888
 3728TIP3    H132599   1.629   4.218   2.690 -0.9102 -2.5702 -1.7346
 3728TIP3    H232600   1.589   4.220   2.544 -0.3300  2.3429 -1.9920
 3729TIP3   OH232601   2.102   2.616   0.115  0.3147  0.5831 -0.2577
 3729TIP3    H132602   2.094   2.659   0.030  1.2868  0.9239 -0.1983
 3729TIP3    H232603   2.057   2.673   0.176  1.2841  1.3518 -0.2399
 3730TIP3   OH232604   1.500   3.205  13.232 -0.2252 -0.0925 -0.0377
 3730TIP3    H132605   1.554   3.128  13.249  0.9499  0.6213 -0.4297
 3730TIP3    H232606   1.547   3.277  13.275 -0.0116  0.8158 -1.7132
 3731TIP3   OH232607   3.878   6.104  16.139  0.2030  0.3994 -0.2373
 3731TIP3    H132608   3.872   6.193  16.174  0.5884  0.7909 -1.1382
 3731TIP3    H232609   3.953   6.106  16.079 -0.7230 -0.1101 -1.4598
 3732TIP3   OH232610   2.185   2.481  15.190  0.7079  0.1126  0.3384
 3732TIP3    H132611   2.123   2.474  15.263 -1.9220  1.2458 -1.6292
 3732TIP3    H232612   2.176   2.399  15.143  1.8407 -0.3102  0.8310
 3733TIP3   OH232613   0.196   3.738   4.780 -0.1913  0.1624 -0.3300
 3733TIP3    H132614   0.268   3.798   4.762  1.0972 -0.9641  0.8949
 3733TIP3    H232615   0.118   3.794   4.782  0.8181  1.6070 -0.3020
 3734TIP3   OH232616   3.837   4.755  13.715  0.2422  0.0239 -0.5805
 3734TIP3    H132617   3.880   4.818  13.773  1.6142 -0.2924 -1.2264
 3734TIP3    H232618   3.874   4.670  13.739 -2.2317 -0.7577  0.9066
 3735TIP3   OH232619   3.799   0.777   5.207 -0.0705  0.5409  0.7999
 3735TIP3    H132620   3.711   0.816   5.211 -0.1521  0.3353  1.0142
 3735TIP3    H232621   3.856   0.842   5.247  0.0126  1.0592 -0.1267
 3736TIP3   OH232622   5.287   2.609   2.070  0.3284  0.0470  0.1389
 3736TIP3    H132623   5.348   2.564   2.011  0.2402  0.5121 -0.3169
 3736TIP3    H232624   5.292   2.701   2.044 -0.8143  0.0474 -0.1280
 3737TIP3   OH232625   0.773   3.639  13.341  0.5713 -0.1022 -0.0560
 3737TIP3    H132626   0.711   3.679  13.402 -0.3598 -0.0830 -0.9888
 3737TIP3    H232627   0.748   3.547  13.339 -1.2775  0.3227 -2.4594
 3738TIP3   OH232628   1.384   6.229  11.337  0.0129  0.4062  1.2418
 3738TIP3    H132629   1.435   6.293  11.386  1.4215 -0.6615  1.2010
 3738TIP3    H232630   1.369   6.157  11.399 -1.8820  0.8808  1.4085
 3739TIP3   OH232631   6.206   1.885   1.389 -0.1444 -0.0806 -0.4204
 3739TIP3    H132632   6.125   1.870   1.438  0.0600  0.6064  0.1466
 3739TIP3    H232633   6.178   1.915   1.303 -0.5116 -1.2418 -0.7261
 3740TIP3   OH232634   6.637   1.956   0.475  0.0921  0.1106  0.2044
 3740TIP3    H132635   6.681   1.904   0.542  0.2710 -1.4522 -1.0769
 3740TIP3    H232636   6.559   1.905   0.452  0.2386  0.4062 -1.0349
 3741TIP3   OH232637   1.864   4.634   1.047 -0.0664 -0.2347  0.0334
 3741TIP3    H132638   1.819   4.685   0.980  0.0470  0.1046  0.2161
 3741TIP3    H232639   1.956   4.658   1.037 -0.1803  0.6407  1.0306
 3742TIP3   OH232640   1.815   5.929  12.900  0.4979 -0.2680  0.2128
 3742TIP3    H132641   1.886   5.941  12.963  0.6298  0.4558 -0.0679
 3742TIP3    H232642   1.823   6.003  12.840 -1.6379  0.8908  1.2616
 3743TIP3   OH232643   5.776   3.269  13.485 -0.2334 -0.4495 -0.0253
 3743TIP3    H132644   5.724   3.195  13.453 -1.7009  0.0491  1.0992
 3743TIP3    H232645   5.834   3.290  13.412 -0.1249 -2.3721 -0.5622
 3744TIP3   OH232646   6.431   4.088   1.193  0.0865  0.0098 -0.0687
 3744TIP3    H132647   6.460   4.034   1.266  2.6234  0.5295 -0.5820
 3744TIP3    H232648   6.398   4.026   1.128 -0.3551 -0.5983  0.7163
 3745TIP3   OH232649   3.921   5.129   3.741 -0.0911  0.0826 -0.5465
 3745TIP3    H132650   3.977   5.129   3.664  0.6637  0.8149 -0.0211
 3745TIP3    H232651   3.982   5.120   3.815 -0.9562 -3.2310 -0.0787
 3746TIP3   OH232652   4.578   1.105   0.132  0.6921 -0.3069 -0.1515
 3746TIP3    H132653   4.530   1.024   0.147  0.3285  0.2010  1.6370
 3746TIP3    H232654   4.527   1.150   0.064 -0.6259 -0.3925  0.7442
 3747TIP3   OH232655   0.783   6.184   0.625 -0.2099 -0.0298 -0.4055
 3747TIP3    H132656   0.716   6.249   0.647  0.4983  0.4591  0.3636
 3747TIP3    H232657   0.756   6.105   0.670  0.8683  0.7743  1.7834
 3748TIP3   OH232658   2.999   2.384  15.669  0.0510  0.3245  0.0957
 3748TIP3    H132659   2.962   2.413  15.752  0.6625 -0.4878  0.6750
 3748TIP3    H232660   2.990   2.459  15.610 -0.5009  0.8643  0.8576
 3749TIP3   OH232661   1.793   5.947  13.346  0.0460 -0.6394  0.1864
 3749TIP3    H132662   1.755   6.019  13.295 -1.1087 -0.3738  1.3672
 3749TIP3    H232663   1.795   5.873  13.286  0.6119  0.1752 -0.8437
 3750TIP3   OH232664   0.180   4.104  14.933  0.0957 -0.4481  0.3559
 3750TIP3    H132665   0.134   4.153  15.000  1.8072  1.7579  0.0398
 3750TIP3    H232666   0.214   4.027  14.979 -0.0549  0.2381  1.6732
 3751TIP3   OH232667   4.549   3.639   0.317 -0.4181 -0.3816  0.1495
 3751TIP3    H132668   4.466   3.687   0.324 -0.0741  0.6044 -1.8898
 3751TIP3    H232669   4.532   3.572   0.250  0.6580  0.4321 -0.9827
 3752TIP3   OH232670   6.290   3.441   3.580  0.4709  0.2627  0.3739
 3752TIP3    H132671   6.228   3.461   3.651 -0.6672 -1.2271 -0.1348
 3752TIP3    H232672   6.242   3.379   3.524  2.2666 -0.5701 -0.2999
 3753TIP3   OH232673   2.888   6.080  13.578 -0.0319 -0.1643 -0.3117
 3753TIP3    H132674   2.832   6.008  13.607  0.0794 -0.1157  0.0253
 3753TIP3    H232675   2.836   6.126  13.512 -0.1169 -0.5310 -0.5029
 3754TIP3   OH232676   1.345   5.567   1.864  0.0172  0.0137  0.3639
 3754TIP3    H132677   1.266   5.618   1.879 -0.1066 -0.1464  0.2698
 3754TIP3    H232678   1.319   5.477   1.885  0.4551  0.0984  1.2893
 3755TIP3   OH232679   0.517   6.228  16.744  0.1885 -0.3896 -0.2194
 3755TIP3    H132680   0.447   6.281  16.705 -0.4612 -2.0553 -1.4335
 3755TIP3    H232681   0.472   6.169  16.804  0.8445  0.1068  0.7743
 3756TIP3   OH232682   1.405   1.857  12.979 -0.5454  0.0561 -0.2446
 3756TIP3    H132683   1.356   1.825  12.903  2.6324 -1.9550 -1.6746
 3756TIP3    H232684   1.455   1.931  12.946  0.2388 -0.3135  0.0821
 3757TIP3   OH232685   6.554   1.288   4.532  0.4239  0.3261 -0.3887
 3757TIP3    H132686   6.621   1.312   4.596 -0.2348  1.8114 -0.2113
 3757TIP3    H232687   6.580   1.201   4.501  1.0105 -0.2213  1.5253
 3758TIP3   OH232688   5.087   1.637   5.763 -0.2776 -0.3723 -0.1451
 3758TIP3    H132689   5.036   1.567   5.722 -1.9647  1.2248 -0.9474
 3758TIP3    H232690   5.045   1.651   5.848 -2.0715  1.7139 -1.2637
 3759TIP3   OH232691   6.768   5.207   4.496 -0.3713  0.0721 -0.1274
 3759TIP3    H132692   6.838   5.272   4.492 -0.4160  0.0657 -1.1799
 3759TIP3    H232693   6.688   5.259   4.486 -0.5963  0.1614  1.6867
 3760TIP3   OH232694   0.661   4.039  11.413 -0.0708 -0.0835 -0.5662
 3760TIP3    H132695   0.742   4.004  11.376 -0.7744 -2.2932 -0.1815
 3760TIP3    H232696   0.592   4.007  11.354 -0.7728  0.6070 -0.1359
 3761TIP3   OH232697   2.777   2.188  16.118  0.4424  0.2773  0.2672
 3761TIP3    H132698   2.801   2.237  16.196 -2.1081 -0.2618  1.4784
 3761TIP3    H232699   2.733   2.109  16.151 -2.8644  1.1395 -1.5841
 3762TIP3   OH232700   4.072   0.453   1.055  0.3404 -0.0370 -0.2547
 3762TIP3    H132701   4.007   0.521   1.072 -0.0413 -0.3400 -0.4974
 3762TIP3    H232702   4.145   0.475   1.112 -0.6393 -0.6466  1.2836
 3763TIP3   OH232703   3.316   5.105   3.682 -0.6418 -0.2144 -0.0594
 3763TIP3    H132704   3.293   5.079   3.771 -0.2388 -0.8605 -0.1430
 3763TIP3    H232705   3.253   5.174   3.660  0.4038  1.2994  1.4044
 3764TIP3   OH232706   6.147   6.047   3.399  0.3706 -0.2582 -0.5685
 3764TIP3    H132707   6.173   6.105   3.470  0.3540  0.2279 -0.9547
 3764TIP3    H232708   6.055   6.067   3.383  0.4828 -0.0758 -0.9973
 3765TIP3   OH232709   5.629   5.978  14.129 -0.3769 -0.0134 -0.2505
 3765TIP3    H132710   5.699   5.916  14.112 -0.9067 -0.4853 -0.7652
 3765TIP3    H232711   5.654   6.022  14.210  1.5073  1.2512 -1.4534
 3766TIP3   OH232712   1.419   4.700   0.389 -0.3479 -0.2630 -0.3027
 3766TIP3    H132713   1.468   4.622   0.413 -1.3694 -1.7538 -2.6763
 3766TIP3    H232714   1.468   4.739   0.317 -1.3884 -0.4508 -1.1437
 3767TIP3   OH232715   5.315   3.022   4.137  0.5860  0.0253 -0.1163
 3767TIP3    H132716   5.262   3.076   4.079 -1.2865 -0.3598  1.1539
 3767TIP3    H232717   5.326   2.940   4.090  3.3020  1.3236 -1.9835
 3768TIP3   OH232718   1.329   5.532   2.590  0.3459  0.7661 -0.2264
 3768TIP3    H132719   1.406   5.580   2.618  0.2567  0.6275  0.2768
 3768TIP3    H232720   1.331   5.536   2.494  1.7380 -0.4095 -0.2876
 3769TIP3   OH232721   3.629   0.342   5.511 -0.1904  0.2157 -0.0486
 3769TIP3    H132722   3.593   0.322   5.597  0.5735 -1.7254 -0.1416
 3769TIP3    H232723   3.702   0.401   5.528 -2.0201  2.5304  0.3029
 3770TIP3   OH232724   4.556   5.335   1.893 -0.2300  0.0947  0.0227
 3770TIP3    H132725   4.502   5.384   1.830 -1.2134  0.8034  1.3576
 3770TIP3    H232726   4.630   5.304   1.841 -1.9660 -1.0547 -1.9422
 3771TIP3   OH232727   3.296   2.716   5.643 -0.5637  0.4140  0.1325
 3771TIP3    H132728   3.374   2.743   5.595  0.1085 -3.0295 -0.9900
 3771TIP3    H232729   3.329   2.680   5.725 -0.8645 -1.4121 -0.5045
 3772TIP3   OH232730   4.431   3.735  16.464 -0.1966  0.0129 -0.3479
 3772TIP3    H132731   4.403   3.652  16.426 -1.2888  0.1862  0.0262
 3772TIP3    H232732   4.349   3.776  16.492  0.2884  1.4081 -0.9168
 3773TIP3   OH232733   4.172   0.553  10.985  0.0216  0.3767  0.3239
 3773TIP3    H132734   4.147   0.624  10.926  1.6028  0.3698 -0.3964
 3773TIP3    H232735   4.172   0.475  10.930  0.6713  0.2284  0.5228
 3774TIP3   OH232736   0.703   5.231   0.150  0.1697  0.0658 -0.3745
 3774TIP3    H132737   0.670   5.302   0.095 -0.7520  0.0283  0.1086
 3774TIP3    H232738   0.764   5.184   0.093 -0.9426 -0.1225 -1.4644
 3775TIP3   OH232739   2.837   1.288  16.806 -0.4124  0.1569  0.1971
 3775TIP3    H132740   2.795   1.202  16.804  0.8875 -0.5009  0.0790
 3775TIP3    H232741   2.873   1.298  16.718  0.3347  0.3566  0.5197
 3776TIP3   OH232742   0.562   4.981   1.773 -0.1229 -0.0485  0.1959
 3776TIP3    H132743   0.593   5.071   1.789 -2.6254  0.5477  2.5375
 3776TIP3    H232744   0.493   4.991   1.707 -2.1777  0.2697  2.2575
 3777TIP3   OH232745   2.470   1.895  14.146  0.1861  0.1303  0.0441
 3777TIP3    H132746   2.511   1.818  14.185 -0.3041  0.1096  0.5428
 3777TIP3    H232747   2.534   1.929  14.085  0.2196 -0.9725 -0.5569
 3778TIP3   OH232748   5.928   0.969  15.049 -0.7141 -0.1261  0.2447
 3778TIP3    H132749   5.852   1.017  15.083 -0.5016  0.2280  0.2206
 3778TIP3    H232750   5.991   0.969  15.121  0.0753  1.3584 -0.4026
 3779TIP3   OH232751   4.373   3.581   2.426 -0.5133 -0.0263 -0.1290
 3779TIP3    H132752   4.299   3.619   2.378  1.7183  1.6701 -2.4731
 3779TIP3    H232753   4.378   3.633   2.506 -1.8320 -0.1870  0.0930
 3780TIP3   OH232754   4.824   0.785  13.585  0.2248 -0.2785  0.1219
 3780TIP3    H132755   4.871   0.775  13.503 -0.2833 -2.0484 -0.0007
 3780TIP3    H232756   4.861   0.863  13.625  0.4091  0.6834 -1.8156
 3781TIP3   OH232757   0.046   6.606   4.893 -0.5493 -0.2559 -0.4612
 3781TIP3    H132758  -0.010   6.665   4.944 -2.1951 -2.0978  0.0135
 3781TIP3    H232759   0.010   6.519   4.910  0.7421 -1.2440 -2.4117
 3782TIP3   OH232760   3.446   2.140  13.290  0.3552  0.1377 -0.0484
 3782TIP3    H132761   3.352   2.138  13.309  0.3894  0.5791  0.1765
 3782TIP3    H232762   3.473   2.230  13.309  0.8874 -0.0695  0.2073
 3783TIP3   OH232763   1.602   5.381   2.877 -0.2556 -0.0352  0.0304
 3783TIP3    H132764   1.548   5.343   2.809 -0.0677 -0.3489  0.0554
 3783TIP3    H232765   1.619   5.471   2.847  0.4079 -0.3837 -0.6866
 3784TIP3   OH232766   5.547   4.340  11.361 -0.3313  0.2093 -0.3289
 3784TIP3    H132767   5.584   4.331  11.449 -1.6566 -0.8770  0.1344
 3784TIP3    H232768   5.532   4.250  11.332  0.7529  0.5273 -1.9754
 3785TIP3   OH232769   2.146   6.309  14.913 -0.0484  0.8725  0.1322
 3785TIP3    H132770   2.053   6.307  14.938 -0.2381 -0.8195 -0.5880
 3785TIP3    H232771   2.193   6.318  14.996 -0.8424  2.0702  0.4853
 3786TIP3   OH232772   4.097   4.766   1.409 -0.3136  0.1642 -0.6961
 3786TIP3    H132773   4.119   4.680   1.373  1.4497  1.1987 -2.2919
 3786TIP3    H232774   4.181   4.810   1.418 -1.0455  1.2721  1.4302
 3787TIP3   OH232775   0.852   5.998  11.555  0.3602 -0.2491 -0.5320
 3787TIP3    H132776   0.844   5.903  11.566  1.2721 -0.1070  1.9718
 3787TIP3    H232777   0.933   6.009  11.505  1.0656 -0.7740  0.4620
 3788TIP3   OH232778   5.751   6.408   4.492  0.0148 -0.8475 -0.0238
 3788TIP3    H132779   5.677   6.394   4.433 -0.9887  0.8409  0.7867
 3788TIP3    H232780   5.826   6.374   4.444 -1.0557 -1.2501 -1.4725
 3789TIP3   OH232781   5.937   0.878  13.370 -0.5054  0.3163  0.1083
 3789TIP3    H132782   6.016   0.931  13.379 -0.8586  0.7779  0.5483
 3789TIP3    H232783   5.895   0.910  13.290 -0.9101  0.9647  0.5745
 3790TIP3   OH232784   0.294   1.566  12.029 -0.3034  0.0049  0.2368
 3790TIP3    H132785   0.247   1.485  12.009 -0.0775 -0.7142  2.3248
 3790TIP3    H232786   0.229   1.635  12.016 -0.5237 -0.4703 -1.5014
 3791TIP3   OH232787   6.652   4.243  13.226  0.0880  0.1752  0.1125
 3791TIP3    H132788   6.612   4.192  13.297  2.2360  0.5032  1.6475
 3791TIP3    H232789   6.717   4.185  13.188 -0.7937  0.1345 -1.4224
 3792TIP3   OH232790   4.879   3.913   1.347  0.3884  0.5510  0.1405
 3792TIP3    H132791   4.826   3.953   1.415 -2.2911  0.2195 -1.6272
 3792TIP3    H232792   4.901   3.984   1.287 -1.1967  0.1104 -1.0223
 3793TIP3   OH232793   3.653   3.362   5.466  0.3987 -0.1340 -0.7086
 3793TIP3    H132794   3.736   3.372   5.420  1.0609  0.8583  0.6353
 3793TIP3    H232795   3.599   3.435   5.436  1.3313  1.3394  1.0570
 3794TIP3   OH232796   3.890   3.319  16.877  0.3600  0.0757  0.0081
 3794TIP3    H132797   3.802   3.338  16.912  0.2388 -0.2538 -0.1185
 3794TIP3    H232798   3.883   3.339  16.783  0.4213  0.0453 -0.0027
 3795TIP3   OH232799   0.511   2.266  13.761  0.1263  0.1519  0.5023
 3795TIP3    H132800   0.541   2.269  13.852  0.9066 -1.1753  0.3099
 3795TIP3    H232801   0.525   2.355  13.729 -0.8768  0.8432  1.8806
 3796TIP3   OH232802   6.443   6.252  11.022  0.2316 -0.5755 -0.3444
 3796TIP3    H132803   6.520   6.308  11.012 -0.5059  0.2528 -1.6642
 3796TIP3    H232804   6.400   6.287  11.101 -1.0770  1.9033 -2.0081
 3797TIP3   OH232805   5.526   5.924  10.891  0.1712  0.4841 -0.6180
 3797TIP3    H132806   5.596   5.903  10.830 -0.3737 -0.0477 -1.0759
 3797TIP3    H232807   5.465   5.978  10.840 -0.6902 -0.6301 -0.8135
 3798TIP3   OH232808   1.380   6.156   0.546  0.3868  0.3533 -0.0381
 3798TIP3    H132809   1.475   6.160   0.537  0.3968  1.9002  0.4482
 3798TIP3    H232810   1.347   6.172   0.457  0.5991  3.8530  0.3746
 3799TIP3   OH232811   0.775   4.984  13.032 -0.1847  0.4237  0.3522
 3799TIP3    H132812   0.679   4.982  13.031 -0.2171  0.5123  1.7578
 3799TIP3    H232813   0.796   5.078  13.037 -0.1148  0.3287  2.8923
 3800TIP3   OH232814   1.774   4.916   0.088 -0.1660 -0.1109 -0.2395
 3800TIP3    H132815   1.685   4.883   0.098 -0.2320  0.2925  0.6050
 3800TIP3    H232816   1.784   4.981   0.158  0.9287 -0.4447 -0.0653
 3801TIP3   OH232817   0.913   3.847   4.582  0.1120  0.2273  0.0943
 3801TIP3    H132818   0.973   3.820   4.651 -1.5328  1.1468  1.9710
 3801TIP3    H232819   0.908   3.771   4.524  3.3875  0.2677 -0.4612
 3802TIP3   OH232820   1.000   0.587  11.855  0.3058 -0.5008 -0.0283
 3802TIP3    H132821   0.999   0.683  11.859  0.0701 -0.4677 -0.7014
 3802TIP3    H232822   1.063   0.567  11.786  1.1417 -0.8702  0.8235
 3803TIP3   OH232823   3.813   4.541  11.091 -0.1352 -0.1708  0.3472
 3803TIP3    H132824   3.722   4.558  11.066  0.2761  1.2181 -0.2873
 3803TIP3    H232825   3.816   4.447  11.109 -1.8029 -0.1565  0.8590
 3804TIP3   OH232826   2.827   2.453   1.139 -0.1684 -0.9795 -0.0275
 3804TIP3    H132827   2.839   2.359   1.155  0.5639 -0.6708  1.4007
 3804TIP3    H232828   2.899   2.477   1.081 -1.4527 -1.6417 -1.9888
 3805TIP3   OH232829   5.384   4.843  16.786 -0.2699  0.4359 -0.2162
 3805TIP3    H132830   5.345   4.864  16.701 -0.7406  0.5818  0.0386
 3805TIP3    H232831   5.478   4.846  16.770 -0.3526  0.8382 -0.6430
 3806TIP3   OH232832   2.230   3.977   3.441 -0.3215  0.2489  0.5151
 3806TIP3    H132833   2.250   3.885   3.457 -1.3223  0.1924  1.6139
 3806TIP3    H232834   2.138   3.977   3.413 -0.4772  0.9353  0.9857
 3807TIP3   OH232835   1.485   1.285   1.896 -0.1760  0.1742  0.3506
 3807TIP3    H132836   1.557   1.269   1.836  0.3713 -1.2352  1.3147
 3807TIP3    H232837   1.473   1.202   1.942 -0.6410  1.1466  2.0942
 3808TIP3   OH232838   6.154   0.362   2.571  0.1751 -0.4389  0.1979
 3808TIP3    H132839   6.176   0.406   2.489  0.7228 -0.4007  0.3657
 3808TIP3    H232840   6.238   0.348   2.615 -0.1675  0.1441  1.0624
 3809TIP3   OH232841   5.219   6.286  11.896 -0.3559 -0.8219 -0.0013
 3809TIP3    H132842   5.183   6.259  11.981 -1.4068 -1.9912 -0.7894
 3809TIP3    H232843   5.206   6.380  11.893  1.6948 -0.3590  2.0398
 3810TIP3   OH232844   6.173   2.876  10.457 -0.0154 -0.6096 -0.3701
 3810TIP3    H132845   6.224   2.949  10.493  1.4291 -1.4988 -0.5156
 3810TIP3    H232846   6.087   2.884  10.498 -0.0614  1.4411 -0.7354
 3811TIP3   OH232847   6.798   2.566  13.769  0.2527 -0.1370  0.0187
 3811TIP3    H132848   6.759   2.496  13.717  1.0011 -0.0913 -0.6199
 3811TIP3    H232849   6.866   2.523  13.820  1.8436  0.3384 -1.5843
 3812TIP3   OH232850   2.804   6.040  13.887 -0.6031  0.4781  0.5611
 3812TIP3    H132851   2.773   5.952  13.910  0.4356 -0.1994 -0.5593
 3812TIP3    H232852   2.767   6.096  13.956 -1.0635 -0.8587  1.4565
 3813TIP3   OH232853   0.161   2.106   0.519 -0.1772  0.4735 -0.1173
 3813TIP3    H132854   0.077   2.111   0.565 -0.8486  0.1342 -1.2344
 3813TIP3    H232855   0.226   2.099   0.588 -1.0851  0.5697  0.7832
 3814TIP3   OH232856   2.439   3.836  11.052 -0.1266  0.2517 -0.1766
 3814TIP3    H132857   2.496   3.879  10.988  0.1604 -1.4617 -1.1385
 3814TIP3    H232858   2.424   3.903  11.120  1.3881  1.3845 -0.8943
 3815TIP3   OH232859   2.005   1.142   0.786  0.0620 -0.0325  0.2044
 3815TIP3    H132860   1.996   1.055   0.824 -1.1358 -0.7462 -1.5799
 3815TIP3    H232861   2.048   1.127   0.702  2.3460  1.4513  1.0458
 3816TIP3   OH232862   5.592   3.201  16.413  0.4220  0.9902  0.6732
 3816TIP3    H132863   5.583   3.196  16.508 -1.4679  2.2254  0.6208
 3816TIP3    H232864   5.525   3.264  16.386  1.0237  0.7974 -1.4698
 3817TIP3   OH232865   0.187   4.885   3.186  0.0974 -0.0191  0.3773
 3817TIP3    H132866   0.260   4.823   3.180 -0.7368 -0.8922 -2.8319
 3817TIP3    H232867   0.217   4.962   3.137 -0.8977 -0.1360 -0.4346
 3818TIP3   OH232868   6.695   1.920  11.322  0.1756 -0.1127 -0.0902
 3818TIP3    H132869   6.781   1.939  11.360 -0.7037  2.1175  0.9977
 3818TIP3    H232870   6.635   1.977  11.370 -1.8317 -1.1674 -1.2300
 3819TIP3   OH232871   3.830   3.426  12.555 -0.0109 -0.4339  0.0150
 3819TIP3    H132872   3.883   3.502  12.529 -1.0249  0.5258  0.6375
 3819TIP3    H232873   3.813   3.380  12.473 -0.6201  0.8550 -0.6176
 3820TIP3   OH232874   1.897   3.630  12.840 -0.1810  0.0021  0.0752
 3820TIP3    H132875   1.965   3.596  12.898 -0.3641  0.3592  0.5036
 3820TIP3    H232876   1.816   3.591  12.873 -0.0536 -1.4689 -1.2270
 3821TIP3   OH232877   6.655   2.654  16.244  0.1254 -0.3479 -0.0861
 3821TIP3    H132878   6.706   2.719  16.292 -0.7007 -1.7998  3.0284
 3821TIP3    H232879   6.701   2.571  16.262 -2.4081 -1.4983  1.6632
 3822TIP3   OH232880   2.973   4.128  15.898 -0.0094  0.1081  0.2419
 3822TIP3    H132881   2.991   4.038  15.927  0.2838  0.3055  0.6776
 3822TIP3    H232882   3.028   4.140  15.820 -1.1189 -0.5701 -0.6937
 3823TIP3   OH232883   4.021   0.314  11.479  0.1529 -0.4147 -0.2152
 3823TIP3    H132884   4.014   0.350  11.567  0.4326 -1.2834  0.1758
 3823TIP3    H232885   3.932   0.317  11.444 -0.3200 -1.8000  0.8109
 3824TIP3   OH232886   3.969   3.914   4.896 -0.0619  0.7794 -0.2057
 3824TIP3    H132887   4.049   3.863   4.905 -0.8052 -0.2799  0.5957
 3824TIP3    H232888   3.999   4.002   4.873  1.2892  0.2523 -0.5522
 3825TIP3   OH232889   4.479   1.667  16.747  0.0173  0.1878 -0.2241
 3825TIP3    H132890   4.553   1.641  16.691  0.0418  1.6328 -0.9253
 3825TIP3    H232891   4.519   1.722  16.814 -0.0521 -1.3471  1.1209
 3826TIP3   OH232892   4.885   2.714  17.052 -0.0477  0.0979 -0.4640
 3826TIP3    H132893   4.951   2.723  17.120 -0.0257 -1.0200 -0.3122
 3826TIP3    H232894   4.826   2.645  17.085 -0.6143  0.2536 -1.1172
 3827TIP3   OH232895   6.323   3.551   4.783 -0.4193  0.7978  0.0850
 3827TIP3    H132896   6.368   3.468   4.791  1.2368  1.7242  0.9527
 3827TIP3    H232897   6.244   3.531   4.733  0.7972 -0.9511 -1.2581
 3828TIP3   OH232898   0.516   1.946  11.556 -0.5327 -0.1164  0.4938
 3828TIP3    H132899   0.604   1.919  11.583  0.2357 -1.9538 -3.1550
 3828TIP3    H232900   0.508   2.037  11.585  2.5223  0.0690  1.0696
 3829TIP3   OH232901   6.029   3.617  12.615  0.9410 -0.0943  0.6463
 3829TIP3    H132902   6.114   3.647  12.646  0.6772  0.4072  0.8910
 3829TIP3    H232903   6.008   3.676  12.542 -0.0557  1.0315  1.7868
 3830TIP3   OH232904   2.463   2.764   0.155  0.3037  0.2319  0.1205
 3830TIP3    H132905   2.522   2.741   0.228  0.5930 -0.5676 -0.3610
 3830TIP3    H232906   2.507   2.838   0.113 -0.3555  1.3706  1.3344
 3831TIP3   OH232907   6.172   1.623  15.149  0.4570  0.1439 -0.3513
 3831TIP3    H132908   6.113   1.698  15.136  0.9391  0.7286  0.6887
 3831TIP3    H232909   6.166   1.574  15.067 -0.4438  0.9126 -0.7758
 3832TIP3   OH232910   4.626   4.658  11.492  0.2156  0.0477  0.3874
 3832TIP3    H132911   4.581   4.632  11.412 -0.0372  0.1835  0.4833
 3832TIP3    H232912   4.561   4.648  11.561  1.1102 -2.4282  0.9834
 3833TIP3   OH232913   6.224   5.091  12.067 -0.4443 -0.0771 -0.1426
 3833TIP3    H132914   6.236   5.133  12.152 -0.5439 -0.0560 -0.1396
 3833TIP3    H232915   6.140   5.045  12.074 -2.0106  2.3838 -1.2546
 3834TIP3   OH232916   3.702   0.399   3.294  0.4499 -0.0803 -0.9964
 3834TIP3    H132917   3.707   0.409   3.389 -0.5916 -0.7006 -0.8576
 3834TIP3    H232918   3.788   0.426   3.263  1.5428 -1.8680  0.3001
 3835TIP3   OH232919   3.437   1.458   0.889 -0.1472  0.1038  0.4412
 3835TIP3    H132920   3.397   1.385   0.937 -1.6863  1.6015  1.5237
 3835TIP3    H232921   3.372   1.481   0.823  0.8556 -0.2465 -0.7017
 3836TIP3   OH232922   1.024   1.216  11.500  0.2443 -0.0809  0.3308
 3836TIP3    H132923   0.981   1.231  11.416  2.9822  0.5961 -1.0257
 3836TIP3    H232924   1.117   1.214  11.480  0.9601 -0.5722  3.2776
 3837TIP3   OH232925   4.851   5.433   4.724  0.6146 -0.6400 -0.4205
 3837TIP3    H132926   4.763   5.469   4.739  0.3857 -1.2326 -0.3009
 3837TIP3    H232927   4.910   5.504   4.750  0.1716  0.1161 -1.4274
 3838TIP3   OH232928   1.182   2.557  16.381  0.1903 -0.1783  0.1114
 3838TIP3    H132929   1.154   2.648  16.374  1.7088  0.2950 -0.0023
 3838TIP3    H232930   1.124   2.520  16.448 -0.4886  0.8363  0.1146
 3839TIP3   OH232931   4.926   0.541  15.344  0.1842  0.0329  0.1771
 3839TIP3    H132932   4.882   0.496  15.417 -1.1286  1.0875  0.0665
 3839TIP3    H232933   4.884   0.504  15.266  0.6808 -0.1539 -0.0041
 3840TIP3   OH232934   6.416   3.533  13.786  0.2284  0.0965  0.1598
 3840TIP3    H132935   6.425   3.507  13.878 -0.3208 -0.0568  0.1758
 3840TIP3    H232936   6.347   3.599  13.787 -1.5754 -1.6655 -0.4270
 3841TIP3   OH232937   5.591   1.283  13.569 -0.2235  0.0569  0.3872
 3841TIP3    H132938   5.529   1.356  13.566  0.4633  0.6220 -1.0437
 3841TIP3    H232939   5.563   1.230  13.643 -2.2812  0.4177 -0.0823
 3842TIP3   OH232940   4.748   6.678  13.135 -0.0114 -0.0268  0.6422
 3842TIP3    H132941   4.840   6.658  13.119  0.1044  1.3647 -0.6690
 3842TIP3    H232942   4.714   6.601  13.180  1.4080 -1.2576 -0.2872
 3843TIP3   OH232943   0.086   1.915  17.067  0.5809  0.1754  0.1922
 3843TIP3    H132944   0.010   1.865  17.095  1.0351 -0.6022  0.0535
 3843TIP3    H232945   0.083   1.912  16.971  0.7327  0.2248  0.1855
 3844TIP3   OH232946   4.589   3.162  16.938  0.1490 -0.4730  0.3866
 3844TIP3    H132947   4.677   3.130  16.958 -0.4427 -1.8225  0.9912
 3844TIP3    H232948   4.564   3.115  16.858 -0.2215 -0.5245  0.5280
 3845TIP3   OH232949   1.399   1.692  11.317 -0.1955 -0.1324  0.0146
 3845TIP3    H132950   1.474   1.672  11.372 -0.5470  1.3970  1.1143
 3845TIP3    H232951   1.332   1.630  11.343 -0.1599  0.1961  0.9219
 3846TIP3   OH232952   5.795   1.585  15.535  0.0818  0.0158 -0.1470
 3846TIP3    H132953   5.831   1.578  15.447  0.3070 -0.6771 -0.0113
 3846TIP3    H232954   5.774   1.495  15.559 -0.1352  0.2175  0.4427
 3847TIP3   OH232955   4.384   4.136   3.152  0.1994  0.1668 -0.5983
 3847TIP3    H132956   4.464   4.098   3.114  0.1804 -0.0191 -0.4540
 3847TIP3    H232957   4.404   4.143   3.245  0.1731  0.4408 -0.6141
 3848TIP3   OH232958   3.608   5.958   2.999  0.1417  0.1749  0.1917
 3848TIP3    H132959   3.621   6.044   3.041  0.2130  0.4097 -0.3059
 3848TIP3    H232960   3.516   5.938   3.015 -0.6162  1.5704 -1.9054
 3849TIP3   OH232961   5.898   4.813  10.979 -0.7401 -0.4558  0.0597
 3849TIP3    H132962   5.861   4.886  10.928  0.8526 -0.2312 -0.8348
 3849TIP3    H232963   5.884   4.736  10.924 -1.9361 -0.7753  0.7678
 3850TIP3   OH232964   6.127   6.570   3.712 -0.0148 -0.4621 -0.1140
 3850TIP3    H132965   6.206   6.522   3.734  0.3783  0.2726  0.1203
 3850TIP3    H232966   6.134   6.652   3.760  0.1184  0.5404 -1.7586
 3851TIP3   OH232967   1.241   1.747  11.610 -0.1999  0.3317 -0.2674
 3851TIP3    H132968   1.195   1.720  11.531 -0.1114  1.6239 -0.7849
 3851TIP3    H232969   1.330   1.712  11.600 -0.3567 -0.0077 -0.4574
 3852TIP3   OH232970   0.319   6.755   2.445  0.7229 -0.0038 -0.2827
 3852TIP3    H132971   0.240   6.794   2.408  1.0508  1.1676  0.2124
 3852TIP3    H232972   0.306   6.661   2.436 -0.7096  0.1800 -0.2420
 3853TIP3   OH232973   1.731   1.182  10.855 -0.7585 -0.2700 -0.2475
 3853TIP3    H132974   1.657   1.175  10.915 -0.3742 -2.3186  0.0612
 3853TIP3    H232975   1.722   1.107  10.797  1.1672 -0.7163 -0.0539
 3854TIP3   OH232976   1.232   3.713  14.125  0.8732 -0.5848 -0.1918
 3854TIP3    H132977   1.223   3.804  14.154 -0.2594 -1.1361  1.3443
 3854TIP3    H232978   1.318   3.686  14.159  0.8035 -0.3692  0.1626
 3855TIP3   OH232979   0.831   4.410   4.024 -0.2667  0.4440  0.5184
 3855TIP3    H132980   0.772   4.338   4.005 -1.5646  1.6047 -0.0313
 3855TIP3    H232981   0.781   4.468   4.082  0.5593  1.1586  0.5493
 3856TIP3   OH232982   6.703   2.346  11.371 -1.0699 -0.5163 -0.3570
 3856TIP3    H132983   6.752   2.352  11.289 -0.7085 -2.1650 -0.2965
 3856TIP3    H232984   6.638   2.278  11.355 -1.2505 -0.5747  0.5970
 3857TIP3   OH232985   0.785   3.820   3.206 -0.4429  0.5110 -0.0249
 3857TIP3    H132986   0.814   3.730   3.192 -0.4631  0.8779 -3.1236
 3857TIP3    H232987   0.689   3.814   3.211 -0.4597  0.3394 -0.4562
 3858TIP3   OH232988   2.257   4.967   5.981 -0.1254  0.0346 -0.4305
 3858TIP3    H132989   2.243   4.886   5.931 -0.5246 -1.4349  1.9286
 3858TIP3    H232990   2.351   4.981   5.979  0.0889 -1.1994  0.1373
 3859TIP3   OH232991   1.397   2.411   3.043 -0.3030  0.3156 -0.2348
 3859TIP3    H132992   1.404   2.386   3.135  2.4936 -2.6540 -1.0818
 3859TIP3    H232993   1.385   2.506   3.045 -2.6461  0.1257  3.1514
 3860TIP3   OH232994   5.998   5.089   4.758  0.5405 -0.1094 -0.2839
 3860TIP3    H132995   6.055   5.031   4.809 -1.1198 -0.4969  1.2200
 3860TIP3    H232996   6.059   5.141   4.705  2.1760 -1.9932 -0.4057
 3861TIP3   OH232997   5.808   6.493   5.369  0.2598  0.4247 -0.5304
 3861TIP3    H132998   5.779   6.405   5.394  1.1424 -0.4307 -2.2834
 3861TIP3    H232999   5.796   6.496   5.274  3.6731  0.7567 -1.0929
 3862TIP3   OH233000   4.966   2.263  15.123  0.2842 -0.5074  0.1002
 3862TIP3    H133001   5.037   2.199  15.116 -0.6224 -1.3760 -2.5530
 3862TIP3    H233002   4.987   2.329  15.057  0.1610  0.9016  1.4227
 3863TIP3   OH233003   2.453   3.736   2.446 -0.4381  0.0929 -0.1501
 3863TIP3    H133004   2.451   3.811   2.505 -3.6727  0.1978 -0.1746
 3863TIP3    H233005   2.461   3.774   2.359  2.6090  0.0342  0.0083
 3864TIP3   OH233006   3.379   1.801  15.150  0.1257 -0.5714  0.2936
 3864TIP3    H133007   3.467   1.811  15.188  0.2075  2.9906 -0.4432
 3864TIP3    H233008   3.322   1.792  15.226  0.7958  1.2836  1.0974
 3865TIP3   OH233009   3.368   0.763  10.523  0.3696  0.5092 -0.2158
 3865TIP3    H133010   3.336   0.829  10.584  0.3439  1.0127 -0.7656
 3865TIP3    H233011   3.337   0.793  10.437 -0.0934 -0.4879 -0.4164
 3866TIP3   OH233012   0.469   2.723   5.795  0.0676 -0.2894  0.2939
 3866TIP3    H133013   0.479   2.818   5.788 -1.3256 -0.0569  1.2620
 3866TIP3    H233014   0.377   2.707   5.778 -0.1201 -1.2688  2.0362
 3867TIP3   OH233015   5.074   1.827   2.037 -0.0455  0.1180 -0.2259
 3867TIP3    H133016   5.020   1.879   1.977  0.1361  1.2630  0.5758
 3867TIP3    H233017   5.132   1.891   2.078  1.6376 -1.0282 -0.7507
 3868TIP3   OH233018   2.261   4.800  16.353 -0.1708 -0.2672 -0.5009
 3868TIP3    H133019   2.243   4.796  16.447  0.9579 -2.2533 -0.3001
 3868TIP3    H233020   2.354   4.823  16.348  0.0592 -1.2311 -1.0494
 3869TIP3   OH233021   6.522   0.445  12.704 -0.1640  0.5003 -1.0562
 3869TIP3    H133022   6.448   0.466  12.648 -2.0465  0.7390  1.3709
 3869TIP3    H233023   6.560   0.529  12.727  1.0245  0.3722 -2.4161
 3870TIP3   OH233024   2.532   4.584   2.391 -0.4040  0.0226 -0.2557
 3870TIP3    H133025   2.611   4.601   2.340 -0.2486 -0.3196 -0.1367
 3870TIP3    H233026   2.461   4.584   2.327 -0.4730  1.4618 -0.2136
 3871TIP3   OH233027   4.004   2.369  12.096 -0.3247  0.3414 -0.5131
 3871TIP3    H133028   3.936   2.433  12.075 -1.4962 -0.1055  1.5761
 3871TIP3    H233029   3.977   2.332  12.180  0.5435 -2.5863 -1.4061
 3872TIP3   OH233030   2.791   5.380  13.363 -0.1080 -0.3908  0.6383
 3872TIP3    H133031   2.824   5.330  13.289 -0.1682  0.3925  0.0744
 3872TIP3    H233032   2.816   5.470  13.345 -2.1468  0.1710  0.4031
 3873TIP3   OH233033   0.495   0.755  10.832  0.0878 -0.1240  0.2957
 3873TIP3    H133034   0.480   0.849  10.817 -2.1806 -0.2932  1.1404
 3873TIP3    H233035   0.426   0.712  10.783  0.0851 -1.2656  1.2738
 3874TIP3   OH233036   3.020   5.594  15.241  0.6819  0.4197  0.2744
 3874TIP3    H133037   3.062   5.509  15.230 -0.4492 -0.2260  0.7275
 3874TIP3    H233038   2.935   5.585  15.198  2.0243  2.6324 -3.3106
 3875TIP3   OH233039   4.178   6.763  12.270  0.3674  0.2023  0.1152
 3875TIP3    H133040   4.131   6.708  12.333 -1.4239  0.0941 -1.2273
 3875TIP3    H233041   4.136   6.849  12.277  0.8788  0.4748 -0.1653
 3876TIP3   OH233042   0.047   4.604   4.128  0.6825  0.0355  0.3600
 3876TIP3    H133043  -0.005   4.563   4.060 -2.0367  1.4227  1.4489
 3876TIP3    H233044   0.074   4.532   4.185  1.7550 -0.9503 -1.3262
 3877TIP3   OH233045   6.451   0.733   5.830 -0.3526  0.0493 -0.3735
 3877TIP3    H133046   6.393   0.714   5.904 -0.6015  2.4224  0.1208
 3877TIP3    H233047   6.528   0.678   5.844 -0.8174 -0.2394  1.1349
 3878TIP3   OH233048   2.272   3.562  11.456 -0.0448 -0.1559  0.1079
 3878TIP3    H133049   2.306   3.474  11.473  0.9015  0.3265  0.7882
 3878TIP3    H233050   2.324   3.593  11.381  1.4643  0.7882  1.4834
 3879TIP3   OH233051   2.812   1.196  11.374 -0.4446  0.3987  0.5168
 3879TIP3    H133052   2.779   1.109  11.395 -0.7645  0.9566  2.4936
 3879TIP3    H233053   2.767   1.254  11.435  0.7512  1.7924  0.1274
 3880TIP3   OH233054   2.275   5.716   5.172 -0.3293  0.3427 -0.0840
 3880TIP3    H133055   2.238   5.804   5.173  0.5651  0.8216 -2.2391
 3880TIP3    H233056   2.364   5.728   5.137 -0.6967 -1.5362 -1.8720
 3881TIP3   OH233057   0.205   1.545   4.714 -0.5612  0.3874  0.7676
 3881TIP3    H133058   0.300   1.543   4.725 -0.5213  1.0144  0.5735
 3881TIP3    H233059   0.175   1.462   4.752  0.1267 -0.1568  0.1577
 3882TIP3   OH233060   2.248   6.728  14.624 -0.6689 -0.0223  0.1435
 3882TIP3    H133061   2.245   6.648  14.676 -1.7308 -0.7925 -1.0619
 3882TIP3    H233062   2.171   6.778  14.651 -0.4676  0.2157  0.2867
 3883TIP3   OH233063   6.613   5.559   5.547  0.5131 -0.3706  0.4400
 3883TIP3    H133064   6.603   5.496   5.475  0.5876 -1.5189  1.4085
 3883TIP3    H233065   6.525   5.593   5.562  0.8126  1.5662 -1.6224
 3884TIP3   OH233066   6.370   1.691   6.791  0.1100  0.1344 -0.0225
 3884TIP3    H133067   6.310   1.698   6.864 -2.2963 -0.8183 -1.7686
 3884TIP3    H233068   6.368   1.777   6.750 -1.6330 -0.3651 -1.1233
 3885TIP3   OH233069   6.806   0.452  14.939  0.0157 -0.1624  0.3985
 3885TIP3    H133070   6.900   0.468  14.943  0.0720 -0.5286  0.6538
 3885TIP3    H233071   6.784   0.459  14.846 -0.1794  2.4695  0.5945
 3886TIP3   OH233072   6.022   5.053   5.975 -1.0860 -0.0153 -0.2956
 3886TIP3    H133073   6.078   5.062   6.052 -1.0056 -0.5103 -0.2902
 3886TIP3    H233074   6.018   5.141   5.938  0.7712 -0.1829 -1.0411
 3887TIP3   OH233075   0.675   1.841   1.496 -0.5155  0.1492 -0.5118
 3887TIP3    H133076   0.621   1.769   1.528 -1.0871  0.8345  0.0746
 3887TIP3    H233077   0.720   1.874   1.573 -0.3039  0.4623 -0.7671
 3888TIP3   OH233078   3.184   5.995   3.737 -0.4178 -0.2430 -0.4145
 3888TIP3    H133079   3.092   5.972   3.722 -0.4552  0.5158 -1.4484
 3888TIP3    H233080   3.183   6.090   3.751  0.0910 -0.3830  0.6938
 3889TIP3   OH233081   2.049   4.044   2.992 -0.5843  0.5614  0.2280
 3889TIP3    H133082   1.977   4.099   3.021  0.0881  0.8603  1.4425
 3889TIP3    H233083   2.127   4.098   3.005  0.0154 -0.3779  0.6722
 3890TIP3   OH233084   1.871   3.058  14.230  0.5006 -0.0059  0.7520
 3890TIP3    H133085   1.855   3.004  14.153  0.2181  0.3254  0.5760
 3890TIP3    H233086   1.791   3.051  14.281  0.6532 -0.1504  0.9763
 3891TIP3   OH233087   1.570   2.346  16.587  0.2624  0.0584 -0.5467
 3891TIP3    H133088   1.621   2.284  16.535 -0.6426 -1.1005 -0.0856
 3891TIP3    H233089   1.634   2.390  16.642  1.0894  0.4840 -1.8061
 3892TIP3   OH233090   2.284   2.874  15.852 -0.2454  0.6742  0.1899
 3892TIP3    H133091   2.267   2.785  15.882  0.2223  0.3543 -0.4916
 3892TIP3    H233092   2.286   2.926  15.932 -3.3033  0.5696  0.4580
 3893TIP3   OH233093   0.977   4.012  16.958 -0.4897 -0.0049 -0.2443
 3893TIP3    H133094   0.922   4.028  16.880  0.2730  0.2652 -0.7406
 3893TIP3    H233095   0.916   4.020  17.032 -1.3890 -1.0371 -0.8428
 3894TIP3   OH233096   2.068   3.778  16.988 -0.3647  0.3362  0.7793
 3894TIP3    H133097   2.147   3.780  16.934 -1.2741 -0.1359 -0.6050
 3894TIP3    H233098   2.093   3.825  17.068  0.8322  1.6212 -0.2997
 3895TIP3   OH233099   0.166   6.248  10.650 -0.2833 -0.0122  0.2299
 3895TIP3    H133100   0.082   6.291  10.641 -0.1525  0.3555  0.7381
 3895TIP3    H233101   0.153   6.161  10.611 -0.3368  0.7274 -1.4742
 3896TIP3   OH233102   5.926   1.808   4.329 -0.1711  0.4061 -0.3267
 3896TIP3    H133103   5.904   1.721   4.297  1.6364 -0.3483  0.3174
 3896TIP3    H233104   5.882   1.814   4.414 -0.3502  0.1477 -0.4008
 3897TIP3   OH233105   0.599   3.106   3.957  0.1328  0.1174 -0.0737
 3897TIP3    H133106   0.604   3.128   4.050 -1.5422  0.4469 -0.0315
 3897TIP3    H233107   0.535   3.034   3.952 -0.3422  0.5807 -1.0305
 3898TIP3   OH233108   2.917   0.837  17.165  0.2042 -0.6241  0.4909
 3898TIP3    H133109   2.885   0.751  17.190 -1.0018  0.2111  1.9892
 3898TIP3    H233110   2.998   0.848  17.214 -0.8774  0.0065  2.2491
 3899TIP3   OH233111   4.773   5.377   4.302 -0.4522  0.5202 -0.0966
 3899TIP3    H133112   4.738   5.446   4.359 -2.2535 -0.5289  0.1458
 3899TIP3    H233113   4.834   5.329   4.358  0.2455  1.4326 -0.0475
 3900TIP3   OH233114   3.985   2.688  15.979  0.0059  0.2001  0.1712
 3900TIP3    H133115   4.022   2.624  15.918 -1.6852 -1.8582  1.1645
 3900TIP3    H233116   3.980   2.769  15.929  1.4399 -0.6342 -1.4305
 3901TIP3   OH233117   1.349   4.122   3.308  0.4075 -0.1813  0.2269
 3901TIP3    H133118   1.287   4.127   3.381  1.2370  0.0156  0.9236
 3901TIP3    H233119   1.349   4.210   3.270  1.7641  0.4034  1.4980
 3902TIP3   OH233120   0.031   4.259   2.496 -0.2912 -0.5512  0.3287
 3902TIP3    H133121   0.001   4.348   2.475 -0.9705 -0.2712  2.2875
 3902TIP3    H233122  -0.011   4.239   2.580  0.2700 -2.5331  0.1754
 3903TIP3   OH233123   2.811   2.395  11.383 -0.1441 -0.6587 -0.0933
 3903TIP3    H133124   2.740   2.339  11.415 -1.3941  1.6254  1.4177
 3903TIP3    H233125   2.820   2.463  11.450  2.3595  0.0930 -1.0753
 3904TIP3   OH233126   2.623   2.882  14.219 -0.3618  0.1688 -0.4133
 3904TIP3    H133127   2.626   2.921  14.306 -1.2118 -1.0151  0.1759
 3904TIP3    H233128   2.531   2.862  14.204  0.1518 -3.2945  0.1608
 3905TIP3   OH233129   0.073   4.996   3.767  0.0371  0.5327 -0.1019
 3905TIP3    H133130   0.144   4.933   3.753 -0.2934 -0.0276  0.6543
 3905TIP3    H233131   0.038   5.014   3.680  1.2542  1.0101 -0.5292
 3906TIP3   OH233132   5.033   5.062  14.500  0.3537 -0.1570  0.2567
 3906TIP3    H133133   5.093   5.094  14.432 -0.5871  0.5110 -0.2835
 3906TIP3    H233134   5.023   5.136  14.560  1.5311 -0.8908  1.4035
 3907TIP3   OH233135   4.399   2.047   6.035  0.3822 -0.5886  0.2144
 3907TIP3    H133136   4.410   1.967   6.086  2.6544 -0.2189  0.4090
 3907TIP3    H233137   4.481   2.095   6.048  0.0816  0.6058 -1.8867
 3908TIP3   OH233138   3.265   1.781  13.087  0.1131  0.3644  0.0579
 3908TIP3    H133139   3.207   1.803  13.160 -0.0658 -1.5159  0.5447
 3908TIP3    H233140   3.353   1.794  13.122  0.0185 -0.0543  0.4715
 3909TIP3   OH233141   1.523   6.048   2.948  0.0945  0.4046  0.4907
 3909TIP3    H133142   1.516   6.026   3.041  3.9003 -0.8943  0.6378
 3909TIP3    H233143   1.511   6.143   2.945 -1.9617  0.2559  1.9815
 3910TIP3   OH233144   6.148   4.571   2.171  0.8618 -0.3637 -0.3960
 3910TIP3    H133145   6.154   4.481   2.137 -0.6775 -0.1901 -1.1738
 3910TIP3    H233146   6.208   4.621   2.116 -0.3928 -0.3995 -1.8449
 3911TIP3   OH233147   2.604   6.284  15.279 -0.1916 -0.1968  0.1248
 3911TIP3    H133148   2.593   6.246  15.366  0.7765 -0.0934  0.3000
 3911TIP3    H233149   2.561   6.370  15.285  0.0819 -0.0869  0.5737
 3912TIP3   OH233150   3.076   3.302   0.285 -0.3703  0.4455 -0.0110
 3912TIP3    H133151   3.061   3.306   0.379  2.0622 -0.8107  0.5024
 3912TIP3    H233152   3.100   3.211   0.268 -1.0226  0.5824 -1.9176
 3913TIP3   OH233153   2.282   3.701   0.295  0.2384  0.3791  0.6055
 3913TIP3    H133154   2.238   3.680   0.213  1.8820 -2.0613  0.2281
 3913TIP3    H233155   2.299   3.616   0.335  0.7858  1.4411  2.7861
 3914TIP3   OH233156   1.209   0.083   2.972  0.0478  0.4823  0.1517
 3914TIP3    H133157   1.205   0.167   2.926 -0.0777 -0.6932 -2.0690
 3914TIP3    H233158   1.215   0.017   2.903 -0.8398 -1.4281  1.7912
 3915TIP3   OH233159   1.840   6.688   3.048  0.0920  0.4947 -0.2611
 3915TIP3    H133160   1.908   6.685   3.115 -0.8027  0.5405  0.6781
 3915TIP3    H233161   1.845   6.778   3.014  1.5491  0.0337 -1.3540
 3916TIP3   OH233162   5.922   3.325  12.341 -0.1315 -0.1411  0.0634
 3916TIP3    H133163   5.870   3.366  12.271  0.9979  0.9666 -0.1799
 3916TIP3    H233164   6.012   3.338  12.313  0.3805  0.9940  2.0716
 3917TIP3   OH233165   3.700   1.184   0.842  0.0529  0.0536  0.2891
 3917TIP3    H133166   3.772   1.230   0.884  0.3971 -0.9814  0.8699
 3917TIP3    H233167   3.738   1.143   0.765 -0.2541  0.7290 -0.2321
 3918TIP3   OH233168   3.212   1.171  10.858 -0.0656 -0.2288  0.1555
 3918TIP3    H133169   3.151   1.228  10.904 -1.9500 -2.5652  0.7735
 3918TIP3    H233170   3.284   1.158  10.919 -0.2457  0.4405  0.5140
 3919TIP3   OH233171   5.022   1.977  11.653  0.0203 -0.5827  0.1098
 3919TIP3    H133172   5.082   1.917  11.698  0.3930 -0.5485 -0.3407
 3919TIP3    H233173   5.077   2.028  11.595  0.0237  1.6356  1.9313
 3920TIP3   OH233174   1.780   2.951  14.969 -1.0259  0.0983  0.0007
 3920TIP3    H133175   1.735   2.885  14.916 -0.6179  0.5788 -0.9661
 3920TIP3    H233176   1.871   2.945  14.943 -0.8466  0.4818  0.5189
 3921TIP3   OH233177   3.932   3.353   5.265  0.0243 -0.6219 -0.4939
 3921TIP3    H133178   3.929   3.426   5.203 -0.5615 -0.9175 -0.8323
 3921TIP3    H233179   4.022   3.350   5.295  0.7824 -1.4960 -2.6031
 3922TIP3   OH233180   3.961   2.022  13.624 -0.1304 -0.0184  0.4627
 3922TIP3    H133181   3.918   2.007  13.709 -0.3722  1.7364  0.6980
 3922TIP3    H233182   4.053   2.036  13.646 -0.1764  0.3414  0.4339
 3923TIP3   OH233183   6.479   3.335  11.710  0.1071 -0.2970  0.2258
 3923TIP3    H133184   6.387   3.310  11.710 -0.2308  0.2665  4.4296
 3923TIP3    H233185   6.478   3.429  11.692 -0.0618 -0.4006 -0.3213
 3924TIP3   OH233186   4.220   2.772  14.439 -0.8711 -0.3284  0.2708
 3924TIP3    H133187   4.134   2.745  14.470 -1.1440 -0.9618 -0.9781
 3924TIP3    H233188   4.214   2.867  14.430 -1.1200 -0.2585  1.0907
 3925TIP3   OH233189   6.811   3.008  12.851 -0.1010  0.3483 -0.1131
 3925TIP3    H133190   6.888   2.971  12.808  0.0332  0.8435 -0.3155
 3925TIP3    H233191   6.737   2.971  12.804  0.0449  2.8956 -2.6363
 3926TIP3   OH233192   0.635   3.301  12.309 -1.1207 -0.4962  0.1716
 3926TIP3    H133193   0.710   3.360  12.302 -1.3407 -0.3320 -0.9395
 3926TIP3    H233194   0.595   3.324  12.393  0.4554 -1.0809  1.1327
 3927TIP3   OH233195   3.491   1.499  15.482  0.0542 -0.6553 -0.2396
 3927TIP3    H133196   3.440   1.428  15.523  0.3660 -1.4176 -1.1394
 3927TIP3    H233197   3.462   1.500  15.391 -0.5060  0.9133 -0.0728
 3928TIP3   OH233198   5.967   3.086   0.495 -0.0486  0.3040 -0.4852
 3928TIP3    H133199   5.946   3.179   0.481 -0.1581  0.6167  1.4155
 3928TIP3    H233200   5.939   3.043   0.415 -0.8828  1.7964 -1.0461
 3929TIP3   OH233201   3.431   0.006  10.871 -0.2739 -0.4005  0.3775
 3929TIP3    H133202   3.336   0.008  10.859 -0.0003  0.6154 -2.4365
 3929TIP3    H233203   3.466   0.048  10.792  2.5379 -0.9177  1.2274
 3930TIP3   OH233204   2.447   1.482   3.026 -0.4094 -0.1795  0.1036
 3930TIP3    H133205   2.390   1.536   3.080 -1.6229 -1.2388 -0.0597
 3930TIP3    H233206   2.444   1.523   2.940  1.5297  1.5114  0.7795
 3931TIP3   OH233207   2.115   6.308  16.444 -0.8891 -0.2750  0.4234
 3931TIP3    H133208   2.067   6.263  16.514 -0.3499  0.9504  1.6129
 3931TIP3    H233209   2.165   6.376  16.488  0.6430 -0.4191 -0.9840
 3932TIP3   OH233210   1.331   0.350   5.215  0.1956  0.5661 -0.0983
 3932TIP3    H133211   1.350   0.441   5.234  1.5075  0.4552 -0.7675
 3932TIP3    H233212   1.294   0.351   5.127 -2.6951  0.7272  1.0012
 3933TIP3   OH233213   3.949   2.761   2.624 -0.5981 -0.1179 -0.1325
 3933TIP3    H133214   3.859   2.788   2.643  0.0443  1.1521  1.4258
 3933TIP3    H233215   3.972   2.701   2.694 -0.3338 -0.7316 -0.7307
 3934TIP3   OH233216   4.602   3.381  12.414  0.0181 -0.3093 -1.0228
 3934TIP3    H133217   4.604   3.305  12.472 -1.3053  0.5110  0.1415
 3934TIP3    H233218   4.640   3.452  12.465 -0.3332  0.2156 -1.4712
 3935TIP3   OH233219   3.205   5.910   2.178 -0.6423 -0.1802  0.2660
 3935TIP3    H133220   3.232   5.871   2.261 -1.9107 -0.1383  0.7336
 3935TIP3    H233221   3.223   6.003   2.188 -2.6888  0.1780  1.3836
 3936TIP3   OH233222   0.079   4.115  14.081 -0.2617 -0.0193 -0.0257
 3936TIP3    H133223   0.012   4.050  14.101  1.1473 -1.2962  0.7610
 3936TIP3    H233224   0.133   4.075  14.013 -0.1446  0.8898 -0.4908
 3937TIP3   OH233225   2.466   1.729  15.137 -0.1107 -0.2916  0.4529
 3937TIP3    H133226   2.440   1.785  15.063 -1.7732  0.9690  1.9155
 3937TIP3    H233227   2.433   1.775  15.214  1.7127 -1.4954  2.0213
 3938TIP3   OH233228   0.793   2.100  11.533 -0.2321  0.1120  0.3453
 3938TIP3    H133229   0.777   2.068  11.621 -1.4465 -0.6476 -0.1194
 3938TIP3    H233230   0.805   2.021  11.480  1.4565  0.5753 -0.0298
 3939TIP3   OH233231   5.495   0.319   5.291  0.4147  0.1161  0.3073
 3939TIP3    H133232   5.445   0.280   5.220 -0.1699 -0.0499  0.8000
 3939TIP3    H233233   5.581   0.337   5.253 -0.5849  2.2089 -1.1431
 3940TIP3   OH233234   4.313   1.126  13.452 -0.1363  0.3230  0.1811
 3940TIP3    H133235   4.403   1.094  13.460 -0.7491 -1.9173 -1.0865
 3940TIP3    H233236   4.322   1.219  13.429  1.8127  0.2866  0.6709
 3941TIP3   OH233237   5.007   0.062   0.081  0.4522 -0.1213 -0.3641
 3941TIP3    H133238   4.967   0.122   0.018 -0.1734  0.0077  0.1503
 3941TIP3    H233239   5.096   0.096   0.093  0.2156  0.4933 -0.3418
 3942TIP3   OH233240   0.955   1.099  17.028 -0.7111  0.7346  0.3917
 3942TIP3    H133241   0.972   1.107  17.122 -0.9967 -1.3950  0.6719
 3942TIP3    H233242   0.881   1.039  17.022 -0.6317  0.7502 -1.2106
 3943TIP3   OH233243   0.767   6.768  13.139  0.2784  0.3035 -0.2845
 3943TIP3    H133244   0.840   6.741  13.085 -0.5098  0.5053 -1.4825
 3943TIP3    H233245   0.730   6.844  13.093  0.2817  1.2094  1.1340
 3944TIP3   OH233246   5.798   5.362  13.310  0.1442 -0.1994 -0.1854
 3944TIP3    H133247   5.858   5.394  13.242 -1.0372  0.1607 -1.0921
 3944TIP3    H233248   5.827   5.406  13.390  2.5360 -1.7908 -0.0820
 3945TIP3   OH233249   0.362   5.769  16.581  0.3641 -0.2398 -0.4206
 3945TIP3    H133250   0.317   5.827  16.642  0.4727  0.2531 -0.8059
 3945TIP3    H233251   0.335   5.799  16.494  1.1046 -0.2012 -0.6475
 3946TIP3   OH233252   1.123   6.557   1.495  0.2521 -0.1690 -0.1670
 3946TIP3    H133253   1.187   6.516   1.438  1.1579  0.4771  0.3455
 3946TIP3    H233254   1.049   6.577   1.438  0.2944 -1.3611 -0.6713
 3947TIP3   OH233255   0.846   1.100   4.780  0.1270  0.3231 -0.1500
 3947TIP3    H133256   0.852   1.089   4.685  1.2411 -1.6208  0.0739
 3947TIP3    H233257   0.934   1.128   4.806  0.7091 -1.9427  0.5400
 3948TIP3   OH233258   3.701   6.424   3.327  0.0124  0.0465 -0.2101
 3948TIP3    H133259   3.679   6.418   3.234 -0.7345  0.4398 -0.0653
 3948TIP3    H233260   3.653   6.352   3.367 -1.5931  1.2772  0.1972
 3949TIP3   OH233261   3.737   5.585   3.660 -0.1880  0.1842 -0.4782
 3949TIP3    H133262   3.780   5.551   3.581 -2.3368 -0.0041 -1.6645
 3949TIP3    H233263   3.757   5.521   3.728  1.6880  0.3263 -0.8480
 3950TIP3   OH233264   2.841   0.808  13.204 -0.1045 -0.0125 -0.3451
 3950TIP3    H133265   2.746   0.823  13.201 -0.2122 -0.2098  1.1325
 3950TIP3    H233266   2.856   0.769  13.290  1.1463 -1.3569 -1.1269
 3951TIP3   OH233267   4.545   4.261   3.665  0.8551  0.1623  0.1602
 3951TIP3    H133268   4.604   4.334   3.685  0.7773  0.2037  0.2386
 3951TIP3    H233269   4.551   4.204   3.743  0.1050  0.6108  0.5594
 3952TIP3   OH233270   6.364   3.702  15.980  0.0674  0.2687  0.1344
 3952TIP3    H133271   6.301   3.631  15.986 -0.5920  0.5537 -2.2586
 3952TIP3    H233272   6.431   3.681  16.045 -1.4531 -1.0961  1.3335
 3953TIP3   OH233273   6.280   0.801   3.959  0.0596  0.1606  0.0895
 3953TIP3    H133274   6.267   0.894   3.979  0.4143  0.2317 -0.0134
 3953TIP3    H233275   6.241   0.790   3.873 -0.1000  0.1840  0.1572
 3954TIP3   OH233276   5.355   1.275  15.725 -0.6314 -0.2663 -0.4056
 3954TIP3    H133277   5.305   1.273  15.807  0.7063  0.6306  0.4727
 3954TIP3    H233278   5.297   1.234  15.660 -0.5920 -3.7609  1.5632
 3955TIP3   OH233279   4.428   2.816  10.887 -0.0279  0.2511 -0.3532
 3955TIP3    H133280   4.523   2.812  10.897 -0.1155 -1.0393  0.0849
 3955TIP3    H233281   4.411   2.767  10.807 -0.2632  1.3185 -0.9825
 3956TIP3   OH233282   4.675   2.516  17.136  0.3109 -0.2377 -0.0294
 3956TIP3    H133283   4.605   2.451  17.149  1.2318 -1.2888 -0.2182
 3956TIP3    H233284   4.733   2.476  17.071  1.6081  0.1772  0.8345
 3957TIP3   OH233285   1.581   6.089  16.942  0.4966 -0.1205 -0.1394
 3957TIP3    H133286   1.578   6.160  16.878 -2.5610 -0.2235 -0.2206
 3957TIP3    H233287   1.643   6.119  17.009  1.4612  1.2997 -1.6095
 3958TIP3   OH233288   4.424   4.188  15.737 -0.0832 -0.0301 -0.0076
 3958TIP3    H133289   4.416   4.148  15.650 -0.5515 -0.8031  0.3816
 3958TIP3    H233290   4.357   4.256  15.738 -0.1071 -0.0485 -0.2338
 3959TIP3   OH233291   5.860   2.483  17.086  0.3800  0.1459  0.1442
 3959TIP3    H133292   5.940   2.462  17.133 -0.1757 -1.0698  0.5711
 3959TIP3    H233293   5.884   2.474  16.993  0.8737  0.3539  0.2476
 3960TIP3   OH233294   1.526   1.326  10.439 -0.3919  0.1338 -0.0866
 3960TIP3    H133295   1.594   1.307  10.504 -0.1686 -3.3560 -1.1153
 3960TIP3    H233296   1.559   1.402  10.391  1.4989  0.1684  1.1596
 3961TIP3   OH233297   3.798   4.129  13.206 -0.0139 -0.1575  0.0223
 3961TIP3    H133298   3.873   4.168  13.250 -0.8004  0.8626  0.5118
 3961TIP3    H233299   3.821   4.131  13.113  1.6866 -2.3753  0.3237
 3962TIP3   OH233300   2.586   3.222  15.076 -0.1180  0.6153  0.0038
 3962TIP3    H133301   2.646   3.241  15.003 -0.5355  3.9135  0.3454
 3962TIP3    H233302   2.534   3.302  15.085 -2.8076 -1.1540  1.4275
 3963TIP3   OH233303   5.457   5.094   5.536  0.2949 -0.4058  0.3299
 3963TIP3    H133304   5.387   5.098   5.470  0.2332 -0.9559  0.3596
 3963TIP3    H233305   5.462   5.002   5.560  2.4382 -0.7638 -1.1831
 3964TIP3   OH233306   2.824   5.230   6.623 -0.2556 -0.1217 -0.4688
 3964TIP3    H133307   2.786   5.317   6.620  0.1189  0.0461 -0.3597
 3964TIP3    H233308   2.774   5.184   6.690  0.7929  0.6119  0.8599
 3965TIP3   OH233309   3.829   1.367  17.084 -0.2969  0.6965  0.4085
 3965TIP3    H133310   3.750   1.367  17.138  0.0493  1.7138  0.9423
 3965TIP3    H233311   3.895   1.323  17.137 -0.5896 -0.5607 -0.2157
 3966TIP3   OH233312   4.610   5.354  11.082  0.1135 -0.0260 -0.4234
 3966TIP3    H133313   4.545   5.327  11.147  0.5314  0.4168  0.1807
 3966TIP3    H233314   4.642   5.271  11.045 -0.7558 -0.2486 -0.6920
 3967TIP3   OH233315   5.900   1.613  10.669  0.1432  0.0380 -0.9127
 3967TIP3    H133316   5.931   1.620  10.760  0.4593  0.9571 -1.0771
 3967TIP3    H233317   5.817   1.662  10.669  1.3195  2.1667 -1.6215
 3968TIP3   OH233318   0.720   0.786   3.724 -0.3719  0.0115 -0.0355
 3968TIP3    H133319   0.667   0.861   3.749 -0.6347 -0.5832  1.2499
 3968TIP3    H233320   0.737   0.799   3.630 -1.4491  1.0200 -0.1126
 3969TIP3   OH233321   5.338   6.319  11.517 -0.1836  0.7404 -0.6815
 3969TIP3    H133322   5.298   6.403  11.538 -1.2610  0.1627 -0.2826
 3969TIP3    H233323   5.367   6.285  11.602 -0.3810  0.4062 -0.7469
 3970TIP3   OH233324   5.423   1.989  11.882 -0.1417  0.1993  0.6304
 3970TIP3    H133325   5.455   2.017  11.796  0.6886  0.4325  1.0026
 3970TIP3    H233326   5.474   1.910  11.902  1.9037  1.8229  2.2183
 3971TIP3   OH233327   3.435   2.927   0.689 -0.3194 -0.3927  0.1140
 3971TIP3    H133328   3.354   2.968   0.661 -0.7722  0.0538  1.9398
 3971TIP3    H233329   3.428   2.836   0.659 -1.6620 -0.4542  0.5707
 3972TIP3   OH233330   4.590   1.155   5.579  0.2126 -0.2306  0.2967
 3972TIP3    H133331   4.669   1.150   5.525 -1.0106 -2.2165 -1.5027
 3972TIP3    H233332   4.542   1.074   5.558 -1.8276  0.4313  2.0604
 3973TIP3   OH233333   6.651   0.206  11.552  0.0431  0.4077 -0.2281
 3973TIP3    H133334   6.659   0.135  11.489 -1.2731  1.5149 -1.7373
 3973TIP3    H233335   6.736   0.251  11.549 -0.0775  0.5883 -1.4336
 3974TIP3   OH233336   0.324   2.009  15.580  0.4558 -0.2258  0.2894
 3974TIP3    H133337   0.378   2.010  15.501  0.9915  0.2292  0.6515
 3974TIP3    H233338   0.279   1.925  15.578 -0.2569  0.1553 -0.9780
 3975TIP3   OH233339   5.241   0.487   3.119  0.3561 -0.3762  0.3326
 3975TIP3    H133340   5.153   0.478   3.084  0.8360 -1.1107 -0.7315
 3975TIP3    H233341   5.248   0.416   3.183  0.0913 -0.1347  0.6378
 3976TIP3   OH233342   4.168   4.800  13.548 -0.3251 -0.2455  0.3024
 3976TIP3    H133343   4.173   4.893  13.528 -0.8970 -0.2786 -0.0250
 3976TIP3    H233344   4.093   4.769  13.497 -0.8634 -0.6435  1.3170
 3977TIP3   OH233345   5.395   5.529   3.873 -0.2993  0.3561  0.0365
 3977TIP3    H133346   5.364   5.483   3.795 -0.1182  2.8445 -1.6248
 3977TIP3    H233347   5.347   5.489   3.945 -1.2939 -1.3214 -1.4617
 3978TIP3   OH233348   1.614   1.571   3.256 -0.2383  0.5957 -0.2351
 3978TIP3    H133349   1.643   1.658   3.282  1.1977  0.1316 -0.1903
 3978TIP3    H233350   1.563   1.540   3.330  0.3294  0.9065  0.2989
 3979TIP3   OH233351   4.197   3.964  15.735 -0.0621  0.1548  0.2652
 3979TIP3    H133352   4.173   4.029  15.802 -0.2961  1.0189 -0.6293
 3979TIP3    H233353   4.292   3.957  15.741 -0.0846  0.2112  0.7071
 3980TIP3   OH233354   5.877   2.800   1.886 -0.1064  0.2511 -0.4867
 3980TIP3    H133355   5.847   2.711   1.904 -0.7180  0.2405 -1.5084
 3980TIP3    H233356   5.889   2.839   1.973 -2.3551  0.0211 -0.0228
 3981TIP3   OH233357   0.758   0.851  12.079 -0.2226  0.4724  0.3431
 3981TIP3    H133358   0.849   0.845  12.109  0.7740  0.5642 -2.4140
 3981TIP3    H233359   0.711   0.786  12.131  1.9367 -1.4154  0.0886
 3982TIP3   OH233360   4.251   6.384  11.333 -0.0492  0.4471 -0.0085
 3982TIP3    H133361   4.300   6.420  11.259  1.6360  0.1093  0.9043
 3982TIP3    H233362   4.314   6.379  11.404 -1.1286 -1.0505  0.9082
 3983TIP3   OH233363   4.084   1.187   3.566  0.2016 -0.1567 -0.0890
 3983TIP3    H133364   4.145   1.118   3.592 -1.3972 -1.4919  0.2455
 3983TIP3    H233365   4.083   1.248   3.640  1.0789 -0.1209 -0.0896
 3984TIP3   OH233366   5.989   3.812   5.336  0.1312 -1.1138  0.0323
 3984TIP3    H133367   5.973   3.836   5.428 -0.0184  1.9828 -0.6860
 3984TIP3    H233368   6.075   3.849   5.317 -0.6537  0.0096 -1.5516
 3985TIP3   OH233369   1.527   3.056   5.872  0.2950  0.5618  0.8124
 3985TIP3    H133370   1.526   3.137   5.820  1.1252  0.4063  0.5387
 3985TIP3    H233371   1.619   3.031   5.875 -0.0317 -0.8112  0.2224
 3986TIP3   OH233372   4.133   1.093  15.087 -0.1599 -0.4572  0.4740
 3986TIP3    H133373   4.071   1.032  15.126  0.1510 -0.2552  1.3034
 3986TIP3    H233374   4.081   1.148  15.030 -0.8597  0.1294  1.6496
 3987TIP3   OH233375   2.782   1.020   2.212  0.1931 -0.0588  0.6828
 3987TIP3    H133376   2.853   1.023   2.148 -1.2470  0.1328 -0.9967
 3987TIP3    H233377   2.704   1.044   2.162 -1.5093 -2.7713  1.8125
 3988TIP3   OH233378   5.610   0.382   2.421 -0.2543 -0.6729 -0.2117
 3988TIP3    H133379   5.548   0.375   2.349 -0.1265 -0.7028 -0.3205
 3988TIP3    H233380   5.610   0.294   2.461 -0.1920 -0.7080 -0.2879
 3989TIP3   OH233381   5.876   6.168   2.716  0.2254 -0.2954  0.6262
 3989TIP3    H133382   5.962   6.156   2.676 -0.2416 -0.1555 -0.4514
 3989TIP3    H233383   5.890   6.234   2.784  1.0623 -0.6336  0.7834
 3990TIP3   OH233384   4.679   5.443  12.206  0.1549 -0.0265  0.2805
 3990TIP3    H133385   4.689   5.403  12.293  0.3506  0.7525  0.6243
 3990TIP3    H233386   4.686   5.370  12.145 -0.9275 -0.7262  0.9665
 3991TIP3   OH233387   5.061   0.325  15.871  0.4277  0.2739  0.1332
 3991TIP3    H133388   4.967   0.308  15.858  0.1185  2.3847 -0.8600
 3991TIP3    H233389   5.101   0.239  15.868 -1.4437 -0.6582  0.1724
 3992TIP3   OH233390   2.690   1.532   4.500  0.0914 -0.2248  0.2158
 3992TIP3    H133391   2.689   1.443   4.535 -0.2866  0.5652  2.3644
 3992TIP3    H233392   2.614   1.535   4.442 -0.6967 -0.9097  1.1845
 3993TIP3   OH233393   3.973   5.034   4.297  0.2065 -0.3569  0.3144
 3993TIP3    H133394   4.010   5.059   4.382 -0.8062  1.7116  0.1897
 3993TIP3    H233395   3.878   5.041   4.310 -0.0017 -1.0793 -0.7109
 3994TIP3   OH233396   4.724   3.670   3.355 -0.2127  0.4947 -0.2354
 3994TIP3    H133397   4.735   3.679   3.449 -1.7898 -0.0170  0.0225
 3994TIP3    H233398   4.793   3.610   3.328  0.0808  0.4375  0.6367
 3995TIP3   OH233399   5.769   3.019   5.843 -0.6760  0.4883 -0.3234
 3995TIP3    H133400   5.846   3.049   5.892  0.5065  0.3485 -2.0147
 3995TIP3    H233401   5.805   2.980   5.764 -2.1362 -4.2417  1.0013
 3996TIP3   OH233402   4.385   0.775  10.803  0.4143  0.2032  0.4399
 3996TIP3    H133403   4.476   0.778  10.772 -0.0068 -0.3166 -0.9097
 3996TIP3    H233404   4.335   0.745  10.728 -0.8891  0.4448  1.1811
 3997TIP3   OH233405   2.031   3.682  12.395 -0.0279  0.4458  0.6280
 3997TIP3    H133406   1.984   3.764  12.407 -2.4001 -0.3799 -1.9984
 3997TIP3    H233407   2.064   3.685  12.305 -0.0464 -1.3720  0.5113
 3998TIP3   OH233408   2.832   2.190   0.886 -0.0767 -0.2674  0.0294
 3998TIP3    H133409   2.847   2.271   0.838  1.9380 -0.4831  0.2400
 3998TIP3    H233410   2.788   2.132   0.824 -3.5377  1.5905  0.4701
 3999TIP3   OH233411   6.463   1.910  14.714  0.1905  0.2338  0.0152
 3999TIP3    H133412   6.424   1.834  14.758  0.2606  0.3223  0.2273
 3999TIP3    H233413   6.421   1.910  14.628  0.7291 -0.4789 -0.2609
 4000TIP3   OH233414   2.273   4.946   4.257  0.4533  0.5544 -1.0177
 4000TIP3    H133415   2.238   4.872   4.307 -0.3932  0.1112 -2.2324
 4000TIP3    H233416   2.366   4.948   4.280  0.0470  0.5346  0.7566
 4001TIP3   OH233417   5.473   5.266  14.198 -0.4028 -0.3124 -0.6761
 4001TIP3    H133418   5.433   5.343  14.238 -0.7175 -1.4783  1.3901
 4001TIP3    H233419   5.401   5.222  14.153 -0.5625 -0.2373 -0.4937
 4002TIP3   OH233420   0.605   5.620   0.375 -0.4525 -0.3687 -0.1016
 4002TIP3    H133421   0.646   5.606   0.461  1.3411 -1.1931 -1.0399
 4002TIP3    H233422   0.581   5.533   0.345 -0.5271 -0.1487 -0.6906
 4003TIP3   OH233423   3.204   5.318   0.372  0.0187  0.1102  0.5867
 4003TIP3    H133424   3.293   5.290   0.392  0.3879 -0.0571 -1.1982
 4003TIP3    H233425   3.174   5.361   0.453  2.1646  1.3440  0.7885
 4004TIP3   OH233426   3.656   6.571  16.673 -0.0076  0.3570 -1.1702
 4004TIP3    H133427   3.744   6.554  16.638  0.3995  0.4518 -0.2167
 4004TIP3    H233428   3.624   6.485  16.699  0.3493  0.4738 -0.2910
 4005TIP3   OH233429   5.897   3.460   0.042  0.0360  0.4475 -0.0278
 4005TIP3    H133430   5.877   3.423  -0.044 -1.1516  2.5972 -0.7497
 4005TIP3    H233431   5.827   3.428   0.099  0.1257  0.0033 -0.1687
 4006TIP3   OH233432   4.680   4.348  13.203 -0.2194 -0.0041 -0.3960
 4006TIP3    H133433   4.596   4.372  13.241 -0.7028 -2.0019 -0.0856
 4006TIP3    H233434   4.700   4.262  13.240  1.7819  0.2350 -0.7685
 4007TIP3   OH233435   5.541   4.339   2.630 -0.3334 -0.2977 -0.0805
 4007TIP3    H133436   5.588   4.332   2.547 -0.2857 -0.6804 -0.0210
 4007TIP3    H233437   5.460   4.385   2.608  0.2364  0.7348 -0.1164
 4008TIP3   OH233438   1.267   4.457   4.141 -0.4699  0.1263 -0.1077
 4008TIP3    H133439   1.234   4.508   4.215  0.6737 -0.0539  0.5529
 4008TIP3    H233440   1.341   4.508   4.109  1.7892 -1.8604  1.6394
 4009TIP3   OH233441   4.770   2.076   0.175  0.3299  0.3875 -0.0545
 4009TIP3    H133442   4.699   2.028   0.217  1.4791 -0.5423  0.8510
 4009TIP3    H233443   4.832   2.096   0.245  1.7564 -0.2266 -1.0908
 4010TIP3   OH233444   5.221   4.240  12.576 -0.1609  0.0420  0.5862
 4010TIP3    H133445   5.134   4.209  12.552 -1.1311  1.5594  1.9721
 4010TIP3    H233446   5.257   4.171  12.633  0.7624 -1.9224 -2.1651
 4011TIP3   OH233447   4.216   6.740   0.316  0.0818 -0.1738 -0.7253
 4011TIP3    H133448   4.124   6.714   0.309 -0.3321  1.4988 -2.0308
 4011TIP3    H233449   4.246   6.747   0.226  1.3409 -0.1766 -0.3186
 4012TIP3   OH233450   4.262   0.552  12.641  0.7910  0.1090 -0.5037
 4012TIP3    H133451   4.303   0.574  12.725  0.2678 -0.1048 -0.1860
 4012TIP3    H233452   4.262   0.634  12.591  0.5108  0.4006 -0.0343
 4013TIP3   OH233453   6.659   4.132  14.361  0.3683  0.0512 -0.5171
 4013TIP3    H133454   6.648   4.167  14.272 -1.0240  0.0803 -0.3572
 4013TIP3    H233455   6.575   4.090  14.380 -0.0979  1.7275  1.5174
 4014TIP3   OH233456   2.328   2.078  14.360 -0.0102 -0.3880 -0.0691
 4014TIP3    H133457   2.373   2.162  14.347 -0.8191  0.2742  1.2374
 4014TIP3    H233458   2.367   2.020  14.295 -0.2130  1.2933 -1.7723
 4015TIP3   OH233459   3.199   1.357  12.228 -0.3931 -0.3913 -0.4856
 4015TIP3    H133460   3.286   1.390  12.248 -0.3045 -0.8658 -0.0757
 4015TIP3    H233461   3.205   1.328  12.137  0.5212 -2.4046  0.1510
 4016TIP3   OH233462   3.627   1.335   0.093 -0.1165 -0.5322 -0.0763
 4016TIP3    H133463   3.540   1.306   0.067 -1.0082 -0.1304  2.1994
 4016TIP3    H233464   3.617   1.429   0.108  0.2998 -0.7084  1.5513
 4017TIP3   OH233465   3.988   5.861   5.744 -0.8191  0.4973  0.3751
 4017TIP3    H133466   3.945   5.776   5.742  1.3632 -0.6930  0.8183
 4017TIP3    H233467   3.994   5.883   5.837 -1.2242  1.0779  0.2725
 4018TIP3   OH233468   3.703   3.056   1.432  0.1444 -0.5499  0.1113
 4018TIP3    H133469   3.627   3.005   1.404 -0.8055  0.6610  0.4217
 4018TIP3    H233470   3.768   3.042   1.363 -1.0880  0.0123 -1.2093
 4019TIP3   OH233471   5.897   6.431  12.846  0.6338 -0.3466  0.2194
 4019TIP3    H133472   5.838   6.494  12.888 -0.4338 -1.4955  0.5145
 4019TIP3    H233473   5.982   6.449  12.885  0.2864  0.7073  0.5251
 4020TIP3   OH233474   1.357   5.428  16.220 -0.1845 -0.2964 -0.3903
 4020TIP3    H133475   1.435   5.382  16.250 -0.4714 -2.5805 -2.7618
 4020TIP3    H233476   1.340   5.391  16.133 -1.0162  3.6920 -2.1468
 4021TIP3   OH233477   0.907   4.530  16.179  0.1685 -0.0828  0.3135
 4021TIP3    H133478   0.844   4.497  16.242 -0.4268 -1.2364 -0.8372
 4021TIP3    H233479   0.854   4.563  16.107  0.8581 -0.2477 -0.2876
 4022TIP3   OH233480   5.378   4.821  14.230 -0.1262 -0.4667 -0.1662
 4022TIP3    H133481   5.293   4.809  14.188 -0.3080 -1.0210  0.3492
 4022TIP3    H233482   5.372   4.771  14.311  0.0771  0.8919  0.7200
 4023TIP3   OH233483   6.275   5.501   5.570 -0.3789 -0.0176 -0.4656
 4023TIP3    H133484   6.282   5.597   5.568 -2.0699  0.2132  1.3907
 4023TIP3    H233485   6.238   5.478   5.485 -0.5990  1.0511 -0.6728
 4024TIP3   OH233486   2.212   4.791  17.123 -0.2454 -0.5198 -0.1480
 4024TIP3    H133487   2.118   4.800  17.115 -0.2206 -0.5307 -0.4487
 4024TIP3    H233488   2.248   4.865  17.075 -0.1046 -0.4027  0.1384
 4025TIP3   OH233489   1.239   1.716  11.874  0.0904  0.2620 -0.4839
 4025TIP3    H133490   1.320   1.763  11.894  1.3415 -1.9646  0.0412
 4025TIP3    H233491   1.230   1.723  11.779  0.9891  0.3917 -0.5664
 4026TIP3   OH233492   3.784   3.509   6.043  0.3280 -0.5688  0.8814
 4026TIP3    H133493   3.689   3.495   6.041  0.2908 -0.2675  0.3467
 4026TIP3    H233494   3.794   3.592   6.090  0.3984 -1.1258  1.8751
 4027TIP3   OH233495   4.534   3.972   2.481 -0.0027 -0.1103  0.3632
 4027TIP3    H133496   4.541   3.886   2.523 -0.8711  0.0218  0.8016
 4027TIP3    H233497   4.445   4.002   2.501 -0.2786  0.1783 -1.1615
 4028TIP3   OH233498   0.311   0.549   1.394 -0.0811  0.3863  0.3020
 4028TIP3    H133499   0.281   0.639   1.389  0.9821  0.8429  1.7451
 4028TIP3    H233500   0.250   0.506   1.453  0.2390  0.5352  0.7498
 4029TIP3   OH233501   3.373   4.590   1.014  0.5345  0.3165 -0.2838
 4029TIP3    H133502   3.350   4.569   1.104 -0.2725 -0.6068 -0.6873
 4029TIP3    H233503   3.414   4.510   0.980  0.1620  0.3946 -0.9456
 4030TIP3   OH233504   1.338   6.082  14.871 -0.4025  0.1411  0.2513
 4030TIP3    H133505   1.264   6.035  14.911 -0.1583 -0.7023 -0.2694
 4030TIP3    H233506   1.394   6.013  14.836  0.1649  0.8131 -0.1838
 4031TIP3   OH233507   0.193   0.424   3.696  0.2911 -0.4187 -0.1024
 4031TIP3    H133508   0.120   0.442   3.756  0.4227 -1.9832  0.5788
 4031TIP3    H233509   0.160   0.449   3.610 -1.1452 -1.2998  0.1582
 4032TIP3   OH233510   3.572   5.226   2.470  0.0346 -0.1403  0.0262
 4032TIP3    H133511   3.633   5.251   2.538  1.9467 -1.3003 -1.1895
 4032TIP3    H233512   3.515   5.303   2.460  0.8209  0.6966  1.6649
 4033TIP3   OH233513   1.903   6.771  17.026  0.2946 -0.3674  0.4057
 4033TIP3    H133514   1.961   6.695  17.029 -0.5112 -0.9780  0.7417
 4033TIP3    H233515   1.880   6.788  17.117  2.1848  1.6544  0.5870
 4034TIP3   OH233516   2.887   4.485   0.142  0.1792  0.6273  0.0334
 4034TIP3    H133517   2.980   4.499   0.163  0.2811 -0.4822  0.4027
 4034TIP3    H233518   2.888   4.421   0.071 -0.2945  1.1131 -0.4176
 4035TIP3   OH233519   2.611   4.717   1.086  0.5860  0.2184 -0.1955
 4035TIP3    H133520   2.673   4.671   1.143  2.3728  1.5921 -0.9025
 4035TIP3    H233521   2.645   4.701   0.997  0.0720  1.2013 -0.5834
 4036TIP3   OH233522   5.672   4.324   4.155 -0.6662  0.3272 -0.6046
 4036TIP3    H133523   5.658   4.243   4.106  1.8030 -0.4970 -0.1092
 4036TIP3    H233524   5.636   4.306   4.242  1.8656 -1.2105  0.2344
 4037TIP3   OH233525   0.201   0.921  12.470  0.1276  0.3533  0.1649
 4037TIP3    H133526   0.114   0.889  12.446  1.2551 -2.2374 -0.7623
 4037TIP3    H233527   0.212   0.894  12.561 -0.7868  2.5684  1.0027
 4038TIP3   OH233528   2.645   1.256  14.976  0.7010  0.4520 -0.0717
 4038TIP3    H133529   2.550   1.263  14.973  0.7403  1.5304  0.7669
 4038TIP3    H233530   2.670   1.228  14.888 -0.2129  2.5208 -1.0427
 4039TIP3   OH233531   3.305   4.587   5.415 -0.1134  0.2922 -0.2610
 4039TIP3    H133532   3.356   4.528   5.471  3.3992  0.1413 -3.2675
 4039TIP3    H233533   3.262   4.529   5.352 -0.9378  0.6783 -0.0650
 4040TIP3   OH233534   6.151   5.092   2.776 -0.7976 -0.3384  0.4869
 4040TIP3    H133535   6.175   5.002   2.796 -1.0933 -0.4297  0.4430
 4040TIP3    H233536   6.065   5.085   2.735 -0.5766 -0.0810 -0.0238
 4041TIP3   OH233537   3.413   4.981   5.606 -0.4321 -0.1255 -0.4162
 4041TIP3    H133538   3.504   5.006   5.623 -0.4944  0.9790 -1.5331
 4041TIP3    H233539   3.383   4.943   5.688  1.1941 -1.0129 -0.1766
 4042TIP3   OH233540   6.034   3.934  15.189 -0.1573 -0.3020  0.1894
 4042TIP3    H133541   6.047   3.983  15.107 -0.9070  0.6856  0.6346
 4042TIP3    H233542   5.978   3.861  15.164  0.7983 -0.8419 -0.4477
 4043TIP3   OH233543   5.346   5.332   6.016 -0.3318 -0.3544 -0.0170
 4043TIP3    H133544   5.345   5.327   5.921 -0.0937 -1.2878  0.0160
 4043TIP3    H233545   5.337   5.425   6.036  1.3920  0.0691 -0.9841
 4044TIP3   OH233546   5.541   0.573  12.012  0.3917  0.0323  0.2873
 4044TIP3    H133547   5.532   0.630  12.089 -1.3817  2.0198 -1.2914
 4044TIP3    H233548   5.476   0.605  11.951  1.4458 -1.7828 -1.9183
 4045TIP3   OH233549   6.689   0.225  12.766  0.2562  0.3565  0.2051
 4045TIP3    H133550   6.650   0.312  12.758 -0.1150  0.0966 -1.0763
 4045TIP3    H233551   6.618   0.165  12.743  0.1038 -0.3849  2.4107
 4046TIP3   OH233552   0.900   5.715   5.696  0.2575 -0.0924 -0.9218
 4046TIP3    H133553   0.957   5.792   5.700  2.0803 -1.2891 -2.4256
 4046TIP3    H233554   0.905   5.677   5.784  1.7978 -0.1722 -1.0242
 4047TIP3   OH233555   4.486   4.960  14.189  0.8950  0.1633  0.1116
 4047TIP3    H133556   4.524   5.048  14.191  0.8470  0.2125  2.7954
 4047TIP3    H233557   4.543   4.910  14.131  0.2143  2.1991 -2.4788
 4048TIP3   OH233558   0.921   5.691   2.606  0.0628  0.1641  0.0662
 4048TIP3    H133559   0.918   5.746   2.684 -1.8783 -0.7469  0.6975
 4048TIP3    H233560   0.855   5.730   2.547 -0.7737 -0.9728  0.2086
 4049TIP3   OH233561   4.837   6.735   1.473  0.1933 -0.1182 -0.2509
 4049TIP3    H133562   4.837   6.829   1.452 -2.8999 -0.0027 -0.2996
 4049TIP3    H233563   4.805   6.731   1.564  1.8860 -1.1102  0.3451
 4050TIP3   OH233564   2.631   0.109   0.670 -0.0485 -0.1658 -0.2196
 4050TIP3    H133565   2.569   0.090   0.600 -1.5658  1.9000  0.4882
 4050TIP3    H233566   2.603   0.193   0.706 -0.2026 -1.7387  3.8258
 4051TIP3   OH233567   5.517   2.679   5.155 -0.1278 -0.4389  0.0209
 4051TIP3    H133568   5.589   2.721   5.201 -0.7680  0.0265  0.6055
 4051TIP3    H233569   5.528   2.707   5.064  1.0441 -1.2327 -0.1147
 4052TIP3   OH233570   4.016   4.695   2.392 -0.0498 -0.0008  0.2995
 4052TIP3    H133571   4.018   4.623   2.456 -0.2996 -1.0915 -0.8736
 4052TIP3    H233572   4.105   4.729   2.392  0.6053 -1.6021 -0.5021
 4053TIP3   OH233573   2.230   2.983   6.687  0.6488  0.1352 -0.2186
 4053TIP3    H133574   2.173   2.971   6.611  0.5932  1.8603 -0.4702
 4053TIP3    H233575   2.172   3.013   6.757  0.9346 -0.0270  0.0929
 4054TIP3   OH233576   1.199   4.816  13.761 -0.0623 -0.0422 -0.2214
 4054TIP3    H133577   1.158   4.780  13.682  0.3289 -1.3764  0.1625
 4054TIP3    H233578   1.201   4.910  13.745 -2.0789 -0.0437 -0.8068
 4055TIP3   OH233579   6.419   4.571  14.402  0.0434 -0.0877  0.3824
 4055TIP3    H133580   6.347   4.540  14.457  0.6330 -2.8504 -0.2935
 4055TIP3    H233581   6.398   4.663  14.387 -4.0514 -0.9967 -0.8169
 4056TIP3   OH233582   5.107   1.076   0.474 -0.3573  0.3973 -0.2272
 4056TIP3    H133583   5.152   0.991   0.474  1.2390  1.1798  0.8952
 4056TIP3    H233584   5.176   1.139   0.497 -1.8366  1.8088  0.5137
 4057TIP3   OH233585   6.476   0.264  11.949 -0.3432 -0.1470  0.2013
 4057TIP3    H133586   6.538   0.220  11.892  0.7603  0.6943  0.7282
 4057TIP3    H233587   6.442   0.194  12.006 -0.3173 -0.7062 -0.4651
 4058TIP3   OH233588   4.098   4.940   5.594  0.5419  0.0139 -0.0009
 4058TIP3    H133589   4.183   4.947   5.638  0.8832  0.0609 -0.6674
 4058TIP3    H233590   4.058   5.026   5.606  0.9818  0.2916 -0.4826
 4059TIP3   OH233591   2.813   4.533  15.067 -0.1149 -0.2663  0.1088
 4059TIP3    H133592   2.844   4.574  14.986 -0.5985  2.0586  1.0225
 4059TIP3    H233593   2.820   4.602  15.132 -1.1545 -1.6431  1.7429
 4060TIP3   OH233594   0.358   3.419   4.826  0.4873 -0.2852  0.3100
 4060TIP3    H133595   0.433   3.479   4.821 -0.7429  1.3833  0.8375
 4060TIP3    H233596   0.333   3.419   4.918 -2.5923  2.4719 -0.3271
 4061TIP3   OH233597   6.087   3.559  14.790  0.5261 -0.5233 -0.3190
 4061TIP3    H133598   6.056   3.501  14.859 -1.3266  1.0819  0.2814
 4061TIP3    H233599   6.034   3.534  14.713 -0.6993  0.6838  0.0945
 4062TIP3   OH233600   6.168   6.599  16.363 -0.0360 -0.4173 -0.3973
 4062TIP3    H133601   6.261   6.580  16.375  0.1378  0.1517 -0.7699
 4062TIP3    H233602   6.123   6.539  16.422  0.6089 -0.1165  0.4234
 4063TIP3   OH233603   4.410   5.309   1.144 -0.4694  0.4244 -0.0424
 4063TIP3    H133604   4.404   5.383   1.205  2.1189 -1.2196  2.4627
 4063TIP3    H233605   4.426   5.233   1.200  0.7798 -1.4416 -2.7313
 4064TIP3   OH233606   1.004   5.078  14.314  0.2667 -0.3326  0.2643
 4064TIP3    H133607   0.939   5.108  14.251  0.1939 -2.0061 -0.5119
 4064TIP3    H233608   1.077   5.138  14.303 -0.4619  0.5072 -0.1009
 4065TIP3   OH233609   2.778   6.173  16.409  0.3474  0.4275 -0.1408
 4065TIP3    H133610   2.838   6.127  16.350  1.4977  0.1925  1.1569
 4065TIP3    H233611   2.835   6.207  16.478 -0.9702  0.6178  0.8694
 4066TIP3   OH233612   3.983   1.588  13.465 -0.3401  0.4705  0.3406
 4066TIP3    H133613   4.022   1.523  13.524 -0.7496 -0.2816 -0.1978
 4066TIP3    H233614   4.056   1.646  13.442 -0.1229  0.6277  1.3790
 4067TIP3   OH233615   3.332   5.398   4.550 -0.5853 -0.4742 -0.3001
 4067TIP3    H133616   3.269   5.412   4.480  0.0050 -0.0759 -0.7630
 4067TIP3    H233617   3.278   5.382   4.628 -1.2604 -2.3073 -1.0765
 4068TIP3   OH233618   1.745   4.730   4.999  0.3995  0.3203 -0.4438
 4068TIP3    H133619   1.812   4.781   5.044 -0.0051  0.0566  0.4832
 4068TIP3    H233620   1.776   4.640   5.003  0.1733  0.2453 -0.3516
 4069TIP3   OH233621   5.800   5.577   0.257  0.4541  0.3793 -0.7196
 4069TIP3    H133622   5.879   5.537   0.219 -0.0458  0.1292 -1.5285
 4069TIP3    H233623   5.734   5.508   0.251  0.6725 -0.1229  1.8445
 4070TIP3   OH233624   0.128   5.464   0.918  0.1866  0.5247 -0.4906
 4070TIP3    H133625   0.090   5.386   0.878  3.0494 -1.2392 -0.0799
 4070TIP3    H233626   0.088   5.537   0.871 -3.1761 -1.0494 -0.3871
 4071TIP3   OH233627   1.368   3.159  12.319  0.1627  0.4606  0.1338
 4071TIP3    H133628   1.296   3.201  12.365 -1.2385 -0.3655 -1.2177
 4071TIP3    H233629   1.439   3.154  12.384 -1.1383  0.8610  1.6367
 4072TIP3   OH233630   3.566   5.564   1.552 -0.9011 -0.0823 -0.4479
 4072TIP3    H133631   3.577   5.516   1.634  0.3749 -1.5790 -1.4187
 4072TIP3    H233632   3.480   5.538   1.521 -2.1197  1.8020  1.1723
 4073TIP3   OH233633   4.880   0.044   3.408 -0.6553  0.0295  0.0504
 4073TIP3    H133634   4.785   0.046   3.421 -0.7119 -2.7582  0.6810
 4073TIP3    H233635   4.893   0.073   3.317 -1.9755  1.3552  0.2440
 4074TIP3   OH233636   1.756   3.432   0.472  0.6670  0.3172 -0.1049
 4074TIP3    H133637   1.704   3.412   0.394  1.1312 -0.0961 -0.3209
 4074TIP3    H233638   1.702   3.402   0.545 -0.4139  2.0460 -0.1398
 4075TIP3   OH233639   0.913   6.229  11.314  0.1407 -0.0095  0.0608
 4075TIP3    H133640   0.955   6.144  11.326 -1.2831 -0.5812  1.3986
 4075TIP3    H233641   0.848   6.213  11.246  0.0038  0.0410  0.1783
 4076TIP3   OH233642   2.038   4.443   1.630  0.4253 -1.3278  0.0822
 4076TIP3    H133643   2.060   4.532   1.604  1.9140 -1.7059 -0.0744
 4076TIP3    H233644   2.099   4.424   1.702  1.1229 -2.6998 -0.8320
 4077TIP3   OH233645   3.669   0.212  15.980 -0.1504  0.4372  0.6139
 4077TIP3    H133646   3.712   0.260  15.909 -0.3208  1.1883  1.0065
 4077TIP3    H233647   3.635   0.133  15.939  2.1749 -0.5349  0.4155
 4078TIP3   OH233648   1.488   3.150   2.797 -0.1223  0.0059  0.1134
 4078TIP3    H133649   1.450   3.217   2.740  3.8567  1.3070 -1.3802
 4078TIP3    H233650   1.485   3.069   2.746 -0.8225  0.0971  0.0082
 4079TIP3   OH233651   2.932   4.141   3.411 -0.5376  0.0421  0.2203
 4079TIP3    H133652   2.972   4.124   3.496  0.2139 -1.5525 -0.4143
 4079TIP3    H233653   2.839   4.150   3.430 -0.1552  2.2776  1.5169
 4080TIP3   OH233654   1.269   1.247  11.843 -0.6773  0.5503 -0.3614
 4080TIP3    H133655   1.191   1.196  11.822 -0.3159  0.5626 -1.8677
 4080TIP3    H233656   1.235   1.330  11.878 -1.4203  1.0851 -2.2270
 4081TIP3   OH233657   6.125   3.640   1.643  0.1451 -0.9566 -0.3020
 4081TIP3    H133658   6.182   3.675   1.575  1.6805 -1.6673  0.5564
 4081TIP3    H233659   6.119   3.547   1.623 -1.1890 -0.8048 -0.6841
 4082TIP3   OH233660   2.628   3.038  14.498  0.4672 -0.3179  0.2728
 4082TIP3    H133661   2.622   3.033  14.594 -1.6997 -0.8939  0.1604
 4082TIP3    H233662   2.577   3.116  14.475 -2.4106 -2.3290 -0.5913
 4083TIP3   OH233663   4.389   1.006   0.774 -0.2516 -0.4415 -0.5095
 4083TIP3    H133664   4.437   0.931   0.809 -2.3561 -1.3097  0.7058
 4083TIP3    H233665   4.356   0.976   0.689 -0.6246 -0.7220 -0.2709
 4084TIP3   OH233666   5.999   3.902   3.407  0.5728  0.1554 -0.1129
 4084TIP3    H133667   6.052   3.902   3.327  0.3733 -0.5482 -0.2577
 4084TIP3    H233668   6.005   3.991   3.440  0.5701  0.4850 -0.9761
 4085TIP3   OH233669   3.788   4.237  16.042  0.1068  0.3768 -0.4768
 4085TIP3    H133670   3.845   4.199  16.108  0.2383  2.5791  0.7866
 4085TIP3    H233671   3.719   4.281  16.092 -1.8715 -0.9173 -1.9333
 4086TIP3   OH233672   5.564   0.709   1.738 -0.4059  0.0593  0.2937
 4086TIP3    H133673   5.638   0.656   1.710 -0.9383 -1.4526  1.6346
 4086TIP3    H233674   5.495   0.646   1.758 -1.4470  1.3255  0.8749
 4087TIP3   OH233675   2.964   6.720  16.777  0.3172  0.1487  0.1194
 4087TIP3    H133676   3.029   6.730  16.846  0.5287 -3.1998  0.5693
 4087TIP3    H233677   2.882   6.747  16.817  0.6885 -0.2064  1.1465
 4088TIP3   OH233678   6.771   6.284   1.126 -0.0528  0.6789  0.5087
 4088TIP3    H133679   6.681   6.258   1.145 -0.6340  1.2017 -1.3176
 4088TIP3    H233680   6.770   6.380   1.133  0.2266  0.7238 -0.0158
 4089TIP3   OH233681   4.792   6.193   5.278 -0.3602  0.1172  0.1527
 4089TIP3    H133682   4.775   6.100   5.264 -0.8477  0.4194 -1.5621
 4089TIP3    H233683   4.792   6.231   5.189  1.0438  1.5484  0.7089
 4090TIP3   OH233684   1.559   1.789  15.566 -0.1222  0.3765 -0.2738
 4090TIP3    H133685   1.562   1.798  15.471  1.0548  1.1320 -0.1818
 4090TIP3    H233686   1.543   1.877  15.599 -1.9842 -0.0895  0.2142
 4091TIP3   OH233687   0.939   3.607   0.671 -0.6532  1.2175 -0.0395
 4091TIP3    H133688   0.854   3.616   0.626  0.2970  0.0020 -2.2256
 4091TIP3    H233689   0.958   3.513   0.668 -0.3009  1.1194  2.6317
 4092TIP3   OH233690   1.679   6.801   2.078 -0.2984  0.1389  0.2466
 4092TIP3    H133691   1.711   6.861   2.010 -0.6719 -0.1694 -0.1970
 4092TIP3    H233692   1.724   6.719   2.061  0.1242  0.2459  0.7881
 4093TIP3   OH233693   2.527   1.348  13.690 -0.3071  0.5899 -1.0067
 4093TIP3    H133694   2.440   1.353  13.652 -0.3314 -1.2557 -1.2763
 4093TIP3    H233695   2.570   1.276  13.642  1.5851  1.8504 -1.3131
 4094TIP3   OH233696   5.787   0.287  15.311  0.2895 -0.2858 -0.2870
 4094TIP3    H133697   5.813   0.196  15.295  1.7134  0.2390 -1.2084
 4094TIP3    H233698   5.758   0.288  15.402 -2.4624 -2.2244 -1.0188
 4095TIP3   OH233699   6.676   1.463   4.211  0.5278 -0.2681 -0.0278
 4095TIP3    H133700   6.632   1.510   4.141 -1.8896  0.6494  1.9935
 4095TIP3    H233701   6.634   1.377   4.212 -0.0799  0.0284  0.8298
 4096TIP3   OH233702   1.553   1.430  15.503  0.1261 -0.4217  0.4807
 4096TIP3    H133703   1.622   1.422  15.437  2.0297 -0.8974  2.3876
 4096TIP3    H233704   1.500   1.504  15.474  0.9230 -0.5750 -1.5166
 4097TIP3   OH233705   3.172   0.347   4.854  0.5796  0.4959  0.1553
 4097TIP3    H133706   3.239   0.399   4.810  0.7439  0.3546  0.2325
 4097TIP3    H233707   3.129   0.298   4.784 -0.5498  1.8018 -0.0977
 4098TIP3   OH233708   1.444   4.747   1.172  0.0655  0.2206  0.1981
 4098TIP3    H133709   1.451   4.668   1.119 -0.9385  1.4194 -1.8176
 4098TIP3    H233710   1.355   4.745   1.208 -0.3886  0.9987 -0.8455
 4099TIP3   OH233711   5.266   0.787  13.612  0.2263 -0.1879  0.0899
 4099TIP3    H133712   5.237   0.737  13.688  0.1182  0.3466  0.4022
 4099TIP3    H233713   5.250   0.878  13.635 -1.7139 -0.1093 -1.3529
 4100TIP3   OH233714   1.812   3.505  13.075 -0.0567 -0.1914 -0.0734
 4100TIP3    H133715   1.755   3.489  13.150 -0.0685 -0.2446 -0.0936
 4100TIP3    H233716   1.817   3.420  13.031  1.1234 -0.5486  0.6765
 4101TIP3   OH233717   3.725   1.558  16.338 -0.2225 -0.2789 -0.5334
 4101TIP3    H133718   3.640   1.522  16.314 -0.6583  0.5578 -0.2766
 4101TIP3    H233719   3.778   1.482  16.361 -1.5046 -0.6891  1.2230
 4102TIP3   OH233720   5.464   1.863  11.388 -0.3670  0.1916 -0.6376
 4102TIP3    H133721   5.391   1.802  11.392  0.4568 -0.7930  0.2306
 4102TIP3    H233722   5.499   1.853  11.299 -0.1366 -0.7740 -0.4614
 4103TIP3   OH233723   2.312   2.124  15.540  0.3011 -0.0118 -0.0774
 4103TIP3    H133724   2.374   2.107  15.468 -0.7790 -0.6839 -0.8756
 4103TIP3    H233725   2.356   2.189  15.594  1.6398 -0.3452 -0.7184
 4104TIP3   OH233726   4.370   2.681  14.669  0.4866  0.4383 -0.2079
 4104TIP3    H133727   4.337   2.612  14.611 -2.4816  0.5093  1.1974
 4104TIP3    H233728   4.344   2.763  14.626 -0.0764  0.5312  0.2950
 4105TIP3   OH233729   4.311   6.777   5.098  0.2186  0.1120 -0.1532
 4105TIP3    H133730   4.366   6.756   5.022  0.8867 -2.9658  1.0439
 4105TIP3    H233731   4.373   6.806   5.165 -0.3617  2.7222 -0.6348
 4106TIP3   OH233732   2.866   5.287  15.892  0.3972  0.6071  0.1420
 4106TIP3    H133733   2.878   5.331  15.976 -2.6889 -1.3680  1.7937
 4106TIP3    H233734   2.922   5.210  15.897 -0.8442 -0.2735  1.0846
 4107TIP3   OH233735   5.052   0.631  16.241  0.4917  0.2725  0.2087
 4107TIP3    H133736   5.131   0.650  16.292 -0.5301  0.2706  1.8636
 4107TIP3    H233737   4.999   0.576  16.299  0.4833 -2.1859 -1.9471
 4108TIP3   OH233738   0.584   3.369   1.860  0.4265 -0.1747  0.5642
 4108TIP3    H133739   0.577   3.459   1.826 -1.6137 -1.3731 -2.5669
 4108TIP3    H233740   0.657   3.331   1.812  1.0509 -0.3561  1.6239
 4109TIP3   OH233741   6.022   0.406  12.256 -0.4562 -0.3889 -0.3736
 4109TIP3    H133742   5.975   0.406  12.172 -0.7489  1.0065 -0.2340
 4109TIP3    H233743   6.038   0.313  12.274  1.0872 -0.6833 -2.7761
 4110TIP3   OH233744   5.598   2.324   1.813  0.2678  0.0212  0.8819
 4110TIP3    H133745   5.583   2.243   1.862 -0.2996 -1.0879 -1.0392
 4110TIP3    H233746   5.679   2.308   1.765 -0.3871  0.1728 -0.3062
 4111TIP3   OH233747   6.809   0.990  12.178 -0.7639  0.4050  0.5221
 4111TIP3    H133748   6.866   0.936  12.123 -0.5829  1.4655 -0.3734
 4111TIP3    H233749   6.790   0.935  12.254 -2.4389 -1.8002 -1.3533
 4112TIP3   OH233750   4.014   0.462  12.082  0.4161  0.2306  0.6544
 4112TIP3    H133751   4.031   0.488  12.173 -1.8511  3.3136  0.3726
 4112TIP3    H233752   4.063   0.526  12.030 -0.4433  0.1891 -0.2388
 4113TIP3   OH233753   1.587   4.485   2.427 -0.6740 -0.0585 -0.1486
 4113TIP3    H133754   1.520   4.549   2.402 -0.7378 -0.7165 -1.8144
 4113TIP3    H233755   1.543   4.429   2.492 -0.8433  1.1259  0.7851
 4114TIP3   OH233756   3.415   2.546  13.045  0.2540 -0.7828 -0.8246
 4114TIP3    H133757   3.366   2.554  12.963  1.3936  2.0304 -1.3642
 4114TIP3    H233758   3.395   2.626  13.093  2.7800 -0.3949 -0.2432
 4115TIP3   OH233759   1.043   4.725  15.378 -0.5035  0.7400 -0.0332
 4115TIP3    H133760   1.037   4.777  15.298 -1.1914  0.1438 -0.3762
 4115TIP3    H233761   1.108   4.658  15.357 -2.4915 -0.9653 -1.0067
 4116TIP3   OH233762   5.205   3.118   0.682  0.1477 -0.3115  0.2866
 4116TIP3    H133763   5.188   3.188   0.745  0.2365  1.4651 -1.5726
 4116TIP3    H233764   5.119   3.100   0.644  0.5467  0.8412 -1.2439
 4117TIP3   OH233765   4.157   5.317  12.202  0.6943  0.1123 -0.3778
 4117TIP3    H133766   4.227   5.283  12.257 -0.2637 -0.0172  0.8068
 4117TIP3    H233767   4.192   5.314  12.113  2.4154  0.6426  0.2421
 4118TIP3   OH233768   2.292   1.017  13.291  0.0123 -0.0675  0.4314
 4118TIP3    H133769   2.345   1.095  13.278  1.0074 -0.8513 -0.3544
 4118TIP3    H233770   2.298   0.999  13.385  2.2940 -0.8969  0.1908
 4119TIP3   OH233771   3.404   3.984   3.183  0.1373  0.2215 -0.0131
 4119TIP3    H133772   3.334   4.039   3.149  0.1644  0.9821  1.1051
 4119TIP3    H233773   3.362   3.901   3.204 -0.0171 -0.0187 -1.1799
 4120TIP3   OH233774   2.463   3.103   6.730 -0.1551  0.7800 -0.3488
 4120TIP3    H133775   2.478   3.153   6.811  0.8717 -1.2058  0.7691
 4120TIP3    H233776   2.371   3.078   6.736 -0.0498  0.5115  0.3117
 4121TIP3   OH233777   1.264   2.082  15.723 -0.4429  0.0624 -0.4588
 4121TIP3    H133778   1.177   2.044  15.714 -0.1466 -0.4907 -1.1025
 4121TIP3    H233779   1.301   2.041  15.802  0.2804 -1.8596 -1.7308
 4122TIP3   OH233780   2.203   6.016   0.784  0.0375 -0.6090  0.4445
 4122TIP3    H133781   2.203   6.111   0.771  0.0873 -0.5587  0.8153
 4122TIP3    H233782   2.292   5.996   0.814  0.8064 -1.0914 -1.9418
 4123TIP3   OH233783   1.589   5.853  11.763  0.2744  0.0431 -0.1875
 4123TIP3    H133784   1.618   5.925  11.706 -0.9264  2.8458  2.4462
 4123TIP3    H233785   1.533   5.800  11.707 -0.6859  2.5065 -1.7525
 4124TIP3   OH233786   4.379   3.200  13.793 -0.2542  0.1065  0.4566
 4124TIP3    H133787   4.447   3.262  13.766  0.9695 -1.7252 -0.9352
 4124TIP3    H233788   4.412   3.114  13.764 -3.5049 -0.8058 -1.0255
 4125TIP3   OH233789   5.266   3.871   2.577  0.2988 -0.0333 -0.5247
 4125TIP3    H133790   5.178   3.868   2.541  0.4531 -0.6017 -0.8684
 4125TIP3    H233791   5.255   3.850   2.670  0.2023 -1.3847 -0.8232
 4126TIP3   OH233792   0.538   0.645  16.700  0.7089 -0.5100  0.3503
 4126TIP3    H133793   0.459   0.619  16.749 -0.7301  0.5695 -1.2873
 4126TIP3    H233794   0.506   0.672  16.614  2.7198  1.2093  0.0469
 4127TIP3   OH233795   0.861   0.510  14.220 -0.1920  0.0305  0.1351
 4127TIP3    H133796   0.857   0.516  14.315  1.9441  0.5033  0.2498
 4127TIP3    H233797   0.778   0.470  14.195 -0.9290  0.1756  2.1566
 4128TIP3   OH233798   4.653   6.077  15.138 -0.3890  0.1899  0.2863
 4128TIP3    H133799   4.725   6.022  15.170  1.4451  2.1900 -0.1521
 4128TIP3    H233800   4.697   6.152  15.097 -2.7202  0.5788 -1.7138
 4129TIP3   OH233801   5.889   4.196  13.918 -0.5019  0.0312 -0.4191
 4129TIP3    H133802   5.913   4.228  14.005 -1.3196 -0.6888  0.0838
 4129TIP3    H233803   5.971   4.200  13.868  0.5006 -1.5280  0.9941
 4130TIP3   OH233804   6.603   3.331  17.156 -0.5506 -0.4230  0.0892
 4130TIP3    H133805   6.679   3.273  17.157  0.8294  1.2795  0.3843
 4130TIP3    H233806   6.602   3.371  17.243  0.1211  1.8264 -0.8486
 4131TIP3   OH233807   4.017   4.922   6.765 -0.1524  0.2112  0.5787
 4131TIP3    H133808   4.055   4.973   6.693  1.4047  1.7163  2.3694
 4131TIP3    H233809   3.928   4.956   6.774  0.5197  1.9386  1.0544
 4132TIP3   OH233810   4.598   1.857  11.658 -0.0255 -0.2749  0.8744
 4132TIP3    H133811   4.527   1.854  11.723  0.3261  1.4244  1.3935
 4132TIP3    H233812   4.623   1.949  11.655  0.9765 -0.5694 -0.6133
 4133TIP3   OH233813   4.315   1.297   5.680 -0.3409  0.5272  0.5175
 4133TIP3    H133814   4.226   1.275   5.651 -0.7438  1.2935  1.1071
 4133TIP3    H233815   4.371   1.232   5.639 -1.1855  0.0046  0.1660
 4134TIP3   OH233816   5.268   4.974  13.151 -0.5374 -0.2174 -0.3008
 4134TIP3    H133817   5.317   5.057  13.150 -1.2324  0.2054  0.0166
 4134TIP3    H233818   5.301   4.928  13.229 -2.6641  1.3455  1.6766
 4135TIP3   OH233819   4.603   3.486   5.279  0.4175  0.5715 -0.1259
 4135TIP3    H133820   4.584   3.576   5.306 -2.2844  0.9164 -2.6386
 4135TIP3    H233821   4.596   3.487   5.184  1.2702 -2.1398 -0.3187
 4136TIP3   OH233822   6.291   2.192   2.616  0.0503 -0.2793 -0.8131
 4136TIP3    H133823   6.326   2.236   2.693 -0.2766 -1.4688  0.0336
 4136TIP3    H233824   6.346   2.223   2.544  2.8757 -2.0585  0.4334
 4137TIP3   OH233825   3.956   2.816   5.621 -0.0725 -0.1277 -0.4167
 4137TIP3    H133826   3.898   2.803   5.695  0.7470 -1.2563  0.0644
 4137TIP3    H233827   3.943   2.908   5.596 -1.0322  0.0169  0.5353
 4138TIP3   OH233828   6.540   3.761  15.533  0.0295  0.3722  0.3775
 4138TIP3    H133829   6.574   3.701  15.599  0.9910 -0.0304 -0.4445
 4138TIP3    H233830   6.594   3.839  15.541 -0.4960  0.7057  0.7121
 4139TIP3   OH233831   6.086   4.676   2.424  0.2460 -0.1418 -0.2218
 4139TIP3    H133832   6.121   4.651   2.338  0.6480  0.0491 -0.1197
 4139TIP3    H233833   6.160   4.665   2.484 -0.1601 -0.6940  0.1779
 4140TIP3   OH233834   5.768   3.548   3.857  0.0874  0.3045 -0.8243
 4140TIP3    H133835   5.749   3.532   3.949 -1.8811  2.8577 -0.6948
 4140TIP3    H233836   5.855   3.588   3.858  0.8975 -1.3355 -0.3418
 4141TIP3   OH233837   0.617   1.278   0.121  0.5076  0.1171 -0.2501
 4141TIP3    H133838   0.583   1.277   0.031 -1.1193 -0.9192  0.3295
 4141TIP3    H233839   0.611   1.370   0.147 -2.4204 -0.0202 -0.0459
 4142TIP3   OH233840   1.658   2.434  11.142  0.3200  0.2698  0.1706
 4142TIP3    H133841   1.725   2.494  11.176  2.0592 -0.1760 -2.1643
 4142TIP3    H233842   1.604   2.489  11.085  0.0144  0.2120  0.4059
 4143TIP3   OH233843   3.344   3.288   6.013  0.1107 -0.2672  0.2020
 4143TIP3    H133844   3.392   3.280   6.095 -0.1494  2.7823  0.7882
 4143TIP3    H233845   3.254   3.304   6.039 -0.3764 -1.3007 -0.7672
 4144TIP3   OH233846   3.010   3.145   5.280 -0.6553 -0.0794 -0.2592
 4144TIP3    H133847   2.947   3.076   5.300 -2.6213  1.7181  0.1404
 4144TIP3    H233848   2.970   3.192   5.207  1.7369 -0.6524 -2.0628
 4145TIP3   OH233849   5.957   2.096  15.181  0.1676  0.4623  0.3701
 4145TIP3    H133850   6.048   2.073  15.199  0.2068  0.1224 -0.2477
 4145TIP3    H233851   5.920   2.117  15.267  0.0685 -2.1156  1.0208
 4146TIP3   OH233852   2.906   4.889  13.749 -0.3758 -0.2580 -0.2455
 4146TIP3    H133853   2.986   4.926  13.787  0.1654 -2.2172  0.6493
 4146TIP3    H233854   2.883   4.817  13.807 -3.6119  1.0532  0.3069
 4147TIP3   OH233855   1.889   3.923  12.800  0.1619 -0.0591  0.4803
 4147TIP3    H133856   1.923   3.834  12.798  2.0780  0.5944  1.0653
 4147TIP3    H233857   1.794   3.914  12.792 -0.0514 -2.3859  3.6100
 4148TIP3   OH233858   6.677   5.307  16.190 -0.1495 -0.8406 -0.2614
 4148TIP3    H133859   6.752   5.279  16.137 -0.8290 -1.2505 -1.0331
 4148TIP3    H233860   6.601   5.277  16.141 -0.8263 -0.3691  0.4776
 4149TIP3   OH233861   5.529   6.762  17.017  0.3170  0.5910 -0.6100
 4149TIP3    H133862   5.584   6.759  17.095 -0.1219  1.3098 -0.2548
 4149TIP3    H233863   5.552   6.684  16.968  0.7987  0.2699  0.1105
 4150TIP3   OH233864   0.403   0.666  13.430 -0.0412 -0.2943 -0.1630
 4150TIP3    H133865   0.472   0.731  13.424  1.3779 -1.8607 -2.0414
 4150TIP3    H233866   0.449   0.583  13.443 -1.5823 -1.2866 -0.7306
 4151TIP3   OH233867   2.302   2.980   5.672  0.0470 -0.0430  0.1243
 4151TIP3    H133868   2.266   2.898   5.707 -2.5677  0.0081 -2.1760
 4151TIP3    H233869   2.282   2.977   5.579  0.7978  2.7967 -0.1997
 4152TIP3   OH233870   1.648   3.335  15.717 -0.1573 -0.0821  1.2663
 4152TIP3    H133871   1.595   3.399  15.669 -3.1736 -2.8998  0.4463
 4152TIP3    H233872   1.723   3.317  15.660 -0.0002  1.6535  0.8936
 4153TIP3   OH233873   0.491   6.520   3.140 -0.0074  0.0669  0.5555
 4153TIP3    H133874   0.561   6.504   3.076 -1.4138  2.3726 -1.7925
 4153TIP3    H233875   0.493   6.615   3.153 -1.5393 -0.0428  1.8305
 4154TIP3   OH233876   6.118   0.041  11.546 -0.4098 -0.4584  0.1009
 4154TIP3    H133877   6.161   0.027  11.631 -0.4209 -0.4356  0.1102
 4154TIP3    H233878   6.174   0.104  11.501 -0.3143 -0.5980  0.0251
 4155TIP3   OH233879   0.128   4.918   4.183 -0.3772  0.1887  0.0016
 4155TIP3    H133880   0.053   4.974   4.162 -0.1777  0.6987  0.6298
 4155TIP3    H233881   0.203   4.962   4.144 -0.2033  0.4197  0.5949
 4156TIP3   OH233882   3.084   1.981   6.361 -0.3107 -0.2217 -0.2130
 4156TIP3    H133883   3.157   2.042   6.359 -0.5576  0.0842 -2.4503
 4156TIP3    H233884   3.007   2.035   6.379 -0.2024 -0.2775  0.4157
 4157TIP3   OH233885   4.849   5.483  11.797  0.6304 -0.7455  0.4545
 4157TIP3    H133886   4.790   5.424  11.844  0.2764 -0.7345  0.0312
 4157TIP3    H233887   4.873   5.435  11.718  0.7992 -0.5541  0.3894
 4158TIP3   OH233888   2.101   5.404  12.687  0.7357  0.2411 -0.3908
 4158TIP3    H133889   2.137   5.375  12.603  0.2859 -1.7897  0.0669
 4158TIP3    H233890   2.006   5.390  12.679  0.5888  0.8650  0.1523
 4159TIP3   OH233891   1.650   1.751  11.094 -0.1406 -0.1905  0.4537
 4159TIP3    H133892   1.660   1.800  11.012  0.6117 -2.5136 -0.9226
 4159TIP3    H233893   1.712   1.793  11.154  1.3453 -0.1331 -1.0376
 4160TIP3   OH233894   2.059   5.972  14.628 -0.4211 -0.2861  0.6711
 4160TIP3    H133895   2.096   5.886  14.647 -1.5800 -1.2558 -1.1076
 4160TIP3    H233896   2.023   5.963  14.539  0.4296  2.3784 -0.0432
 4161TIP3   OH233897   1.731   1.593   2.098 -1.2692 -1.0520 -0.6033
 4161TIP3    H133898   1.742   1.688   2.101  0.6640 -1.1979 -1.8063
 4161TIP3    H233899   1.637   1.580   2.114 -1.4332  0.9817  0.4732
 4162TIP3   OH233900   2.494   0.503  16.233  0.1620 -0.2001 -0.1414
 4162TIP3    H133901   2.507   0.545  16.318  2.0518  2.5725 -1.6121
 4162TIP3    H233902   2.401   0.515  16.214  0.0594  0.6528  0.8234
 4163TIP3   OH233903   3.250   1.469  14.125 -0.0020  0.2311 -0.3517
 4163TIP3    H133904   3.299   1.541  14.164 -0.5177  0.6772 -0.5025
 4163TIP3    H233905   3.160   1.483  14.153 -0.1510 -0.2164 -0.5894
 4164TIP3   OH233906   6.182   6.060  15.763  0.3080  0.2535 -0.1087
 4164TIP3    H133907   6.232   6.136  15.732  2.0882 -0.2726  1.3093
 4164TIP3    H233908   6.091   6.091  15.765  0.8009  1.8652 -0.9585
 4165TIP3   OH233909   4.414   2.577  14.355  0.3254  0.1315  0.2581
 4165TIP3    H133910   4.387   2.652  14.407 -0.2704  0.1192 -0.0216
 4165TIP3    H233911   4.340   2.560  14.297  1.0089  0.2052 -0.6642
 4166TIP3   OH233912   2.883   3.508   5.708 -0.5081  0.6209  0.4676
 4166TIP3    H133913   2.853   3.462   5.629 -0.6128  0.9716  0.2980
 4166TIP3    H233914   2.866   3.601   5.689  3.1150  1.1711 -0.7273
 4167TIP3   OH233915   0.410   6.512  11.400  0.2122  0.0497  0.5564
 4167TIP3    H133916   0.402   6.589  11.342  0.5472 -2.0204 -2.5067
 4167TIP3    H233917   0.483   6.533  11.458  0.2686  2.0496 -0.1335
 4168TIP3   OH233918   6.496   4.515   4.691 -0.2292  0.0347  0.3072
 4168TIP3    H133919   6.452   4.437   4.655  0.7851 -0.6798  0.5564
 4168TIP3    H233920   6.536   4.484   4.772 -0.5770  1.0662  0.8948
 4169TIP3   OH233921   5.584   2.785  14.582 -0.1924  0.2111  0.0086
 4169TIP3    H133922   5.620   2.738  14.508  0.8163 -0.6636  1.0243
 4169TIP3    H233923   5.574   2.875  14.551  0.3184 -0.1104 -1.1315
 4170TIP3   OH233924   6.181   3.149  13.687 -0.6913  0.1230  0.1371
 4170TIP3    H133925   6.276   3.157  13.697 -0.6298 -0.7845  0.4517
 4170TIP3    H233926   6.170   3.082  13.619 -1.0755 -1.2939  1.5238
 4171TIP3   OH233927   3.636   4.601  13.936 -0.3768  0.4030  0.0046
 4171TIP3    H133928   3.632   4.589  13.842  0.4225  0.1955 -0.0133
 4171TIP3    H233929   3.688   4.681  13.948 -0.2676  0.2941  0.2699
 4172TIP3   OH233930   4.651   5.588   4.455  0.2332  0.1632 -0.9289
 4172TIP3    H133931   4.602   5.629   4.385 -1.4463  0.1130  0.1691
 4172TIP3    H233932   4.639   5.645   4.530  2.3202  0.4219 -0.7224
 4173TIP3   OH233933   0.332   2.120  12.958  0.3336  0.0983  0.4953
 4173TIP3    H133934   0.379   2.093  12.879 -0.1833 -0.4480  0.3727
 4173TIP3    H233935   0.243   2.136  12.929 -0.2482 -1.5787  1.2292
 4174TIP3   OH233936   1.947   1.792  14.287  0.3419  0.7049  0.5176
 4174TIP3    H133937   1.931   1.861  14.223 -1.0302  1.0827  1.2271
 4174TIP3    H233938   1.967   1.838  14.368 -0.6920  0.2983  1.0247
 4175TIP3   OH233939   3.003   2.179  14.129  0.2007 -0.3236  0.2643
 4175TIP3    H133940   2.927   2.229  14.098  0.3342  0.9355  1.8653
 4175TIP3    H233941   3.068   2.190  14.060 -0.6003 -0.2989 -0.5071
 4176TIP3   OH233942   3.130   4.658   3.149  0.6362  0.4764  0.3587
 4176TIP3    H133943   3.042   4.652   3.112  1.0038  0.6579 -0.5828
 4176TIP3    H233944   3.141   4.750   3.172  0.9401  0.6563 -0.4745
 4177TIP3   OH233945   3.377   6.005   6.024  0.3090  0.9888  0.2048
 4177TIP3    H133946   3.408   5.931   5.972 -1.0954  0.3331  0.2628
 4177TIP3    H233947   3.410   5.989   6.112 -0.2897  0.2182  0.3012
 4178TIP3   OH233948   4.287   1.441  15.778 -0.1130 -0.6834  0.6523
 4178TIP3    H133949   4.278   1.424  15.684  0.1930  0.7911  0.3335
 4178TIP3    H233950   4.198   1.427  15.813 -0.6802  0.6239 -0.1956
 4179TIP3   OH233951   1.522   0.032   3.063 -0.0926 -0.1505 -0.1874
 4179TIP3    H133952   1.516  -0.042   3.002  0.0365 -1.2060  1.0457
 4179TIP3    H233953   1.559  -0.006   3.143  0.0752  1.2809  0.4361
 4180TIP3   OH233954   2.702   4.039  16.278 -0.0820 -0.6013 -0.5030
 4180TIP3    H133955   2.668   3.972  16.220 -1.4875  0.2571 -0.7216
 4180TIP3    H233956   2.626   4.071  16.326  0.7803 -0.1434  0.6333
 4181TIP3   OH233957   0.282   5.093   4.488  0.0266  0.0310  0.1298
 4181TIP3    H133958   0.335   5.076   4.565  1.1516  0.1488 -0.5989
 4181TIP3    H233959   0.244   5.008   4.466 -0.2485 -0.0138  0.7671
 4182TIP3   OH233960   4.889   4.195  16.726 -0.1300 -0.1136  0.5777
 4182TIP3    H133961   4.978   4.230  16.723 -0.2972  0.2523 -1.1136
 4182TIP3    H233962   4.835   4.264  16.687 -0.8436 -1.1381 -0.2992
 4183TIP3   OH233963   3.033   0.210   0.116 -0.1251 -0.1815  0.5433
 4183TIP3    H133964   2.960   0.228   0.057 -0.4934 -1.6580  0.5204
 4183TIP3    H233965   3.003   0.242   0.201 -0.1963  0.5498  0.2546
 4184TIP3   OH233966   1.504   2.640   0.756 -0.0851  0.6255 -0.6151
 4184TIP3    H133967   1.466   2.621   0.842  1.0236  0.8985 -0.0501
 4184TIP3    H233968   1.433   2.621   0.695 -0.9400  0.5483  0.3589
 4185TIP3   OH233969   5.383   1.488   5.480 -0.7512  0.0826  0.7355
 4185TIP3    H133970   5.455   1.457   5.424 -0.6228  0.2992  0.7815
 4185TIP3    H233971   5.308   1.494   5.421 -0.0527  2.6700  0.0051
 4186TIP3   OH233972   3.715   5.305   3.066  0.4291 -0.3654  0.4185
 4186TIP3    H133973   3.741   5.259   2.986  1.8955  0.4286  0.4083
 4186TIP3    H233974   3.719   5.237   3.134 -0.4402 -0.9512 -0.0981
 4187TIP3   OH233975   0.502   2.607  14.231  0.4388  0.0285  0.3673
 4187TIP3    H133976   0.479   2.690  14.273  0.6188 -0.8761  2.3664
 4187TIP3    H233977   0.531   2.632  14.143 -0.2130  1.9937  0.6499
 4188TIP3   OH233978   2.991   0.917  16.894  0.5056  0.2537  0.2731
 4188TIP3    H133979   3.061   0.869  16.849  2.1757  1.5708  1.3240
 4188TIP3    H233980   3.005   0.896  16.987  0.2674  1.5001  0.6013
 4189TIP3   OH233981   0.541   0.543   3.983  0.2558 -0.2065 -0.4493
 4189TIP3    H133982   0.628   0.574   3.959 -0.8087  0.9696 -3.1543
 4189TIP3    H233983   0.521   0.475   3.918 -0.8600 -0.4802  0.1475
 4190TIP3   OH233984   3.472   0.241   2.675  0.4511  0.0769  0.2936
 4190TIP3    H133985   3.469   0.320   2.621 -0.4692 -0.2926 -0.2239
 4190TIP3    H233986   3.400   0.251   2.736  1.8467  0.7714  1.9224
 4191TIP3   OH233987   2.681   0.364  15.166 -0.1042 -0.5355  0.0985
 4191TIP3    H133988   2.686   0.447  15.119  1.1616 -0.2218  0.7268
 4191TIP3    H233989   2.625   0.381  15.241  3.3948  1.0752  2.6081
 4192TIP3   OH233990   1.064   0.366   1.672 -0.3894  0.0215  0.3533
 4192TIP3    H133991   1.082   0.405   1.758 -1.0087  0.2904  0.3644
 4192TIP3    H233992   1.151   0.353   1.633 -0.0107 -1.4028  1.5803
 4193TIP3   OH233993   5.015   5.500   5.903  0.2658 -0.1964 -0.3199
 4193TIP3    H133994   5.031   5.419   5.952  1.0256  1.3888  2.2442
 4193TIP3    H233995   4.921   5.515   5.911  0.4032  0.1244  0.8602
 4194TIP3   OH233996   0.297   4.981   4.930  0.5716  0.7193  0.3705
 4194TIP3    H133997   0.219   4.957   4.980 -1.0538  1.3235 -1.7067
 4194TIP3    H233998   0.287   4.936   4.846  2.0521  1.4764 -0.2549
 4195TIP3   OH233999   1.627   3.179   2.194  0.2279 -0.3609  0.0599
 4195TIP3    H134000   1.593   3.265   2.169  0.3154 -0.4782 -0.4790
 4195TIP3    H234001   1.717   3.196   2.223  0.7860 -0.4610 -1.5236
 4196TIP3   OH234002   4.512   1.827  10.831 -0.3062  0.1755  0.0443
 4196TIP3    H134003   4.458   1.906  10.829 -3.2302 -1.6614  0.4982
 4196TIP3    H234004   4.505   1.792  10.742 -1.1586 -0.8544  0.5040
 4197TIP3   OH234005   5.850   1.240   0.221  0.2573 -0.0362 -0.3204
 4197TIP3    H134006   5.817   1.248   0.132  0.2326  0.2697 -0.2866
 4197TIP3    H234007   5.908   1.315   0.232  2.4270 -1.5085 -0.9786
 4198TIP3   OH234008   5.203   2.490  16.075 -0.1248 -0.2079 -0.1796
 4198TIP3    H134009   5.283   2.538  16.051 -0.7096 -0.0926 -2.0647
 4198TIP3    H234010   5.151   2.554  16.124  1.1393 -0.4614  1.5829
 4199TIP3   OH234011   2.851   2.654   2.792 -0.1422 -0.0431  0.6397
 4199TIP3    H134012   2.813   2.580   2.744  0.5795  0.3227 -0.5423
 4199TIP3    H234013   2.849   2.727   2.729 -1.3035  1.0943  1.9482
 4200TIP3   OH234014   1.997   5.409   5.916 -0.0888  0.3371  0.4995
 4200TIP3    H134015   1.982   5.331   5.862  0.4514  0.9374 -0.5442
 4200TIP3    H234016   1.920   5.412   5.973 -0.8886 -0.1114 -0.4977
 4201TIP3   OH234017   5.669   5.948   4.879  0.4750  0.0064  0.6111
 4201TIP3    H134018   5.573   5.953   4.878  0.4422 -0.3969  1.5104
 4201TIP3    H234019   5.697   6.039   4.892  0.2374  0.2055 -0.1843
 4202TIP3   OH234020   6.073   2.797   3.484  0.1843  0.2367 -0.7289
 4202TIP3    H134021   6.163   2.782   3.513  0.2460  1.8433  0.0310
 4202TIP3    H234022   6.053   2.722   3.429  1.2809 -1.2080  0.7326
 4203TIP3   OH234023   5.402   4.207  12.300 -0.0731  0.2220 -0.0595
 4203TIP3    H134024   5.400   4.294  12.340  1.0431  0.6139 -0.8118
 4203TIP3    H234025   5.494   4.192  12.279 -0.2701 -1.0907 -0.0612
 4204TIP3   OH234026   1.985   0.964   5.051 -0.5044  0.6455 -0.3809
 4204TIP3    H134027   1.902   0.976   5.097  0.8818 -0.7061  2.8390
 4204TIP3    H234028   2.051   0.999   5.111  1.3983  0.0292 -1.9927
 4205TIP3   OH234029   3.142   3.494   5.675 -0.0606  0.4557  0.0472
 4205TIP3    H134030   3.191   3.424   5.633 -0.4421  0.3091 -0.1585
 4205TIP3    H234031   3.052   3.462   5.677 -0.5696  1.6228 -1.6099
 4206TIP3   OH234032   5.079   0.298   4.135  0.0376  0.0519 -0.2786
 4206TIP3    H134033   4.987   0.271   4.129  0.0895 -0.5238  1.1405
 4206TIP3    H234034   5.109   0.301   4.044 -0.8362 -1.7358 -0.6820
 4207TIP3   OH234035   1.620   4.857  15.938 -0.1144  0.0794  0.3150
 4207TIP3    H134036   1.617   4.902  15.854 -0.5900  1.5446  1.0890
 4207TIP3    H234037   1.709   4.820  15.942 -0.0232  0.1498 -0.7345
 4208TIP3   OH234038   3.622   5.734  14.107  0.3695 -0.2440 -0.1131
 4208TIP3    H134039   3.658   5.732  14.196 -2.1862  0.6310  1.0553
 4208TIP3    H234040   3.602   5.826  14.092  1.3979 -0.2851 -1.9241
 4209TIP3   OH234041   1.521   5.852  13.656  0.3044  0.1556 -0.5588
 4209TIP3    H134042   1.498   5.788  13.589 -2.4181  2.5532 -2.1638
 4209TIP3    H234043   1.615   5.841  13.669  0.2508 -2.9791 -1.9072
 4210TIP3   OH234044   6.501   0.103   3.151  0.2526 -0.3874  0.4371
 4210TIP3    H134045   6.561   0.176   3.136  1.0939 -1.2300 -0.4317
 4210TIP3    H234046   6.555   0.025   3.143 -0.2889 -1.1129  2.9230
 4211TIP3   OH234047   1.015   5.941   1.242  0.4196 -0.4796 -0.2213
 4211TIP3    H134048   0.984   5.859   1.204 -1.7062  0.3742 -0.4953
 4211TIP3    H234049   1.006   5.929   1.337 -0.0346 -0.5126 -0.2689
 4212TIP3   OH234050   4.570   4.407   5.415  0.0473 -0.4459  0.1513
 4212TIP3    H134051   4.594   4.489   5.371  0.1742 -0.5529  0.0183
 4212TIP3    H234052   4.632   4.398   5.486  0.5768 -0.8530 -0.3485
 4213TIP3   OH234053   3.973   1.006   5.223  0.4156  0.3904  0.6382
 4213TIP3    H134054   4.045   1.056   5.187 -0.9112  0.7806 -1.6500
 4213TIP3    H234055   3.927   1.067   5.281  1.0056  0.6183  0.8701
 4214TIP3   OH234056   1.256   3.815  15.584  0.0449  0.2949 -0.2073
 4214TIP3    H134057   1.204   3.887  15.620  1.9703  2.5253 -1.5617
 4214TIP3    H234058   1.199   3.774  15.519 -0.3180  2.3275 -1.2696
 4215TIP3   OH234059   2.744   1.030  16.853  0.0883  0.1741 -0.1170
 4215TIP3    H134060   2.829   0.990  16.872 -1.0886 -2.3205  0.3752
 4215TIP3    H234061   2.707   1.049  16.939 -0.1392  0.5478 -0.2955
 4216TIP3   OH234062   0.316   2.790   2.245  0.0407 -0.2660 -0.9234
 4216TIP3    H134063   0.398   2.741   2.242 -0.1907 -1.1114  2.6956
 4216TIP3    H234064   0.334   2.863   2.304 -2.1242 -1.4224  1.3735
 4217TIP3   OH234065   1.559   2.229  16.884  0.2189 -0.0515  0.1507
 4217TIP3    H134066   1.587   2.233  16.975 -0.5205  1.1186  0.3404
 4217TIP3    H234067   1.594   2.309  16.844 -0.0601 -0.2016 -0.4097
 4218TIP3   OH234068   1.281   2.913   2.963 -0.5306 -0.3432  0.0218
 4218TIP3    H134069   1.214   2.925   2.896 -0.1152 -0.5356 -0.4324
 4218TIP3    H234070   1.343   2.985   2.949 -0.1337 -0.7208 -0.1779
 4219TIP3   OH234071   2.871   3.129   5.603 -0.8200 -0.5546  0.7791
 4219TIP3    H134072   2.835   3.214   5.577  0.6861 -0.0654  0.1924
 4219TIP3    H234073   2.842   3.069   5.535 -0.8573 -0.2577  0.5298
 4220TIP3   OH234074   6.574   2.636   3.943 -0.0587 -0.4650 -0.3640
 4220TIP3    H134075   6.635   2.565   3.965  0.5852  0.4802  1.0515
 4220TIP3    H234076   6.603   2.666   3.857  3.6848  2.0616  1.4792
 4221TIP3   OH234077   6.721   4.862  13.621  0.4229 -0.0337 -0.1820
 4221TIP3    H134078   6.797   4.805  13.635  0.0506 -0.3857  0.4674
 4221TIP3    H234079   6.709   4.906  13.705  1.3141  1.7736 -0.9639
 4222TIP3   OH234080   6.591   3.237  15.371 -1.3128 -0.8928 -0.9273
 4222TIP3    H134081   6.544   3.310  15.411 -1.9392 -1.9201  0.3094
 4222TIP3    H234082   6.535   3.161  15.389  0.2020 -1.9554 -0.5467
 4223TIP3   OH234083   6.707   5.740  11.953  0.1334 -0.3499  0.2578
 4223TIP3    H134084   6.782   5.789  11.987 -1.3709  2.0594  0.3681
 4223TIP3    H234085   6.675   5.794  11.881 -0.9957 -1.7500 -0.3083
 4224TIP3   OH234086   5.701   1.371   2.386  0.0788 -0.7163 -0.8186
 4224TIP3    H134087   5.683   1.447   2.441 -1.6183 -0.6483 -1.4099
 4224TIP3    H234088   5.631   1.309   2.407  0.5406 -1.4756 -1.4670
 4225TIP3   OH234089   3.146   5.528   4.057  0.3519 -0.1703  0.4575
 4225TIP3    H134090   3.144   5.623   4.063  1.0720 -0.1730  0.9256
 4225TIP3    H234091   3.072   5.506   4.001  0.5590  0.7141 -0.1995
 4226TIP3   OH234092   0.922   1.281   0.860  0.1414  0.1269  0.2202
 4226TIP3    H134093   0.989   1.342   0.828  1.4023 -1.2973  0.0179
 4226TIP3    H234094   0.918   1.213   0.793  0.8629 -1.4817  1.7293
 4227TIP3   OH234095   4.770   1.837   1.665  0.1444 -0.5177  0.0317
 4227TIP3    H134096   4.849   1.835   1.611  1.0988 -0.6717  1.3814
 4227TIP3    H234097   4.754   1.745   1.687  0.5997 -0.3512  1.1377
 4228TIP3   OH234098   4.135   1.079  13.250 -0.0671  0.5331 -0.6073
 4228TIP3    H134099   4.182   1.122  13.321 -0.1347  1.6958 -1.2502
 4228TIP3    H234100   4.203   1.029  13.204 -0.0322 -0.2714  0.2870
 4229TIP3   OH234101   4.944   0.039  16.123 -0.1109  0.3282 -0.2125
 4229TIP3    H134102   4.986   0.003  16.201  0.9906 -0.0282 -0.9400
 4229TIP3    H234103   4.875  -0.024  16.102  0.7740 -0.5553 -0.5638
 4230TIP3   OH234104   6.179   1.785   2.121  0.7734  0.1949  0.4880
 4230TIP3    H134105   6.115   1.760   2.054 -0.3168 -0.0858  1.6108
 4230TIP3    H234106   6.158   1.876   2.141  1.4099  0.4301  0.1308
 4231TIP3   OH234107   0.218   2.969  12.374 -0.1877  0.5404  0.3132
 4231TIP3    H134108   0.233   2.991  12.282 -2.3746  0.1677 -0.1727
 4231TIP3    H234109   0.257   3.042  12.422  2.1364  0.1398 -0.7955
 4232TIP3   OH234110   0.436   5.651   3.262 -0.2884  0.1879  0.0847
 4232TIP3    H134111   0.410   5.658   3.170  1.4532  0.0900 -0.4392
 4232TIP3    H234112   0.465   5.739   3.286 -1.7630  0.4940  0.9122
 4233TIP3   OH234113   5.559   5.164  14.699  0.3966 -0.2017 -0.6296
 4233TIP3    H134114   5.568   5.159  14.604  0.4965  0.2358 -0.6463
 4233TIP3    H234115   5.631   5.111  14.733  1.2380  0.7963 -0.7940
 4234TIP3   OH234116   4.775   0.024   5.060 -0.2677  0.4381 -0.1438
 4234TIP3    H134117   4.831  -0.018   5.125 -0.3092 -2.1198 -1.6394
 4234TIP3    H234118   4.691   0.036   5.104  0.3265  0.8063  0.9260
 4235TIP3   OH234119   1.308   3.388   4.633 -0.7390  0.2572  0.5149
 4235TIP3    H134120   1.334   3.418   4.546  0.0036  1.4689  1.1330
 4235TIP3    H234121   1.360   3.309   4.647 -1.5411 -0.4807 -0.4888
 4236TIP3   OH234122   6.727   4.987  13.257 -0.2749 -0.0412 -0.6145
 4236TIP3    H134123   6.802   5.020  13.307  0.5693 -2.4557 -0.1646
 4236TIP3    H234124   6.761   4.911  13.210 -1.8154  0.3663 -2.5232
 4237TIP3   OH234125   0.189   5.701  14.018  0.1283 -0.7165  0.2427
 4237TIP3    H134126   0.158   5.766  13.955  0.6637 -0.6809  0.0065
 4237TIP3    H234127   0.137   5.716  14.097  2.5704  2.4195  1.4891
 4238TIP3   OH234128   4.137   2.297   5.431  0.0548 -0.1019  0.1463
 4238TIP3    H134129   4.086   2.235   5.482 -0.6974 -0.0880 -0.5656
 4238TIP3    H234130   4.223   2.255   5.421  0.0697 -0.3018  1.0187
 4239TIP3   OH234131   1.252   2.000  12.059  0.1221 -0.4341 -0.7933
 4239TIP3    H134132   1.304   2.037  12.130 -1.4783  0.2245  0.0862
 4239TIP3    H234133   1.316   1.965  11.997  1.5658 -0.2530  0.5619
 4240TIP3   OH234134   1.558   1.890   5.690 -0.1752  0.4032 -0.3809
 4240TIP3    H134135   1.643   1.923   5.720 -0.1731  0.5792 -0.5810
 4240TIP3    H234136   1.580   1.821   5.627 -0.1737  1.1226 -1.1874
 4241TIP3   OH234137   1.719   3.101   5.358  0.1987 -0.4900  0.4258
 4241TIP3    H134138   1.742   3.041   5.429 -1.0146 -2.9356 -1.1046
 4241TIP3    H234139   1.623   3.107   5.362  0.0051 -1.4661 -1.5239
 4242TIP3   OH234140   6.536   3.258   4.206  0.1438 -0.2083 -0.4623
 4242TIP3    H134141   6.583   3.301   4.277  0.9300 -0.6891 -0.6777
 4242TIP3    H234142   6.479   3.326   4.170  0.2591  0.2277  0.1702
 4243TIP3   OH234143   4.609   5.515   1.431 -0.1354 -0.1211 -0.1009
 4243TIP3    H134144   4.563   5.519   1.515 -3.8019 -0.3115 -1.8800
 4243TIP3    H234145   4.648   5.601   1.421  0.0816  0.0113  1.6380
 4244TIP3   OH234146   6.165   1.195   5.629 -0.2770 -0.0302  0.1031
 4244TIP3    H134147   6.110   1.187   5.551 -0.1401  1.4529 -0.1780
 4244TIP3    H234148   6.252   1.166   5.599  0.1512  2.0121 -0.7840
 4245TIP3   OH234149   5.232   4.335  16.991 -0.0552 -0.7538  0.1592
 4245TIP3    H134150   5.281   4.270  17.042  2.1978  0.0511 -0.8814
 4245TIP3    H234151   5.190   4.390  17.057  1.4896 -0.7134  1.1722
 4246TIP3   OH234152   0.440   6.057   4.927 -0.3322  0.8681 -0.3493
 4246TIP3    H134153   0.391   5.977   4.947  0.5425  0.2552 -0.6177
 4246TIP3    H234154   0.384   6.102   4.863 -1.0067  0.6560  0.0772
 4247TIP3   OH234155   0.947   6.709   0.145 -0.0291  0.1955 -0.0960
 4247TIP3    H134156   1.006   6.650   0.194  0.0668  0.6593  0.3582
 4247TIP3    H234157   1.004   6.781   0.118 -0.1756  0.1456 -0.5427
 4248TIP3   OH234158   0.299   0.423   5.740 -0.5136  0.6860  0.1045
 4248TIP3    H134159   0.265   0.428   5.651  0.3557  2.3042 -0.1839
 4248TIP3    H234160   0.241   0.478   5.792  0.7557  2.3515 -0.1317
 4249TIP3   OH234161   3.195   4.010  10.806  0.2540 -0.2208 -0.4996
 4249TIP3    H134162   3.170   3.955  10.880  0.2444  2.3704  1.5830
 4249TIP3    H234163   3.140   3.980  10.734  1.4722 -4.0114 -0.0654
 4250TIP3   OH234164   2.545   5.741  14.276  0.1329  0.8478  0.6118
 4250TIP3    H134165   2.628   5.694  14.283  0.1983  0.8272 -0.1998
 4250TIP3    H234166   2.487   5.695  14.337 -0.3352 -1.4719 -1.4142
 4251TIP3   OH234167   2.293   0.847  14.690 -0.7186 -0.2705 -0.1325
 4251TIP3    H134168   2.268   0.856  14.782 -1.8426 -0.1858 -0.4382
 4251TIP3    H234169   2.388   0.863  14.689 -0.8345  0.5367  0.8883
 4252TIP3   OH234170   4.823   5.212   2.047  0.3302 -0.1786  1.0800
 4252TIP3    H134171   4.919   5.214   2.054  0.3217  0.3370  1.1409
 4252TIP3    H234172   4.801   5.295   2.005 -0.0567 -0.5313  0.5753
 4253TIP3   OH234173   2.690   6.166   1.657  0.0051 -0.0971 -0.2118
 4253TIP3    H134174   2.644   6.236   1.703 -1.0585 -0.5506 -0.5722
 4253TIP3    H234175   2.724   6.208   1.578  2.8824  1.0015  1.4298
 4254TIP3   OH234176   1.097   6.013  15.951  0.4541  0.0887  0.9597
 4254TIP3    H134177   1.176   5.981  15.996 -0.2085 -1.7554  0.8887
 4254TIP3    H234178   1.101   5.971  15.865 -0.0760  0.8372  0.5635
 4255TIP3   OH234179   3.023   0.443   5.580  0.2524 -0.4696 -0.2213
 4255TIP3    H134180   3.104   0.489   5.556  0.3985 -0.3949  0.3761
 4255TIP3    H234181   2.968   0.447   5.502  0.3035  0.6323 -0.2182
 4256TIP3   OH234182   5.493   3.538  13.815  0.9218  0.3369  0.5001
 4256TIP3    H134183   5.584   3.535  13.786  0.6499  0.0615 -0.3342
 4256TIP3    H234184   5.451   3.462  13.774 -0.0267  1.2749 -0.3461
 4257TIP3   OH234185   0.123   5.102   0.032 -0.5191  0.5008  0.3379
 4257TIP3    H134186   0.035   5.141   0.036 -0.3812  0.8763 -0.2091
 4257TIP3    H234187   0.134   5.078  -0.059  0.1577  0.9366  0.2988
 4258TIP3   OH234188   0.844   6.390   4.819  0.1951 -0.1723 -0.6578
 4258TIP3    H134189   0.789   6.326   4.774  2.1023 -3.0558  0.7634
 4258TIP3    H234190   0.924   6.394   4.767  0.5609  0.1472 -0.0838
 4259TIP3   OH234191   0.832   4.290  14.022 -0.3988  0.1505  0.0381
 4259TIP3    H134192   0.749   4.288  14.070 -0.5185 -0.0111 -0.1742
 4259TIP3    H234193   0.888   4.347  14.074 -0.0886 -1.0644  1.0960
 4260TIP3   OH234194   4.282   0.296  14.819  0.3898 -0.1817  0.5846
 4260TIP3    H134195   4.209   0.259  14.869 -0.7302 -0.2114 -0.9951
 4260TIP3    H234196   4.240   0.349  14.751  1.9066  2.3128  1.4527
 4261TIP3   OH234197   6.772   2.554  12.331  0.1764  0.3456 -0.3797
 4261TIP3    H134198   6.766   2.502  12.412 -0.3628  1.4117  0.2863
 4261TIP3    H234199   6.818   2.634  12.358  0.3944  0.5153 -1.2392
 4262TIP3   OH234200   0.779   0.518  16.050 -0.1970  0.0890  0.7457
 4262TIP3    H134201   0.777   0.423  16.045  0.3812  0.0874  0.5077
 4262TIP3    H234202   0.872   0.540  16.056 -0.2633  0.6834 -0.1874
 4263TIP3   OH234203   1.408   2.915   2.641  0.0009  0.4849  0.3774
 4263TIP3    H134204   1.483   2.868   2.676  0.8141  1.0063 -0.6213
 4263TIP3    H234205   1.389   2.871   2.557  0.6167  1.7425 -0.4459
 4264TIP3   OH234206   4.043   6.272  13.909 -0.4329  0.2101  0.4038
 4264TIP3    H134207   3.979   6.340  13.931 -0.6763 -0.3453  1.4989
 4264TIP3    H234208   4.029   6.205  13.975  2.1486  0.6212  1.4780
 4265TIP3   OH234209   3.515   5.379   3.588 -0.4652 -0.0821 -0.3215
 4265TIP3    H134210   3.558   5.299   3.558 -1.8803 -1.0265  0.0762
 4265TIP3    H234211   3.585   5.444   3.589  0.8796 -1.4604 -0.0171
 4266TIP3   OH234212   1.004   2.153   3.435  0.0267 -0.7734 -0.5717
 4266TIP3    H134213   0.974   2.090   3.370 -2.8415 -0.5696  0.4003
 4266TIP3    H234214   1.088   2.120   3.464 -0.7570 -3.4169 -1.0640
 4267TIP3   OH234215   1.052   2.706  13.698  0.5475  0.3384  0.1748
 4267TIP3    H134216   1.052   2.759  13.778  1.1426  1.4515 -0.5394
 4267TIP3    H234217   0.969   2.728  13.655  2.1469  3.4121 -1.7841
 4268TIP3   OH234218   0.979   2.796   3.646 -0.2424 -0.1509  0.5567
 4268TIP3    H134219   0.995   2.710   3.684  1.0581  0.1123  0.6699
 4268TIP3    H234220   0.923   2.840   3.709  2.0603  0.3571  2.3882
 4269TIP3   OH234221   2.402   6.432   1.726  0.4388 -0.1412 -0.1034
 4269TIP3    H134222   2.473   6.493   1.706  2.4159 -1.9831  0.8855
 4269TIP3    H234223   2.360   6.470   1.803  2.3677 -0.5291  1.2017
 4270TIP3   OH234224   2.058   5.002  11.212 -0.2724  0.3339  0.2951
 4270TIP3    H134225   1.968   4.973  11.196 -1.3540  2.4700  1.9874
 4270TIP3    H234226   2.084   5.044  11.130 -1.4694  1.1431  0.3045
 4271TIP3   OH234227   4.242   4.950  14.026 -0.0859 -0.0250 -0.7347
 4271TIP3    H134228   4.328   4.952  14.069 -0.5792  1.0339  0.2556
 4271TIP3    H234229   4.258   4.981  13.938  0.2142  2.4224  0.1202
 4272TIP3   OH234230   1.670   4.802   2.223 -0.2314  0.0005 -0.0061
 4272TIP3    H134231   1.685   4.844   2.138 -2.6926  0.0055 -0.5097
 4272TIP3    H234232   1.588   4.754   2.212 -0.5270 -0.1472  2.3269
 4273TIP3   OH234233   3.346   2.578   0.002  0.9514 -0.3524 -0.2351
 4273TIP3    H134234   3.435   2.553  -0.023  1.8822  0.8940  1.6293
 4273TIP3    H234235   3.323   2.519   0.073 -0.7920 -2.3667 -2.3183
 4274TIP3   OH234236   5.904   5.433   4.555 -0.1785 -0.3032 -0.3352
 4274TIP3    H134237   5.907   5.466   4.645 -0.8539 -1.7356  0.2611
 4274TIP3    H234238   5.868   5.506   4.504  0.6976  0.7101  0.4530
 4275TIP3   OH234239   5.072   4.255   0.960 -0.5147 -0.3441  0.0190
 4275TIP3    H134240   5.055   4.243   0.866  2.9311 -1.3037 -0.6007
 4275TIP3    H234241   5.014   4.327   0.985 -0.3861  1.0883 -3.2237
 4276TIP3   OH234242   2.783   2.353   4.369 -0.3809 -0.3074 -0.2279
 4276TIP3    H134243   2.865   2.394   4.340  0.9502 -0.6929  2.6659
 4276TIP3    H234244   2.748   2.312   4.290  0.2771  2.8585 -2.3919
 4277TIP3   OH234245   1.693   2.117   3.838 -0.6387 -0.3711  0.2334
 4277TIP3    H134246   1.675   2.190   3.897 -0.2551 -0.2359  0.1911
 4277TIP3    H234247   1.761   2.066   3.883 -0.1217 -0.0964 -0.2156
 4278TIP3   OH234248   2.030   3.625   6.405  0.3953 -0.0843 -0.0847
 4278TIP3    H134249   2.019   3.666   6.319  1.4614 -1.5875 -1.0005
 4278TIP3    H234250   2.017   3.532   6.388  0.4490 -0.3870  1.4284
 4279TIP3   OH234251   2.016   5.289   0.228 -0.2023  0.3335 -0.1915
 4279TIP3    H134252   1.960   5.293   0.305  2.3015  0.3857  1.7528
 4279TIP3    H234253   2.044   5.198   0.223 -0.5535  0.2723 -1.2193
 4280TIP3   OH234254   0.363   4.759   0.065  0.9932 -0.2996 -0.1786
 4280TIP3    H134255   0.321   4.811   0.132 -2.0413  1.7512 -3.3481
 4280TIP3    H234256   0.452   4.745   0.097  0.2160  1.9289  3.4025
 4281TIP3   OH234257   4.177   6.015  15.334  0.2673  0.0806 -0.3830
 4281TIP3    H134258   4.096   5.966  15.315 -0.8130  1.4826  0.4460
 4281TIP3    H234259   4.179   6.083  15.267  0.8744 -0.0484 -0.5007
 4282TIP3   OH234260   4.110   4.698   5.218  0.2963 -0.3509 -0.7316
 4282TIP3    H134261   4.138   4.646   5.143  0.6753 -0.5317 -0.4663
 4282TIP3    H234262   4.135   4.646   5.294  2.8544  1.2265 -0.3770
 4283TIP3   OH234263   2.770   1.490  15.168 -0.0870  0.3535 -0.6800
 4283TIP3    H134264   2.778   1.396  15.155  1.2358 -0.1768  2.7770
 4283TIP3    H234265   2.722   1.499  15.251  0.2784  2.6946 -0.6440
 4284TIP3   OH234266   3.469   5.491  16.776 -1.0270 -0.4671 -0.2473
 4284TIP3    H134267   3.419   5.550  16.721 -0.4343 -0.5225 -0.8593
 4284TIP3    H234268   3.411   5.416  16.790 -1.4029 -0.1892 -0.2989
 4285TIP3   OH234269   5.541   3.445  12.700  0.0637  0.0837 -0.3995
 4285TIP3    H134270   5.456   3.469  12.736 -0.2710 -0.8155 -0.5785
 4285TIP3    H234271   5.566   3.521  12.647  0.1643  1.0556  0.9774
 4286TIP3   OH234272   6.739   2.292  16.109 -0.6040  0.3312 -0.5391
 4286TIP3    H134273   6.786   2.209  16.101  0.3310  0.3925  2.8469
 4286TIP3    H234274   6.807   2.358  16.096 -0.4719  0.4659  0.7255
 4287TIP3   OH234275   2.465   3.931   2.242  0.4552 -0.2901  0.2854
 4287TIP3    H134276   2.432   3.943   2.153  0.7305  3.5797  0.5341
 4287TIP3    H234277   2.408   3.986   2.296  1.0508 -1.6021  2.3430
 4288TIP3   OH234278   5.866   6.593   6.261  0.2191 -0.1566 -0.7705
 4288TIP3    H134279   5.858   6.559   6.172  0.4341  2.1873 -1.7786
 4288TIP3    H234280   5.778   6.624   6.282  0.3969  0.2667 -0.6279
 4289TIP3   OH234281   6.385   2.528  16.194 -0.4499  0.2087 -0.0837
 4289TIP3    H134282   6.438   2.469  16.140  1.4283 -0.5555  2.4079
 4289TIP3    H234283   6.447   2.567  16.256 -2.3314  1.6394  1.0315
 4290TIP3   OH234284   3.018   5.496   1.873  0.1576  0.1400 -0.0274
 4290TIP3    H134285   3.028   5.401   1.876 -1.9795 -0.1258 -0.2464
 4290TIP3    H234286   2.987   5.520   1.960  0.3213  0.6043 -0.0937
 4291TIP3   OH234287   1.438   0.763  12.533 -0.4650 -0.2681 -0.3236
 4291TIP3    H134288   1.474   0.832  12.478 -1.2073 -0.2743 -0.8441
 4291TIP3    H234289   1.344   0.783  12.538 -1.0300 -2.1853 -1.9702
 4292TIP3   OH234290   0.494   2.400  16.359 -0.2951 -0.2346  0.6766
 4292TIP3    H134291   0.516   2.493  16.369  0.3383 -0.1929 -0.9388
 4292TIP3    H234292   0.537   2.357  16.433  1.7055  0.4190 -0.0414
 4293TIP3   OH234293   3.604   6.761  12.793  0.0235 -0.2674  0.2164
 4293TIP3    H134294   3.645   6.823  12.852  0.2312 -2.8846  3.0984
 4293TIP3    H234295   3.515   6.793  12.780  0.4302  1.1162  0.7714
 4294TIP3   OH234296   6.640   1.516   5.948 -0.2601  0.1513  0.7964
 4294TIP3    H134297   6.580   1.473   6.010 -0.0877 -0.3290  0.6382
 4294TIP3    H234298   6.673   1.592   5.995 -0.0246 -0.2880  1.3514
 4295TIP3   OH234299   1.908   4.107  15.171 -0.5270  0.5228  0.0057
 4295TIP3    H134300   1.911   4.175  15.239 -1.7719  0.7322 -0.1211
 4295TIP3    H234301   1.822   4.118  15.130 -0.0263  0.0236 -1.2284
 4296TIP3   OH234302   4.125   3.996   2.407  0.2474  0.2830 -0.1086
 4296TIP3    H134303   4.121   4.078   2.455  0.3268  0.7111 -0.8163
 4296TIP3    H234304   4.104   4.020   2.316 -0.1288 -0.5380 -0.2467
 4297TIP3   OH234305   6.020   1.509   2.482  0.2784 -0.3106 -0.2751
 4297TIP3    H134306   5.997   1.428   2.528  1.2624  0.0390  0.8858
 4297TIP3    H234307   5.995   1.492   2.391 -3.7780 -0.2217  0.6488
 4298TIP3   OH234308   4.934   4.198  15.031 -0.3570 -0.0662  0.1612
 4298TIP3    H134309   4.914   4.201  14.938 -0.0407  2.0633  0.1119
 4298TIP3    H234310   4.908   4.110  15.059 -2.6238  0.0126 -1.4474
 4299TIP3   OH234311   4.194   2.973  13.862  0.3797  0.0263  0.5342
 4299TIP3    H134312   4.109   2.936  13.887  0.1526 -0.6928 -1.1494
 4299TIP3    H234313   4.184   3.068  13.876 -0.0134 -0.2144  2.1591
 4300TIP3   OH234314   0.365   2.526   4.003  0.5165 -0.1053  0.0135
 4300TIP3    H134315   0.362   2.556   4.094 -0.4121 -2.3873  0.8159
 4300TIP3    H234316   0.456   2.500   3.989  1.6768  3.9191 -1.1169
 4301TIP3   OH234317   6.059   2.505  12.304 -0.3533  0.2125 -0.0880
 4301TIP3    H134318   6.075   2.594  12.336  0.6155 -0.2889  0.8833
 4301TIP3    H234319   6.076   2.449  12.380 -0.6562 -0.8214 -0.7686
 4302TIP3   OH234320   1.893   0.804  15.621 -0.0646  0.4289 -0.3162
 4302TIP3    H134321   1.962   0.803  15.554 -0.0052 -0.0448 -0.2512
 4302TIP3    H234322   1.815   0.775  15.575  0.1988 -0.9178  0.0472
 4303TIP3   OH234323   3.273   1.204  14.057  0.2452 -1.0128  0.0950
 4303TIP3    H134324   3.287   1.217  13.964  0.7513  0.2306  0.3280
 4303TIP3    H234325   3.271   1.292  14.094 -0.7300 -1.4471  1.1531
 4304TIP3   OH234326   5.254   3.380  16.626  0.0308 -0.4629  0.1336
 4304TIP3    H134327   5.230   3.379  16.533 -0.0685 -0.2705  0.1556
 4304TIP3    H234328   5.304   3.300  16.639  0.0639 -0.4787 -0.0920
 4305TIP3   OH234329   3.838   1.007  15.143 -0.1955  0.0157 -0.0648
 4305TIP3    H134330   3.758   0.987  15.192  1.5262  0.3785  3.1289
 4305TIP3    H234331   3.828   1.098  15.118 -1.4790 -0.4116 -1.2589
 4306TIP3   OH234332   5.024   3.632  11.933 -0.1074 -0.3755  1.1048
 4306TIP3    H134333   5.098   3.662  11.880 -0.6330  0.2045  0.6891
 4306TIP3    H234334   4.967   3.587  11.871 -0.2551 -0.5521  1.3665
 4307TIP3   OH234335   6.392   0.656   4.352  0.3916 -0.3408  0.1283
 4307TIP3    H134336   6.312   0.606   4.334 -0.0114  0.5436 -0.6076
 4307TIP3    H234337   6.431   0.671   4.266  0.0888  1.2570  0.2326
 4308TIP3   OH234338   3.513   5.594   2.225  0.4208  0.4748 -0.3293
 4308TIP3    H134339   3.472   5.571   2.142 -0.9467  2.4579 -0.2750
 4308TIP3    H234340   3.473   5.536   2.290  0.0322  0.2515 -0.7665
 4309TIP3   OH234341   6.289   0.119  10.873 -0.0372 -0.3112 -0.4689
 4309TIP3    H134342   6.328   0.061  10.940  0.0787 -0.8684 -1.0069
 4309TIP3    H234343   6.263   0.197  10.921  2.3736  0.3893 -0.1687
 4310TIP3   OH234344   4.649   2.016  14.940  0.3876 -0.2256  0.2619
 4310TIP3    H134345   4.706   1.970  15.002  0.8631  1.6342  1.3019
 4310TIP3    H234346   4.608   2.085  14.993  2.0616  2.5214 -1.7632
 4311TIP3   OH234347   4.010   6.304   1.903  0.0806  0.7396  0.1915
 4311TIP3    H134348   4.002   6.250   1.982 -0.3068 -0.7786 -0.8265
 4311TIP3    H234349   4.093   6.275   1.864 -0.3941  0.4657 -0.6433
 4312TIP3   OH234350   3.513   3.516  11.940 -0.0652  0.1712 -0.2178
 4312TIP3    H134351   3.519   3.582  12.008 -1.4715  0.4487 -0.3350
 4312TIP3    H234352   3.600   3.476  11.937  0.0334  0.1741  1.7007
 4313TIP3   OH234353   2.881   3.401   2.255 -0.2377  0.2982 -0.0016
 4313TIP3    H134354   2.909   3.318   2.294 -2.1383 -0.0021  0.8262
 4313TIP3    H234355   2.951   3.463   2.277  1.2717 -1.0832 -0.7344
 4314TIP3   OH234356   5.427   3.186   3.891 -0.2571  0.1087 -0.1900
 4314TIP3    H134357   5.435   3.260   3.951 -0.0228  1.3401 -1.6768
 4314TIP3    H234358   5.342   3.147   3.911 -0.4208  0.8270  0.5606
 4315TIP3   OH234359   5.428   6.039   5.258  0.4074 -0.0831  0.6096
 4315TIP3    H134360   5.342   6.055   5.296  0.9271 -1.2127  2.3690
 4315TIP3    H234361   5.434   6.102   5.186 -2.6254 -1.2408 -0.8161
 4316TIP3   OH234362   0.315   3.172  12.594 -0.1601 -0.1512 -0.3411
 4316TIP3    H134363   0.240   3.216  12.634  1.6986  0.8951  2.2181
 4316TIP3    H234364   0.308   3.081  12.623 -1.7291 -0.7012 -2.2159
 4317TIP3   OH234365   1.173   0.947   3.968  0.4476 -0.5368  0.0288
 4317TIP3    H134366   1.143   1.019   3.912  0.6586 -1.2312 -0.9965
 4317TIP3    H234367   1.125   0.870   3.936  0.2612 -0.8680  1.0783
 4318TIP3   OH234368   0.037   1.144  14.710 -0.3140  0.6187 -0.4149
 4318TIP3    H134369   0.041   1.220  14.768 -2.0981  0.7531 -0.4112
 4318TIP3    H234370  -0.050   1.108  14.723  0.4333 -1.3803 -0.5281
 4319TIP3   OH234371   4.550   2.010   4.237 -0.1854 -0.2470 -0.3754
 4319TIP3    H134372   4.579   2.047   4.320  0.0697 -0.9933 -0.1183
 4319TIP3    H234373   4.472   2.060   4.214  0.3156  0.6365 -0.2033
 4320TIP3   OH234374   0.547   0.552  17.166  0.2814 -0.0699  0.3307
 4320TIP3    H134375   0.590   0.468  17.176  0.1784 -0.0373  1.0724
 4320TIP3    H234376   0.609   0.605  17.116  0.5709 -0.4147  0.3249
 4321TIP3   OH234377   2.034   3.118   0.976 -0.0018  0.1621 -0.2316
 4321TIP3    H134378   2.033   3.041   0.919 -1.0998  0.3404 -0.4662
 4321TIP3    H234379   1.971   3.097   1.045  0.9438  0.1584  0.6563
 4322TIP3   OH234380   6.143   3.888   5.641  0.4939 -0.4520 -1.0367
 4322TIP3    H134381   6.224   3.837   5.632  1.1608 -0.0553  1.8452
 4322TIP3    H234382   6.161   3.969   5.594  1.3034 -0.8405 -1.4288
 4323TIP3   OH234383   0.422   4.411  11.711  0.3968 -0.1638  0.0565
 4323TIP3    H134384   0.441   4.473  11.781 -2.1803  0.6640  0.1219
 4323TIP3    H234385   0.380   4.337  11.756 -1.6392  0.5463 -0.5898
 4324TIP3   OH234386   0.066   2.725   2.469 -0.5952 -0.5578  0.6402
 4324TIP3    H134387   0.058   2.804   2.524 -1.8280  0.6120 -1.1104
 4324TIP3    H234388   0.153   2.691   2.489  0.5536  2.0544  0.4725
 4325TIP3   OH234389   4.943   1.835  14.944  0.1529  0.1432 -0.7789
 4325TIP3    H134390   4.951   1.838  15.039 -1.8857  1.7249 -0.6047
 4325TIP3    H234391   4.887   1.759  14.926  0.3131  0.0105 -0.7276
 4326TIP3   OH234392   1.062   5.645  15.653  0.0750  0.6586 -0.3323
 4326TIP3    H134393   1.049   5.740  15.663 -0.4518  0.4090  1.6393
 4326TIP3    H234394   0.973   5.611  15.641  0.0939  0.2375  0.7026
 4327TIP3   OH234395   1.971   0.861  14.549 -0.1229  0.3709 -0.0073
 4327TIP3    H134396   1.947   0.929  14.612 -1.3025 -1.2348  1.3902
 4327TIP3    H234397   1.896   0.855  14.489  0.1905  0.6389 -0.4271
 4328TIP3   OH234398   5.810   6.277   0.216  0.1903  0.5037  0.1610
 4328TIP3    H134399   5.754   6.220   0.269  0.9956  0.0770  0.5740
 4328TIP3    H234400   5.751   6.317   0.152 -0.3532 -1.0204 -0.3237
 4329TIP3   OH234401   1.263   3.020  16.964 -0.1526  0.4176  0.3259
 4329TIP3    H134402   1.327   2.976  16.908  0.2180  2.3438 -0.8803
 4329TIP3    H234403   1.282   2.989  17.052  1.3631 -0.2864 -0.2198
 4330TIP3   OH234404   4.279   4.189   2.549 -0.4457 -0.3176 -0.6752
 4330TIP3    H134405   4.312   4.272   2.585  1.0543 -0.7343 -1.0190
 4330TIP3    H234406   4.267   4.133   2.625 -2.5375  0.5361 -0.3207
 4331TIP3   OH234407   6.209   3.884   1.037  0.8335  0.3813 -0.1709
 4331TIP3    H134408   6.292   3.882   0.988  0.2013  0.8464 -1.3035
 4331TIP3    H234409   6.142   3.890   0.969 -0.1583 -0.3281  0.7173
 4332TIP3   OH234410   2.706   6.044  15.487 -0.2508 -0.3914 -0.8526
 4332TIP3    H134411   2.755   6.031  15.406  1.3929 -2.7566  0.3893
 4332TIP3    H234412   2.762   6.101  15.540 -1.6732  1.7872 -1.5875
 4333TIP3   OH234413   5.141   6.692   0.720 -0.0003  0.1816 -0.5423
 4333TIP3    H134414   5.123   6.786   0.724  1.1409  0.3680  1.0693
 4333TIP3    H234415   5.226   6.682   0.763  0.0205 -1.5697 -0.9163
 4334TIP3   OH234416   1.024   1.018  13.646 -0.6998 -0.2969  0.3161
 4334TIP3    H134417   0.986   1.055  13.726 -0.6314 -0.1570  0.2847
 4334TIP3    H234418   1.095   0.961  13.677 -0.2215  0.2915  0.3275
 4335TIP3   OH234419   1.433   4.390   4.512  0.0647 -0.1983  0.5042
 4335TIP3    H134420   1.344   4.368   4.485  0.9295 -4.4393  0.3919
 4335TIP3    H234421   1.481   4.403   4.430 -0.1820  1.1056  0.5431
 4336TIP3   OH234422   5.243   1.313   2.086 -0.0141  0.3083  0.0272
 4336TIP3    H134423   5.240   1.404   2.057  2.4182  0.7582  0.9621
 4336TIP3    H234424   5.190   1.266   2.022 -1.1861  2.3332 -0.5729
 4337TIP3   OH234425   1.961   3.947   3.419  0.0288  0.7473 -0.0907
 4337TIP3    H134426   1.976   3.879   3.353 -1.7299  0.1841  0.0567
 4337TIP3    H234427   1.867   3.964   3.415 -0.4521 -0.4430  3.3157
 4338TIP3   OH234428   6.756   3.483   3.833  0.8968 -0.3923 -0.2609
 4338TIP3    H134429   6.723   3.445   3.752  1.9176  0.9090 -1.3543
 4338TIP3    H234430   6.679   3.493   3.889 -0.0804 -0.0454 -1.6156
 4339TIP3   OH234431   1.837   5.817   1.679  0.3535 -0.3437  0.4802
 4339TIP3    H134432   1.930   5.795   1.671  0.6056  1.2365 -2.2768
 4339TIP3    H234433   1.834   5.884   1.747  1.1544 -0.7994  0.9753
 4340TIP3   OH234434   1.002   0.764   0.034 -0.7221  0.0905 -0.0272
 4340TIP3    H134435   0.959   0.796  -0.045 -1.4386 -0.0631  0.2935
 4340TIP3    H234436   0.957   0.809   0.105 -0.1068  0.1985  0.3034
 4341TIP3   OH234437   5.774   0.788   5.616 -0.2022 -0.4500 -0.2735
 4341TIP3    H134438   5.788   0.696   5.635  0.2443 -0.1948  0.7127
 4341TIP3    H234439   5.795   0.833   5.698 -0.0418  0.5552 -0.8456
 4342TIP3   OH234440   1.683   5.866   5.586 -0.2828  0.4461  0.0694
 4342TIP3    H134441   1.770   5.893   5.613 -0.5295  0.0403  1.3089
 4342TIP3    H234442   1.635   5.949   5.575  0.1877  0.6592 -0.4123
 4343TIP3   OH234443   3.696   1.574  12.993  0.2281 -0.4694  0.3373
 4343TIP3    H134444   3.708   1.561  13.087 -1.8397  0.7915  0.8396
 4343TIP3    H234445   3.694   1.669  12.981  0.8214 -0.5981 -1.0588
 4344TIP3   OH234446   1.443   5.453  13.007  0.4162  0.4721 -0.0690
 4344TIP3    H134447   1.367   5.511  13.011  0.5103  0.5964 -0.0827
 4344TIP3    H234448   1.409   5.367  13.032 -0.4645 -0.1854 -3.0635
 4345TIP3   OH234449   0.605   0.898   1.989  0.2431 -0.3015 -0.3313
 4345TIP3    H134450   0.562   0.911   1.905  0.6522  1.0141 -0.3681
 4345TIP3    H234451   0.565   0.964   2.046  0.9434 -0.2606  0.1204
 4346TIP3   OH234452   2.271   0.001   6.265  0.6153  0.6541 -0.0695
 4346TIP3    H134453   2.209  -0.042   6.326 -1.1651 -0.0191 -2.2107
 4346TIP3    H234454   2.281   0.089   6.300 -1.6036  0.7898  0.4213
 4347TIP3   OH234455   4.905   0.630  16.688 -0.0607 -0.0386  0.1699
 4347TIP3    H134456   4.905   0.553  16.631 -0.0259 -0.8606  1.2383
 4347TIP3    H234457   4.870   0.598  16.772  0.2154  1.0451  0.7228
 4348TIP3   OH234458   1.408   2.778  11.935 -0.1716 -0.0532  0.2426
 4348TIP3    H134459   1.376   2.710  11.994 -0.8953  0.7846  0.8396
 4348TIP3    H234460   1.378   2.751  11.848  1.3380 -1.5633  0.1478
 4349TIP3   OH234461   5.929   6.126  15.707  0.3299 -0.0901  0.5426
 4349TIP3    H134462   5.893   6.193  15.649  1.3381  2.0860  2.2826
 4349TIP3    H234463   5.866   6.054  15.702 -1.3645  1.3715 -0.6364
 4350TIP3   OH234464   4.832   2.115   2.603  0.0738  0.2337  0.3654
 4350TIP3    H134465   4.841   2.182   2.535 -1.5248 -0.0796 -0.2135
 4350TIP3    H234466   4.742   2.125   2.635  0.8765  0.6030  2.7268
 4351TIP3   OH234467   1.816   5.451  14.196 -0.2989  0.1532 -0.2924
 4351TIP3    H134468   1.793   5.455  14.103 -0.8299 -0.2114 -0.1804
 4351TIP3    H234469   1.740   5.410  14.238 -0.2644  0.7461  0.3694
 4352TIP3   OH234470   3.780   4.569  17.088  0.0807 -0.2393 -0.5023
 4352TIP3    H134471   3.805   4.639  17.028  1.4670 -1.2375 -1.1513
 4352TIP3    H234472   3.831   4.586  17.167 -0.1833 -0.0756 -0.3667
 4353TIP3   OH234473   2.247   1.876  16.493 -0.1286 -0.5063  1.1975
 4353TIP3    H134474   2.309   1.946  16.514  0.1702 -0.5091  0.3405
 4353TIP3    H234475   2.169   1.897  16.544 -1.1039  2.0271 -1.1082
 4354TIP3   OH234476   0.239   1.176  15.831  0.3705  0.7278  0.5639
 4354TIP3    H134477   0.213   1.128  15.752 -2.0996 -0.2643  1.8443
 4354TIP3    H234478   0.272   1.108  15.890  0.5782  1.1929  0.9932
 4355TIP3   OH234479   1.594   4.381   5.694 -0.3587 -0.0451  0.5518
 4355TIP3    H134480   1.528   4.417   5.635 -2.1631 -3.0747  0.5489
 4355TIP3    H234481   1.596   4.288   5.675  2.3541 -0.4423  2.1604
 4356TIP3   OH234482   2.992   0.989  13.618  0.0565  0.1615 -0.6212
 4356TIP3    H134483   3.009   0.898  13.642  1.6809  0.6386  0.1941
 4356TIP3    H234484   3.046   1.004  13.541 -0.1982  0.4342 -0.7469
 4357TIP3   OH234485   5.028   3.732  14.705  0.1119  0.1556 -0.2862
 4357TIP3    H134486   4.941   3.771  14.703 -0.3124 -0.8214 -1.5348
 4357TIP3    H234487   5.052   3.721  14.614  1.0669 -0.6524  0.0464
 4358TIP3   OH234488   3.991   2.561   5.056 -0.0299  0.1750  0.1946
 4358TIP3    H134489   4.045   2.500   5.105 -1.9854 -2.1530 -0.3984
 4358TIP3    H234490   3.901   2.529   5.066 -1.1252  2.7239 -0.5033
 4359TIP3   OH234491   0.548   4.166  13.754  0.1389  0.3150  0.2972
 4359TIP3    H134492   0.525   4.217  13.832 -0.2595  1.3401 -0.4734
 4359TIP3    H234493   0.618   4.107  13.784  1.9705  2.5779  0.8226
 4360TIP3   OH234494   2.659   6.068  16.139 -0.3162 -0.5302  0.1223
 4360TIP3    H134495   2.722   6.140  16.127  0.8478 -1.4354  0.6636
 4360TIP3    H234496   2.626   6.080  16.228  0.3367 -1.0136  0.4336
 4361TIP3   OH234497   4.866   2.097  16.819  0.4551 -0.5306  0.6120
 4361TIP3    H134498   4.823   2.118  16.901  0.6889  0.2189  0.5506
 4361TIP3    H234499   4.803   2.041  16.772 -0.0516 -0.2272  0.9200
 4362TIP3   OH234500   2.831   0.294  17.132  0.0709  0.4585 -0.4934
 4362TIP3    H134501   2.771   0.221  17.144  1.9241 -1.1258 -0.4191
 4362TIP3    H234502   2.777   0.364  17.096 -2.3248 -0.0291  1.8436
 4363TIP3   OH234503   1.058   6.187   3.430 -0.0015 -0.4772 -0.8023
 4363TIP3    H134504   1.131   6.213   3.373 -1.1226  1.3169 -1.5342
 4363TIP3    H234505   0.980   6.213   3.380 -1.1898 -2.8041 -0.2779
 4364TIP3   OH234506   1.444   4.812  12.623 -0.4761 -0.1737 -0.3977
 4364TIP3    H134507   1.361   4.859  12.616 -0.5236 -0.0221  0.9980
 4364TIP3    H234508   1.420   4.719  12.623 -0.6505 -0.1295  0.0404
 4365TIP3   OH234509   4.449   4.331   0.042  0.2876  0.1245 -0.1526
 4365TIP3    H134510   4.407   4.300  -0.039  0.9749  1.0828 -0.9047
 4365TIP3    H234511   4.376   4.353   0.099 -0.2403  0.5724 -0.9724
 4366TIP3   OH234512   3.246   2.309  15.091 -0.0232 -0.5246  0.2660
 4366TIP3    H134513   3.339   2.294  15.111 -0.0282 -0.0747  0.6382
 4366TIP3    H234514   3.226   2.245  15.022  1.1962  0.9733 -1.5624
 4367TIP3   OH234515   1.315   5.488  17.077 -0.2723 -0.0126 -0.1246
 4367TIP3    H134516   1.261   5.415  17.108  0.9672 -0.9559 -0.1102
 4367TIP3    H234517   1.337   5.537  17.157  0.4917 -0.7594  0.1434
 4368TIP3   OH234518   4.882   4.187   2.338  0.7696  0.3319  0.4797
 4368TIP3    H134519   4.809   4.184   2.277  1.5547 -0.4173 -0.4564
 4368TIP3    H234520   4.841   4.190   2.425 -0.3819 -1.3979  0.0510
 4369TIP3   OH234521   0.295   0.389  12.830 -0.5073 -0.7587 -0.3321
 4369TIP3    H134522   0.318   0.379  12.922  0.9755  0.1064 -0.5655
 4369TIP3    H234523   0.235   0.317  12.812  0.2872 -1.7937  0.9636
 4370TIP3   OH234524   2.238   5.172   0.005  0.8069 -0.4841  0.2698
 4370TIP3    H134525   2.289   5.207  -0.068 -0.4736 -0.0096 -0.4408
 4370TIP3    H234526   2.246   5.237   0.074  1.3304 -0.5176  0.2418
 4371TIP3   OH234527   2.851   1.411  12.928 -0.0122 -0.3518 -0.1961
 4371TIP3    H134528   2.807   1.452  13.003 -2.0126 -2.0466 -0.3424
 4371TIP3    H234529   2.921   1.472  12.905  0.7412  0.1968  3.0781
 4372TIP3   OH234530   5.288   5.924   0.920 -0.1092  0.2791 -0.3681
 4372TIP3    H134531   5.232   5.860   0.964  0.1146  1.2201  1.3697
 4372TIP3    H234532   5.228   5.977   0.868 -0.3983 -0.7849 -1.1496
 4373TIP3   OH234533   3.507   4.487  14.144  0.1269 -0.4154  0.3270
 4373TIP3    H134534   3.492   4.393  14.143  0.9449 -0.5732  0.9189
 4373TIP3    H234535   3.551   4.506  14.061 -0.9976 -0.3609 -0.2753
 4374TIP3   OH234536   0.823   6.727  11.342  0.4895 -0.2462 -0.6368
 4374TIP3    H134537   0.775   6.810  11.330 -0.7205 -0.8689 -0.2593
 4374TIP3    H234538   0.891   6.748  11.406 -0.1662  0.3344 -0.1045
 4375TIP3   OH234539   6.041   0.531  15.784 -0.0616 -0.0207  0.5571
 4375TIP3    H134540   6.040   0.435  15.784  0.0823 -0.0397 -0.6935
 4375TIP3    H234541   6.102   0.554  15.854  1.9776 -0.9142 -0.8183
 4376TIP3   OH234542   1.989   6.799   2.788 -0.0862  0.3099  0.2331
 4376TIP3    H134543   2.046   6.872   2.812 -0.1146  0.3196  0.2716
 4376TIP3    H234544   1.912   6.810   2.844  0.4052 -0.3984  1.0564
 4377TIP3   OH234545   6.160   1.236  16.223 -0.2221  0.3327 -0.0286
 4377TIP3    H134546   6.185   1.272  16.137  1.6488 -1.0696 -0.1284
 4377TIP3    H234547   6.226   1.270  16.283 -0.6372  0.0884  0.5705
 4378TIP3   OH234548   4.405   0.299  13.258 -0.1229 -0.3417  0.0941
 4378TIP3    H134549   4.325   0.281  13.307 -0.6867  1.7195 -0.0148
 4378TIP3    H234550   4.377   0.301  13.166  0.0051  0.5080  0.0659
 4379TIP3   OH234551   4.031   2.286   6.282  0.0197  0.1885  0.0489
 4379TIP3    H134552   4.124   2.289   6.302 -0.0634 -0.2869  0.5349
 4379TIP3    H234553   3.988   2.289   6.368 -0.4109  0.3047 -0.1652
 4380TIP3   OH234554   1.282   0.851  10.467  0.2176 -0.0891 -0.1909
 4380TIP3    H134555   1.297   0.894  10.552  0.7284  0.9738 -0.7913
 4380TIP3    H234556   1.187   0.848  10.458  0.1660  0.8095 -0.0601
 4381TIP3   OH234557   2.549   6.499  15.003 -0.0692 -0.5100 -0.6307
 4381TIP3    H134558   2.516   6.494  15.093  1.9377  0.3959  0.2206
 4381TIP3    H234559   2.525   6.587  14.974  0.4357 -0.3117 -0.4673
 4382TIP3   OH234560   4.473   0.414   5.706 -0.0444  0.2250 -0.8129
 4382TIP3    H134561   4.450   0.368   5.625 -2.9843  1.7027 -0.9625
 4382TIP3    H234562   4.422   0.495   5.703  1.0017  1.0983  1.7860
 4383TIP3   OH234563   2.824   3.046  16.012 -0.5254  0.5603 -0.2946
 4383TIP3    H134564   2.729   3.035  16.015 -0.5063 -0.4865 -2.0129
 4383TIP3    H234565   2.838   3.123  15.958 -0.4116 -0.8174 -2.3467
 4384TIP3   OH234566   4.647   5.599  11.334 -0.0139 -0.0626  0.2127
 4384TIP3    H134567   4.742   5.609  11.336 -0.1806  1.6246  1.3869
 4384TIP3    H234568   4.613   5.687  11.318 -1.4190 -0.2997  1.6580
 4385TIP3   OH234569   0.028   0.691  11.710 -0.3028  0.3101 -0.3271
 4385TIP3    H134570  -0.031   0.649  11.648 -0.9883  1.7446 -0.7059
 4385TIP3    H234571  -0.030   0.727  11.777  0.3400 -0.1884  0.5103
 4386TIP3   OH234572   1.047   2.859  14.869 -0.1617 -0.0113  0.3037
 4386TIP3    H134573   0.979   2.864  14.937 -0.0544  2.0376  0.3296
 4386TIP3    H234574   1.066   2.950  14.848  0.7541 -0.5875 -1.5619
 4387TIP3   OH234575   5.426   5.183  13.614 -0.2396  0.3324  0.0003
 4387TIP3    H134576   5.516   5.153  13.625  0.8401  2.2820 -2.4278
 4387TIP3    H234577   5.423   5.217  13.524 -3.4504  0.2364 -0.0492
 4388TIP3   OH234578   0.047   5.953   3.903  0.1086  0.2008 -0.3119
 4388TIP3    H134579  -0.006   5.875   3.884  1.4674 -0.5645 -1.0837
 4388TIP3    H234580   0.050   5.956   3.999 -0.9805  0.0327 -0.2575
 4389TIP3   OH234581   3.385   2.255  11.031  0.3975 -0.2854  0.7497
 4389TIP3    H134582   3.478   2.237  11.036  0.3333 -0.1741  3.7460
 4389TIP3    H234583   3.378   2.351  11.038  0.0577 -0.2495  0.0571
 4390TIP3   OH234584   3.344   4.623  12.897  0.5031 -0.2580  0.5158
 4390TIP3    H134585   3.414   4.674  12.857  0.3178 -1.5615 -1.6215
 4390TIP3    H234586   3.364   4.532  12.874 -0.7522 -0.8642  1.6658
 4391TIP3   OH234587   1.012   1.667   4.623  0.4051  0.4540  0.2555
 4391TIP3    H134588   1.085   1.692   4.567  0.4169  0.7907  0.4186
 4391TIP3    H234589   0.935   1.669   4.566  0.8514 -2.5157 -0.6250
 4392TIP3   OH234590   4.720   4.299   2.525  0.1042  0.4888  0.2491
 4392TIP3    H134591   4.699   4.356   2.451 -2.1433 -0.7546 -0.1531
 4392TIP3    H234592   4.666   4.332   2.597 -1.6614 -1.3517 -0.1369
 4393TIP3   OH234593   0.618   3.665   0.685  0.4434  0.3099  0.2124
 4393TIP3    H134594   0.623   3.575   0.718  0.5596  0.0354 -0.5268
 4393TIP3    H234595   0.540   3.666   0.630 -0.5498  1.1446  1.5846
 4394TIP3   OH234596   1.703   5.876  15.954  0.2622 -0.5067 -0.2461
 4394TIP3    H134597   1.613   5.874  15.920  0.7561 -0.0626 -1.6209
 4394TIP3    H234598   1.710   5.796  16.006 -1.6446  0.5447  1.8540
 4395TIP3   OH234599   2.194   3.285   1.562 -0.0795  0.4649  0.2641
 4395TIP3    H134600   2.213   3.362   1.509 -0.7169  1.0666  0.8830
 4395TIP3    H234601   2.279   3.258   1.596 -0.1096  2.6328  2.3499
 4396TIP3   OH234602   6.682   2.694   4.581 -0.9758 -0.4025 -0.0068
 4396TIP3    H134603   6.709   2.783   4.561 -0.8656 -0.4951 -0.2707
 4396TIP3    H234604   6.704   2.682   4.673 -0.8990 -0.1911  0.0022
 4397TIP3   OH234605   3.733   5.477   0.871 -0.1214 -0.0959  0.1364
 4397TIP3    H134606   3.826   5.457   0.876 -0.2725 -0.8340  0.1359
 4397TIP3    H234607   3.729   5.569   0.846  0.6070 -0.1600 -0.2398
 4398TIP3   OH234608   3.976   1.680   2.476 -0.2520  0.2524  0.0684
 4398TIP3    H134609   4.049   1.646   2.528  1.3658  1.1511 -1.4854
 4398TIP3    H234610   3.976   1.626   2.397  1.4099  2.7212 -1.7622
 4399TIP3   OH234611   1.252   6.796  12.427  0.3144  0.2094  0.1131
 4399TIP3    H134612   1.164   6.771  12.399  0.7943 -0.0924 -1.2263
 4399TIP3    H234613   1.240   6.877  12.476 -0.6708  0.4166 -0.4383
 4400TIP3   OH234614   6.387   1.133  11.849 -0.2923  0.0288 -0.1713
 4400TIP3    H134615   6.324   1.113  11.780  0.2450  1.3602 -1.0921
 4400TIP3    H234616   6.471   1.138  11.804  0.0138  1.2896  0.4969
 4401TIP3   OH234617   6.651   6.144  13.464 -0.4280  0.3817 -0.0941
 4401TIP3    H134618   6.667   6.216  13.403 -0.1909  0.7185  0.3578
 4401TIP3    H234619   6.726   6.147  13.524 -1.3829  1.0037  1.1197
 4402TIP3   OH234620   3.193   4.122   4.735 -0.3587  0.4459 -0.3891
 4402TIP3    H134621   3.174   4.144   4.644 -2.2812 -1.7989 -0.6272
 4402TIP3    H234622   3.264   4.059   4.730 -0.2118  0.6030 -0.2999
 4403TIP3   OH234623   5.034   0.711  11.544  0.1019 -0.5015 -0.0274
 4403TIP3    H134624   4.962   0.677  11.492 -0.7241 -0.3573  0.9912
 4403TIP3    H234625   4.996   0.785  11.593  1.5069  1.0674 -1.1802
 4404TIP3   OH234626   3.069   3.903  16.299  0.6715  0.1958  0.0135
 4404TIP3    H134627   3.089   3.949  16.381 -3.1700  4.3362 -0.9345
 4404TIP3    H234628   3.134   3.934  16.237  0.7332  0.9366  0.4404
 4405TIP3   OH234629   1.725   0.269  13.284 -0.1379 -0.4654 -0.3441
 4405TIP3    H134630   1.811   0.246  13.247 -0.0786 -1.5382  0.4282
 4405TIP3    H234631   1.717   0.363  13.267  1.9832  0.0476  1.0869
 4406TIP3   OH234632   1.716   2.366  16.206 -0.2110  0.3689 -0.1543
 4406TIP3    H134633   1.683   2.437  16.260  0.2393  1.5180 -1.3263
 4406TIP3    H234634   1.642   2.339  16.153 -0.0061  1.0572 -0.8160
 4407TIP3   OH234635   0.140   0.541   1.158  0.0339  0.0011  0.2547
 4407TIP3    H134636   0.218   0.557   1.212 -0.3787  0.6632  0.6658
 4407TIP3    H234637   0.133   0.445   1.154  0.1754 -0.0645  1.2468
 4408TIP3   OH234638   1.364   1.863  11.075 -0.2820  0.1236  0.3089
 4408TIP3    H134639   1.440   1.881  11.020 -0.3192 -1.9859 -0.5251
 4408TIP3    H234640   1.397   1.801  11.141 -1.5762 -2.1895 -1.0881
 4409TIP3   OH234641   1.855   1.996   4.148  0.1203 -0.0452  0.0099
 4409TIP3    H134642   1.910   1.918   4.135 -0.6756 -0.3248 -2.1614
 4409TIP3    H234643   1.766   1.963   4.138 -0.3487  0.8394  1.0658
 4410TIP3   OH234644   4.927   2.997  14.021 -1.2235  0.2320  0.5026
 4410TIP3    H134645   4.964   3.080  14.052  0.6872 -0.1468 -0.6533
 4410TIP3    H234646   4.922   2.943  14.100 -1.1550  0.9485  1.0188
 4411TIP3   OH234647   3.085   2.794  14.324  0.1287 -0.5502 -0.2469
 4411TIP3    H134648   3.108   2.710  14.364  0.2187 -0.0274  0.8386
 4411TIP3    H234649   3.005   2.821  14.368  1.0708  0.7777  0.7410
 4412TIP3   OH234650   3.476   6.727   1.926 -0.8692 -0.3583 -0.2194
 4412TIP3    H134651   3.506   6.784   1.998  0.3548 -0.4357 -0.6407
 4412TIP3    H234652   3.553   6.718   1.870 -1.4317 -1.3809 -0.8447
 4413TIP3   OH234653   2.181   3.114  13.258  0.3751  0.2889 -0.0900
 4413TIP3    H134654   2.218   3.073  13.335  1.5532  3.4609  1.1978
 4413TIP3    H234655   2.086   3.111  13.272  0.5463  0.1482  1.1222
 4414TIP3   OH234656   5.919   5.912   1.845  0.3529  0.0974 -0.0475
 4414TIP3    H134657   5.851   5.847   1.827 -1.1978  0.8919  2.3772
 4414TIP3    H234658   5.983   5.900   1.775 -1.4590 -1.8155 -1.5118
 4415TIP3   OH234659   0.055   5.328  16.992 -0.2275 -0.1594  0.4999
 4415TIP3    H134660   0.114   5.310  17.065 -0.5040  0.7701  0.9710
 4415TIP3    H234661   0.009   5.408  17.018  0.4215  0.7864 -1.1392
 4416TIP3   OH234662   5.749   3.046   1.354 -0.1932  1.1780 -0.4013
 4416TIP3    H134663   5.809   3.100   1.405 -0.3963  1.7658 -0.7705
 4416TIP3    H234664   5.703   3.108   1.298 -1.5700  0.8294  0.2835
 4417TIP3   OH234665   0.329   0.906  15.284  0.1274 -0.1460 -0.0648
 4417TIP3    H134666   0.387   0.972  15.322  1.2105 -0.6460 -0.7925
 4417TIP3    H234667   0.320   0.933  15.192 -0.5577 -0.2433 -0.0312
 4418TIP3   OH234668   0.463   4.340  14.243 -0.5413 -0.1556  0.0223
 4418TIP3    H134669   0.424   4.342  14.330  1.2419 -0.1698  0.8784
 4418TIP3    H234670   0.521   4.417  14.241 -0.3450 -0.3153 -1.0407
 4419TIP3   OH234671   3.426   3.474   3.624 -0.0116 -0.3200 -0.0427
 4419TIP3    H134672   3.404   3.545   3.684 -0.3323 -1.1742  0.8732
 4419TIP3    H234673   3.365   3.404   3.646  1.0472 -1.3040 -0.1313
 4420TIP3   OH234674   5.268   5.629  11.622 -0.3974  0.1424  0.1032
 4420TIP3    H134675   5.243   5.610  11.532 -0.9518 -0.1478  0.3094
 4420TIP3    H234676   5.364   5.631  11.621 -0.4024  0.1942 -0.4987
 4421TIP3   OH234677   6.304   3.718   5.873  0.0701 -0.3796  0.3635
 4421TIP3    H134678   6.349   3.740   5.792  0.7279  0.6808  0.9941
 4421TIP3    H234679   6.369   3.732   5.942 -0.8398 -0.0209  1.1835
 4422TIP3   OH234680   0.491   5.791  13.266  0.0341 -0.2578  0.1503
 4422TIP3    H134681   0.478   5.748  13.181  0.5864 -1.1041  0.4857
 4422TIP3    H234682   0.574   5.838  13.256  0.4241 -0.8781  0.4229
 4423TIP3   OH234683   6.521   1.928   5.517 -0.3265  0.4366 -0.1465
 4423TIP3    H134684   6.589   1.860   5.523 -0.9068 -0.2164 -0.9237
 4423TIP3    H234685   6.536   1.982   5.595 -0.4847 -1.1627  1.0589
 4424TIP3   OH234686   3.665   2.157   5.864  0.0506  0.3786 -0.2116
 4424TIP3    H134687   3.648   2.244   5.900  1.0680  0.9336 -1.0081
 4424TIP3    H234688   3.748   2.129   5.904 -0.9881 -0.8838  1.1628
 4425TIP3   OH234689   2.734   6.375   0.261  0.4230  0.1213  0.0259
 4425TIP3    H134690   2.752   6.392   0.353  0.0071  0.8785 -0.0251
 4425TIP3    H234691   2.801   6.312   0.234  1.6588  1.2390  0.3876
 4426TIP3   OH234692   0.489   0.284  15.220 -0.5987 -0.0290 -0.0303
 4426TIP3    H134693   0.488   0.274  15.315 -0.7422 -2.5447 -0.2434
 4426TIP3    H234694   0.526   0.372  15.206 -0.9196  0.5560  2.3213
 4427TIP3   OH234695   2.892   3.411  13.997 -0.3142 -0.4174  0.0383
 4427TIP3    H134696   2.823   3.415  14.064  0.6455 -2.0397  1.2075
 4427TIP3    H234697   2.846   3.389  13.916 -1.3136 -0.1227  0.5079
 4428TIP3   OH234698   2.142   5.200   5.034 -0.2622  0.1531  0.4691
 4428TIP3    H134699   2.185   5.276   4.994 -1.5991  0.1575 -1.0454
 4428TIP3    H234700   2.096   5.158   4.962 -0.8609 -1.1917  1.5992
 4429TIP3   OH234701   2.138   5.369   3.958  0.2504 -0.3030 -0.5895
 4429TIP3    H134702   2.064   5.322   3.997  0.7552 -0.0212  0.7684
 4429TIP3    H234703   2.100   5.420   3.887 -0.7445 -0.6524 -0.3202
 4430TIP3   OH234704   4.000   3.181  12.542 -0.3460  0.1153  0.2549
 4430TIP3    H134705   3.969   3.246  12.605 -0.2335  0.3959  0.0206
 4430TIP3    H234706   3.975   3.217  12.456  0.6892  0.3765  0.0560
 4431TIP3   OH234707   4.255   1.411  11.147  0.1423 -0.2385 -0.3434
 4431TIP3    H134708   4.181   1.450  11.100 -1.2207 -0.8665  1.1790
 4431TIP3    H234709   4.287   1.342  11.089 -0.7730 -0.2616 -0.8361
 4432TIP3   OH234710   1.074   2.898   1.976  0.2725 -0.1002 -0.0459
 4432TIP3    H134711   1.039   2.894   1.887  0.8694 -2.1479 -0.2405
 4432TIP3    H234712   1.168   2.883   1.966  0.4118  0.1010  0.8845
 4433TIP3   OH234713   3.018   0.230  16.189 -0.2694  0.2020 -0.2513
 4433TIP3    H134714   3.042   0.180  16.111 -1.5129  1.9689 -1.8580
 4433TIP3    H234715   3.099   0.274  16.214  0.3240 -0.9546 -0.0694
 4434TIP3   OH234716   1.823   2.039  12.167 -0.2067 -0.4467  0.4317
 4434TIP3    H134717   1.823   2.133  12.146  0.3788 -0.5362 -0.0024
 4434TIP3    H234718   1.756   2.030  12.234  0.7329  0.5315  1.5478
 4435TIP3   OH234719   0.515   3.345  16.698  0.6926 -0.6214  0.0085
 4435TIP3    H134720   0.451   3.366  16.630  0.3937 -0.7485  0.2431
 4435TIP3    H234721   0.474   3.378  16.779 -0.4761 -3.3289  0.6421
 4436TIP3   OH234722   5.884   3.325  12.893 -0.2667 -0.2214  0.1354
 4436TIP3    H134723   5.887   3.297  12.801 -0.9886  1.3247 -0.3800
 4436TIP3    H234724   5.851   3.248  12.940  0.0923 -1.0274 -0.8881
 4437TIP3   OH234725   3.276   4.567  12.273  0.6953 -0.1518  0.4231
 4437TIP3    H134726   3.268   4.648  12.324  1.0853  0.3622 -0.3249
 4437TIP3    H234727   3.280   4.595  12.182 -1.5133 -1.1481 -0.0444
 4438TIP3   OH234728   6.576   6.621  14.592  0.1343  0.4988 -0.1398
 4438TIP3    H134729   6.613   6.614  14.680 -0.0846 -0.9614 -0.1438
 4438TIP3    H234730   6.650   6.601  14.534 -0.4114 -1.6383 -0.1692
 4439TIP3   OH234731   0.069   0.206   2.058  0.0097  0.1362 -0.3324
 4439TIP3    H134732   0.075   0.253   1.974  1.6002  0.7383  0.0673
 4439TIP3    H234733   0.142   0.145   2.056  1.4362  1.6448  1.4321
 4440TIP3   OH234734   5.614   6.010   6.240 -0.5622 -0.8030 -0.2186
 4440TIP3    H134735   5.615   5.915   6.229 -1.1863 -0.6077 -2.2430
 4440TIP3    H234736   5.521   6.033   6.238 -0.4122 -0.1356  0.2792
 4441TIP3   OH234737   6.654   2.591   2.376 -0.2899 -0.1446  0.4151
 4441TIP3    H134738   6.706   2.545   2.309  0.4234  0.1026  0.7916
 4441TIP3    H234739   6.719   2.633   2.432 -0.9256  1.4639 -0.0019
 4442TIP3   OH234740   6.781   3.383  11.291  0.5674  0.0224 -0.1687
 4442TIP3    H134741   6.715   3.365  11.358 -0.1737 -0.4662 -1.0087
 4442TIP3    H234742   6.731   3.408  11.214  1.3543 -0.5250 -0.8779
 4443TIP3   OH234743   0.579   5.740  15.679  0.3512 -0.4873  0.4199
 4443TIP3    H134744   0.517   5.811  15.694 -0.1160 -0.4561 -1.3362
 4443TIP3    H234745   0.523   5.664  15.662  0.7628 -0.5351 -0.8392
 4444TIP3   OH234746   1.075   1.835   0.555 -0.4036  0.2185 -0.1614
 4444TIP3    H134747   1.066   1.920   0.598 -1.9340  0.1401 -0.2799
 4444TIP3    H234748   0.986   1.802   0.548  0.0603 -0.8956 -1.1504
 4445TIP3   OH234749   3.076   6.602  14.157  0.5622 -0.4562  0.2156
 4445TIP3    H134750   2.993   6.559  14.139 -0.6993  2.0135 -0.3177
 4445TIP3    H234751   3.068   6.689  14.117  3.6499 -0.3151 -0.3789
 4446TIP3   OH234752   1.758   5.096  11.418  0.3159 -0.6092  0.0951
 4446TIP3    H134753   1.760   5.094  11.322 -0.3857 -0.4011  0.0700
 4446TIP3    H234754   1.666   5.083  11.440  0.2937  0.4895  0.7102
 4447TIP3   OH234755   5.842   0.407  11.642  0.4176 -0.6095 -0.3661
 4447TIP3    H134756   5.849   0.493  11.602 -0.5952 -0.1042  0.4780
 4447TIP3    H234757   5.932   0.375  11.648  0.6429 -0.4865 -2.5062
 4448TIP3   OH234758   1.099   4.953  13.404 -0.4861 -0.6264  0.2739
 4448TIP3    H134759   1.186   4.916  13.415  0.5997  0.9542 -2.0708
 4448TIP3    H234760   1.113   5.048  13.407 -1.5469 -0.2390 -3.0556
 4449TIP3   OH234761   4.862   4.761  15.399 -0.3057 -0.6604 -0.0752
 4449TIP3    H134762   4.826   4.780  15.313 -0.6985  0.3503  0.2963
 4449TIP3    H234763   4.897   4.845  15.429  2.0708 -1.5088 -0.2638
 4450TIP3   OH234764   5.314   5.137  16.213 -0.4388  0.0112 -0.5770
 4450TIP3    H134765   5.260   5.090  16.276  0.0628 -1.5754 -1.2762
 4450TIP3    H234766   5.342   5.216  16.259 -0.7728 -0.6889  0.8746
 4451TIP3   OH234767   1.006   4.954   0.106 -0.0642  0.6867 -0.1749
 4451TIP3    H134768   1.058   4.920   0.179 -0.4742 -1.5706 -0.8612
 4451TIP3    H234769   1.053   5.032   0.077  0.9842  0.7057  1.4625
 4452TIP3   OH234770   1.390   6.682  12.122  0.8181 -0.2158  0.3737
 4452TIP3    H134771   1.390   6.615  12.190 -0.8786 -0.3125  0.3306
 4452TIP3    H234772   1.329   6.748  12.154 -2.2819 -1.5462 -2.1546
 4453TIP3   OH234773   4.274   6.711   5.413  0.0954  0.1934 -0.1442
 4453TIP3    H134774   4.356   6.711   5.363  0.3399 -0.9965  0.2371
 4453TIP3    H234775   4.297   6.753   5.496  0.1003  0.6293 -0.3600
 4454TIP3   OH234776   5.742   1.248  11.655 -0.6246 -0.5282  0.2752
 4454TIP3    H134777   5.770   1.160  11.678  0.4467 -0.3568 -0.2786
 4454TIP3    H234778   5.819   1.303  11.670 -0.3455 -0.1554 -2.0314
 4455TIP3   OH234779   4.166   2.147   5.977 -0.3351  0.3569 -0.3144
 4455TIP3    H134780   4.124   2.077   5.928  0.1847  0.8970 -1.5642
 4455TIP3    H234781   4.258   2.120   5.985  0.5566  2.0764 -3.2452
 4456TIP3   OH234782   6.579   1.160   4.889 -0.3992 -0.3408 -0.0300
 4456TIP3    H134783   6.503   1.172   4.946 -0.4485 -1.3302  0.1139
 4456TIP3    H234784   6.608   1.250   4.870 -0.3633  0.0142  1.5507
 4457TIP3   OH234785   3.682   6.506  12.824  0.1806  0.1230 -0.5262
 4457TIP3    H134786   3.776   6.517  12.814  0.1451  0.4177 -0.5442
 4457TIP3    H234787   3.644   6.587  12.790  0.0498  1.1835  1.9299
 4458TIP3   OH234788   5.261   2.945  13.413  0.2713 -0.1074 -0.2196
 4458TIP3    H134789   5.275   2.986  13.328 -0.2197  0.4172 -0.0484
 4458TIP3    H234790   5.332   2.881  13.420 -0.6587 -1.3996 -1.7783
 4459TIP3   OH234791   6.538   0.786   4.621 -0.0095  0.0003 -0.0392
 4459TIP3    H134792   6.531   0.700   4.578 -0.0329  0.3996 -0.8591
 4459TIP3    H234793   6.449   0.805   4.651  0.4047 -1.2716  2.2093
 4460TIP3   OH234794   2.253   0.260  11.765 -0.6268  0.7083  0.2723
 4460TIP3    H134795   2.162   0.267  11.795 -1.3531  1.2832 -1.8706
 4460TIP3    H234796   2.296   0.339  11.798 -1.0026  0.6372  0.9525
 4461TIP3   OH234797   3.042   2.402  12.944 -0.0419 -0.0850 -0.4877
 4461TIP3    H134798   2.984   2.333  12.911 -0.2642 -0.2712  0.2695
 4461TIP3    H234799   3.130   2.372  12.922 -0.2258  0.1749 -1.6044
 4462TIP3   OH234800   3.759   3.286  13.392  0.0839  0.4420  0.0640
 4462TIP3    H134801   3.725   3.373  13.412  0.3070  0.7162 -0.7116
 4462TIP3    H234802   3.688   3.226  13.415 -0.2787  0.8750  0.0790
 4463TIP3   OH234803   3.958   3.668   4.289  0.0216 -0.0423  0.1171
 4463TIP3    H134804   3.895   3.658   4.218 -0.9196  0.7332  0.8201
 4463TIP3    H234805   3.972   3.762   4.296  0.5985 -0.1570  0.5409
 4464TIP3   OH234806   2.114   5.102   4.768  0.0657  0.5701 -0.0837
 4464TIP3    H134807   2.194   5.136   4.728  1.2111 -2.1208 -0.3011
 4464TIP3    H234808   2.050   5.100   4.697 -0.4009  3.0336  0.1598
 4465TIP3   OH234809   3.572   3.627   1.351 -0.7074 -0.0528 -0.0264
 4465TIP3    H134810   3.504   3.576   1.394 -0.0129  0.5528  1.9199
 4465TIP3    H234811   3.528   3.706   1.321 -1.6126 -1.3164 -2.3146
 4466TIP3   OH234812   1.390   6.565   0.501  0.4476 -0.0924 -0.0008
 4466TIP3    H134813   1.399   6.658   0.482 -0.8810 -0.3416 -2.3055
 4466TIP3    H234814   1.394   6.559   0.596  2.4637  2.0597  0.1261
 4467TIP3   OH234815   2.580   6.335   5.013  0.1415 -0.4799 -0.0040
 4467TIP3    H134816   2.668   6.318   4.978 -0.0940 -1.5612 -0.1067
 4467TIP3    H234817   2.595   6.389   5.091  0.7632  0.9114 -1.0276
 4468TIP3   OH234818   0.532   3.232   0.238  0.1233 -0.2643 -0.0319
 4468TIP3    H134819   0.464   3.168   0.256 -0.1045 -0.2731 -0.8544
 4468TIP3    H234820   0.605   3.181   0.203  1.5126 -0.5711  2.9970
 4469TIP3   OH234821   0.731   0.434   3.463  0.1416 -0.2534  0.4505
 4469TIP3    H134822   0.755   0.395   3.547 -0.0115  0.0877  0.6557
 4469TIP3    H234823   0.797   0.402   3.402 -0.3499 -1.3463  0.4811
 4470TIP3   OH234824   5.506   5.871  12.476  0.0939  0.6038  0.3228
 4470TIP3    H134825   5.590   5.906  12.504 -0.1440 -0.1337  2.0692
 4470TIP3    H234826   5.468   5.832  12.555 -0.1352 -2.5698 -1.1921
 4471TIP3   OH234827   4.226   3.602   1.824 -0.1904  0.7161  0.2941
 4471TIP3    H134828   4.175   3.542   1.877 -0.6186  3.2554  3.0503
 4471TIP3    H234829   4.310   3.609   1.870 -0.1194  2.0837  0.0094
 4472TIP3   OH234830   3.042   3.700   4.338 -0.4166  0.1834 -0.0073
 4472TIP3    H134831   2.961   3.717   4.290 -1.5845 -0.8332  1.5438
 4472TIP3    H234832   3.017   3.640   4.408  1.6856 -0.1629  0.5104
 4473TIP3   OH234833   3.452   5.871  14.600  0.7234 -0.1263  0.0268
 4473TIP3    H134834   3.440   5.956  14.558  0.2797 -1.0364 -1.7714
 4473TIP3    H234835   3.403   5.878  14.682 -0.8898  0.7393 -0.9654
 4474TIP3   OH234836   3.081   0.804   1.244  0.1794  0.0105  0.2793
 4474TIP3    H134837   2.997   0.761   1.229 -0.0489  0.9839 -1.4285
 4474TIP3    H234838   3.062   0.873   1.307 -0.5709  0.9401 -0.9271
 4475TIP3   OH234839   0.441   0.158   4.873 -0.3008 -0.3600  0.1112
 4475TIP3    H134840   0.421   0.177   4.781 -0.2891  0.7241  0.3248
 4475TIP3    H234841   0.436   0.062   4.879 -1.1391 -0.3893 -0.8217
 4476TIP3   OH234842   3.100   6.437   0.815  0.1617 -0.0973  0.1523
 4476TIP3    H134843   3.155   6.400   0.746  0.4854  0.6147  0.0226
 4476TIP3    H234844   3.019   6.387   0.810  1.0946 -1.7761  0.9177
 4477TIP3   OH234845   1.401   0.025   0.536  0.0969 -0.5467  0.2519
 4477TIP3    H134846   1.331   0.091   0.544  0.9335  0.3916 -0.0378
 4477TIP3    H234847   1.442   0.025   0.622 -0.3810 -1.2532  0.4873
 4478TIP3   OH234848   4.176   3.755   2.543  0.0139  0.0239  0.5718
 4478TIP3    H134849   4.123   3.798   2.611 -0.5748 -1.1282  0.8700
 4478TIP3    H234850   4.163   3.808   2.465  0.2814  1.0781  1.2283
 4479TIP3   OH234851   4.747   1.154   0.695  0.5324  0.2052  0.1321
 4479TIP3    H134852   4.799   1.156   0.775  0.3692  0.4640  0.2312
 4479TIP3    H234853   4.742   1.061   0.672  0.7183  0.1462  0.3304
 4480TIP3   OH234854   2.744   6.111  12.568  0.4083 -0.6720 -0.5491
 4480TIP3    H134855   2.782   6.182  12.515  1.7850 -1.3040 -0.4675
 4480TIP3    H234856   2.805   6.038  12.556  0.9432 -0.7516  2.1306
 4481TIP3   OH234857   5.008   6.513   5.177 -0.7142 -0.4004  0.2323
 4481TIP3    H134858   4.944   6.501   5.247 -0.3219 -0.6832  0.5452
 4481TIP3    H234859   5.027   6.607   5.177 -2.6510  0.0549 -1.2097
 4482TIP3   OH234860   3.290   3.507  10.715  0.8474  0.1107 -0.4800
 4482TIP3    H134861   3.341   3.586  10.730  0.1294  0.4353  0.3617
 4482TIP3    H234862   3.199   3.537  10.712  0.6777 -0.4782 -1.7752
 4483TIP3   OH234863   1.164   1.149   1.980  0.0122  0.3061 -0.0386
 4483TIP3    H134864   1.183   1.123   2.070  1.2713 -0.8976 -0.5987
 4483TIP3    H234865   1.237   1.112   1.929 -0.6250  1.0264 -1.5354
 4484TIP3   OH234866   6.734   2.843  12.265  0.1674 -0.4910 -0.5857
 4484TIP3    H134867   6.693   2.928  12.254 -1.2720 -0.9345  0.9748
 4484TIP3    H234868   6.761   2.840  12.357  0.5913 -1.5446 -0.7236
 4485TIP3   OH234869   2.427   0.278   0.766  0.2593 -0.3360  0.1151
 4485TIP3    H134870   2.350   0.332   0.751  0.2838 -0.5570 -0.8814
 4485TIP3    H234871   2.399   0.211   0.828 -0.4814 -0.6870 -0.5852
 4486TIP3   OH234872   0.772   5.947  15.892  0.1661  0.3629  0.2850
 4486TIP3    H134873   0.837   5.976  15.828  0.2891  0.0069  0.2429
 4486TIP3    H234874   0.731   5.871  15.851  0.1115  0.2505  0.5448
 4487TIP3   OH234875   2.974   4.925   5.980  0.3444  0.2425 -0.3861
 4487TIP3    H134876   2.918   4.989   6.024  0.0131 -1.2447  1.4841
 4487TIP3    H234877   2.989   4.962   5.893 -1.3333  1.9607 -0.0097
 4488TIP3   OH234878   6.236   5.911  11.267  0.1180 -0.2233  0.2940
 4488TIP3    H134879   6.272   5.824  11.248  1.1088  0.2931 -0.2698
 4488TIP3    H234880   6.145   5.894  11.292 -0.4419 -1.2568 -2.1165
 4489TIP3   OH234881   6.105   2.754  12.398 -0.3190  0.8380  0.1064
 4489TIP3    H134882   6.169   2.785  12.462 -0.9046  1.5278  0.3613
 4489TIP3    H234883   6.039   2.823  12.395 -0.7976  0.3542 -0.5188
 4490TIP3   OH234884   2.580   1.637  16.142  0.6006 -0.4627  0.8809
 4490TIP3    H134885   2.550   1.680  16.222  0.2089 -0.6650  0.8446
 4490TIP3    H234886   2.508   1.579  16.117  0.4792  0.0177  0.0675
 4491TIP3   OH234887   2.334   6.059  15.277 -0.5080 -0.6500  0.0768
 4491TIP3    H134888   2.365   6.021  15.359  1.6885  1.2028  0.1878
 4491TIP3    H234889   2.324   6.153  15.296 -0.6115 -0.2938 -1.5947
 4492TIP3   OH234890   5.540   2.097  11.658  0.3861  0.0818  0.1379
 4492TIP3    H134891   5.542   2.033  11.586  2.1154 -0.4764  0.6165
 4492TIP3    H234892   5.550   2.182  11.615 -0.0364 -0.1236 -0.3755
 4493TIP3   OH234893   2.691   2.846  13.934  0.1876 -0.3545 -0.0035
 4493TIP3    H134894   2.657   2.924  13.890 -0.7404 -1.0766 -0.5924
 4493TIP3    H234895   2.663   2.856  14.025  0.9013  0.4527  0.1492
 4494TIP3   OH234896   2.018   6.733   0.293 -0.5737 -0.0408 -0.2212
 4494TIP3    H134897   1.984   6.656   0.248 -0.8578  0.5232 -1.0023
 4494TIP3    H234898   2.112   6.730   0.278 -0.6397  0.0134 -0.6551
 4495TIP3   OH234899   6.120   3.470   2.897 -0.1703 -0.1009  0.0439
 4495TIP3    H134900   6.203   3.427   2.877  0.3027  1.2714 -1.0806
 4495TIP3    H234901   6.065   3.452   2.820 -0.5809 -0.2011  0.3589
 4496TIP3   OH234902   4.004   3.721   3.907  0.0439  0.1449  0.0851
 4496TIP3    H134903   3.952   3.661   3.854 -2.7344  1.4700  1.1308
 4496TIP3    H234904   4.072   3.665   3.946 -0.1045 -1.5291 -1.8713
 4497TIP3   OH234905   4.774   3.329  14.321  0.1507  0.1318  0.3546
 4497TIP3    H134906   4.821   3.341  14.239 -0.7711 -1.1733 -0.4077
 4497TIP3    H234907   4.785   3.235  14.340  0.6197  0.4736  1.9057
 4498TIP3   OH234908   3.545   5.897   5.314 -0.0057  0.3963  0.3817
 4498TIP3    H134909   3.527   5.983   5.278 -1.0457 -0.9949 -2.7760
 4498TIP3    H234910   3.639   5.897   5.334  0.6084  1.4285 -2.1843
 4499TIP3   OH234911   3.443   0.995  16.274  0.2031 -0.4079 -0.1654
 4499TIP3    H134912   3.383   1.064  16.246  0.2359 -0.2370  0.1806
 4499TIP3    H234913   3.516   0.999  16.211  0.2198 -0.1075 -0.1291
 4500TIP3   OH234914   6.584   3.413   4.570  0.3047  0.1270 -0.0501
 4500TIP3    H134915   6.645   3.447   4.636 -0.4321 -0.0192  0.7266
 4500TIP3    H234916   6.587   3.477   4.499  0.9243  0.4208  0.2314
 4501TIP3   OH234917   2.757   0.238  16.560  0.3051 -0.1003  0.6821
 4501TIP3    H134918   2.815   0.233  16.484  0.4945  0.8738  0.7554
 4501TIP3    H234919   2.669   0.229  16.523  0.2237  2.5823  0.0234
 4502TIP3   OH234920   6.335   1.612   5.754  0.3377  0.2027  0.3113
 4502TIP3    H134921   6.345   1.554   5.829  0.2629  0.6547  0.6805
 4502TIP3    H234922   6.335   1.700   5.792  0.5090  0.4460 -0.2428
 4503TIP3   OH234923   6.191   0.555   3.167  0.1941 -0.5447  0.3958
 4503TIP3    H134924   6.197   0.588   3.256 -1.8411  0.5615  0.1886
 4503TIP3    H234925   6.225   0.465   3.172  1.1092 -0.1432  2.0256
 4504TIP3   OH234926   3.405   5.616  13.389 -0.0879 -0.3040  0.3581
 4504TIP3    H134927   3.453   5.550  13.440 -0.5020 -1.1239 -0.2950
 4504TIP3    H234928   3.325   5.571  13.360 -1.5072  1.1478  1.7826
 4505TIP3   OH234929   3.113   5.952   0.715 -0.5848 -0.3419  0.5864
 4505TIP3    H134930   3.110   5.932   0.808 -2.0024  1.9158  1.0983
 4505TIP3    H234931   3.118   5.866   0.672  1.7019 -1.4174  2.7141
 4506TIP3   OH234932   2.093   3.552   5.696 -0.8345 -0.3744  0.0891
 4506TIP3    H134933   2.175   3.564   5.648 -1.3535  0.9021 -0.5302
 4506TIP3    H234934   2.030   3.525   5.629 -1.1562 -0.3484  0.3779
 4507TIP3   OH234935   2.451   1.695  17.013 -0.3782 -0.3100 -0.3397
 4507TIP3    H134936   2.440   1.626  16.948  2.7475  0.5978 -2.0380
 4507TIP3    H234937   2.488   1.769  16.964  0.5286  1.0345  2.1725
 4508TIP3   OH234938   3.731   6.226  12.125  0.8941 -0.4472  0.1909
 4508TIP3    H134939   3.729   6.233  12.029  2.8737 -1.0511  0.0534
 4508TIP3    H234940   3.669   6.293  12.155  1.8418  1.2908 -1.4672
 4509TIP3   OH234941   4.007   6.186   0.795  1.1579  0.3588 -0.5708
 4509TIP3    H134942   4.039   6.178   0.885  2.2872  1.0660 -0.8789
 4509TIP3    H234943   3.961   6.105   0.778  0.1714  0.5688  0.9338
 4510TIP3   OH234944   3.650   0.590   6.351 -0.5358  0.4193 -0.2314
 4510TIP3    H134945   3.640   0.513   6.407 -1.2722  2.0884  2.1117
 4510TIP3    H234946   3.584   0.579   6.282  0.3185 -1.6640 -0.7646
 4511TIP3   OH234947   0.650   1.002  11.400  0.1035 -0.0375 -0.1178
 4511TIP3    H134948   0.565   0.979  11.362 -0.7564  2.2680  0.2444
 4511TIP3    H234949   0.709   1.007  11.325 -0.0059 -1.8207 -0.3558
 4512TIP3   OH234950   0.003   4.473  16.653  0.6671  0.0312 -0.5188
 4512TIP3    H134951   0.046   4.395  16.617 -1.6092 -2.0512  0.9700
 4512TIP3    H234952  -0.023   4.448  16.741  1.4453  3.1758  0.7213
 4513TIP3   OH234953   1.967   2.614   3.715 -0.5558  0.6407  0.0640
 4513TIP3    H134954   1.945   2.526   3.683  1.5738 -0.0004  0.2246
 4513TIP3    H234955   1.912   2.626   3.792  0.1286 -1.1625  0.8887
 4514TIP3   OH234956   4.017   0.718  14.757 -0.6940  0.0343 -0.0898
 4514TIP3    H134957   4.047   0.628  14.745 -1.1899  0.0674 -1.8174
 4514TIP3    H234958   4.062   0.748  14.836  0.6442 -1.2396 -0.3263
 4515TIP3   OH234959   4.595   6.269   2.900  0.4228  0.0632 -0.4706
 4515TIP3    H134960   4.653   6.341   2.875 -0.0244  1.1150  1.3576
 4515TIP3    H234961   4.601   6.265   2.995 -0.2648 -1.7486 -0.4659
 4516TIP3   OH234962   0.561   2.175   5.833 -0.2812  0.2597 -0.1151
 4516TIP3    H134963   0.604   2.146   5.913  0.2615  1.0568 -0.1158
 4516TIP3    H234964   0.577   2.269   5.828 -0.9314  0.3538 -0.7828
 4517TIP3   OH234965   1.208   6.679  12.785  0.7064  0.2595 -0.1657
 4517TIP3    H134966   1.220   6.771  12.809  0.7832  0.1903  0.0710
 4517TIP3    H234967   1.256   6.631  12.853  0.8966  0.0549 -0.4412
 4518TIP3   OH234968   0.978   4.393  13.296 -0.5405  0.0117  0.2267
 4518TIP3    H134969   1.035   4.321  13.323 -0.5559 -0.0528  0.0910
 4518TIP3    H234970   0.959   4.441  13.376  0.6111  0.6847  0.1150
 4519TIP3   OH234971   3.665   0.670  14.180  0.1410 -0.0595  0.7744
 4519TIP3    H134972   3.630   0.641  14.095  0.2857 -1.3900  1.1462
 4519TIP3    H234973   3.597   0.727  14.215 -0.8230 -1.0861  0.6365
 4520TIP3   OH234974   5.479   2.777   4.618 -0.0975  0.2702 -0.6159
 4520TIP3    H134975   5.444   2.808   4.534 -0.0033 -0.0709 -0.7844
 4520TIP3    H234976   5.512   2.689   4.599 -0.0531  0.2004 -0.2257
 4521TIP3   OH234977   3.355   1.647  17.033 -0.5801  0.5068 -0.0964
 4521TIP3    H134978   3.449   1.653  17.049 -0.8883  1.9069  1.4547
 4521TIP3    H234979   3.341   1.556  17.006  0.9211 -0.4232  1.9378
 4522TIP3   OH234980   0.283   2.461   5.859 -0.5729  0.1863 -0.3831
 4522TIP3    H134981   0.238   2.398   5.915  1.2703  0.9138  2.1389
 4522TIP3    H234982   0.293   2.417   5.775 -0.7065 -2.2728  0.8098
 4523TIP3   OH234983   1.907   0.070  10.849  0.0492  0.5723  0.0915
 4523TIP3    H134984   1.850   0.145  10.866  1.8088  1.7939  0.8792
 4523TIP3    H234985   1.885   0.007  10.917 -0.7267  0.7862  0.0501
 4524TIP3   OH234986   5.315   2.146   0.096  0.1063  0.4350  0.4395
 4524TIP3    H134987   5.293   2.196   0.175 -1.0840 -0.2352  0.5457
 4524TIP3    H234988   5.317   2.212   0.026 -1.8015  0.6170  0.5125
 4525TIP3   OH234989   3.024   5.457   0.554  0.2405  0.1954 -0.3811
 4525TIP3    H134990   2.978   5.489   0.631 -0.8816 -1.4715 -0.3109
 4525TIP3    H234991   2.986   5.506   0.481  0.4268  0.8936 -0.0114
 4526TIP3   OH234992   0.344   0.035  12.154  0.3481 -0.3134  0.7419
 4526TIP3    H134993   0.363   0.014  12.062  0.7604  1.8904  0.2584
 4526TIP3    H234994   0.268  -0.018  12.176 -1.0677  0.5944 -1.5787
 4527TIP3   OH234995   6.455   2.402  12.506  0.2359  0.6171 -0.5274
 4527TIP3    H134996   6.466   2.492  12.473 -2.9985  1.0773 -0.7187
 4527TIP3    H234997   6.484   2.347  12.433  0.8784  1.5121 -0.9782
 4528TIP3   OH234998   1.592   1.213   4.044 -0.1138 -0.3349  0.0428
 4528TIP3    H134999   1.537   1.204   4.121  0.7393 -1.6181  0.5351
 4528TIP3    H235000   1.675   1.247   4.077  0.2987 -0.9996 -0.2627
 4529TIP3   OH235001   4.913   5.517  15.206 -0.1500 -0.3199  0.5535
 4529TIP3    H135002   4.899   5.611  15.195 -1.2535 -0.5301 -0.0250
 4529TIP3    H235003   4.831   5.485  15.243  1.1552 -0.6719  3.4549
 4530TIP3   OH235004   5.358   3.363  16.272 -0.0571 -0.5909 -0.1589
 4530TIP3    H135005   5.362   3.272  16.241 -1.2730 -0.5658 -0.4460
 4530TIP3    H235006   5.265   3.378  16.289  0.0193  0.8551 -0.8951
 4531TIP3   OH235007   6.513   2.979   2.380 -0.1305 -0.4134 -0.4594
 4531TIP3    H135008   6.481   2.892   2.403  0.8432 -0.9699 -1.1252
 4531TIP3    H235009   6.434   3.031   2.369 -0.7040 -0.6628  1.9175
 4532TIP3   OH235010   5.605   3.031  12.863 -0.4050  0.0195 -0.5205
 4532TIP3    H135011   5.604   3.089  12.786 -1.3209  2.0870  0.9528
 4532TIP3    H235012   5.606   3.091  12.938 -1.4623 -1.8837  1.1134
 4533TIP3   OH235013   6.133   2.192   4.503  0.0671 -0.4152 -0.5789
 4533TIP3    H135014   6.190   2.260   4.465  1.5439 -1.5978 -0.5968
 4533TIP3    H235015   6.095   2.148   4.427 -0.4458  0.0367 -0.5819
 4534TIP3   OH235016   4.703   6.060  10.911  0.2042  0.4642 -0.2105
 4534TIP3    H135017   4.782   6.055  10.856  0.0917  1.8088 -0.5249
 4534TIP3    H235018   4.734   6.095  10.994 -0.0568  1.0059 -0.3381
 4535TIP3   OH235019   5.898   3.967  11.735  0.4101 -0.0215 -0.8312
 4535TIP3    H135020   5.856   3.891  11.695  0.1085  0.4313 -1.3894
 4535TIP3    H235021   5.853   3.979  11.819  1.4899 -1.3805 -0.0063
 4536TIP3   OH235022   6.503   1.726   5.235 -0.2934  0.0986  0.3741
 4536TIP3    H135023   6.592   1.719   5.201 -0.8089 -1.0517 -0.7922
 4536TIP3    H235024   6.497   1.817   5.266  1.8029 -0.2356  2.0494
 4537TIP3   OH235025   4.071   6.250  13.651 -0.7634 -0.3784  0.9934
 4537TIP3    H135026   4.078   6.216  13.740  2.1079  1.0199  1.4292
 4537TIP3    H235027   4.047   6.342  13.662  2.2720  0.5834  0.6515
 4538TIP3   OH235028   5.339   0.073  12.219 -0.5654 -0.0225 -0.7646
 4538TIP3    H135029   5.419   0.046  12.264  0.4016 -0.6512 -2.7377
 4538TIP3    H235030   5.312  -0.004  12.169 -0.9312  0.9527 -2.1391
 4539TIP3   OH235031   0.629   2.112  17.107 -0.3282 -0.2890 -0.0332
 4539TIP3    H135032   0.616   2.035  17.162 -1.4361  0.8515  1.3739
 4539TIP3    H235033   0.542   2.131  17.071  0.1424 -0.2961 -1.2234
 4540TIP3   OH235034   4.325   6.436   4.654  0.2661  0.6911  0.0849
 4540TIP3    H135035   4.405   6.401   4.694  0.4123  0.1989 -0.6135
 4540TIP3    H235036   4.293   6.365   4.598 -1.9330  0.0101  2.0639
 4541TIP3   OH235037   1.656   0.684   3.625 -0.6077 -0.1394  0.1028
 4541TIP3    H135038   1.742   0.718   3.648 -0.9156 -0.4925  1.9624
 4541TIP3    H235039   1.637   0.722   3.540 -0.1029  2.7346  1.1804
 4542TIP3   OH235040   6.424   3.595   2.763 -0.4683  0.2023  0.0962
 4542TIP3    H135041   6.490   3.627   2.823  1.2499 -0.5174 -1.3181
 4542TIP3    H235042   6.368   3.671   2.745  0.2218  0.9358  0.9872
 4543TIP3   OH235043   4.712   5.176  12.985  0.5587 -0.1482 -0.4320
 4543TIP3    H135044   4.792   5.186  13.037  0.5860  1.0216 -0.6855
 4543TIP3    H235045   4.641   5.184  13.048  0.6195 -0.1752 -0.3599
 4544TIP3   OH235046   6.309   2.664  15.983  0.4016 -0.4742  0.0957
 4544TIP3    H135047   6.269   2.751  15.988  1.3722  0.0064 -0.1990
 4544TIP3    H235048   6.277   2.619  16.060 -2.6358 -0.9865 -1.3295
 4545TIP3   OH235049   1.170   4.200   0.283 -0.2148 -0.0533  0.3493
 4545TIP3    H135050   1.257   4.233   0.307 -0.0162 -1.3336  1.4722
 4545TIP3    H235051   1.188   4.129   0.221 -0.5034  0.0877  0.1018
 4546TIP3   OH235052   6.449   2.415   2.474  0.2536 -0.0114  0.4190
 4546TIP3    H135053   6.504   2.492   2.462  1.7624 -0.9714  0.9423
 4546TIP3    H235054   6.416   2.394   2.387 -1.0141  1.7961  0.4195
 4547TIP3   OH235055   2.133   1.700  11.242  0.3853 -0.6134  0.1228
 4547TIP3    H135056   2.174   1.787  11.248 -1.1123  0.2503 -1.2840
 4547TIP3    H235057   2.137   1.680  11.148 -1.3500 -1.0049  0.1146
 4548TIP3   OH235058   2.046   1.129  17.026 -0.0892  0.1081 -0.4504
 4548TIP3    H135059   2.039   1.035  17.046 -0.7398  0.6452  2.1746
 4548TIP3    H235060   2.138   1.142  17.006 -0.3808 -1.4663 -3.4237
 4549TIP3   OH235061   0.448   3.723  11.407  0.3735  0.0961 -0.3098
 4549TIP3    H135062   0.417   3.636  11.432  0.6414  0.1491  0.2434
 4549TIP3    H235063   0.534   3.706  11.367  0.8431  0.1710  0.6299
 4550TIP3   OH235064   6.431   0.289  14.102 -0.1038  0.3356 -0.4413
 4550TIP3    H135065   6.503   0.245  14.147 -0.2942  1.3932  0.9937
 4550TIP3    H235066   6.389   0.221  14.050  0.8473 -0.6857  0.0913
 4551TIP3   OH235067   1.190   1.074   2.233  0.6715  0.1848 -0.4638
 4551TIP3    H135068   1.224   1.149   2.282 -1.2844  1.0951 -0.4133
 4551TIP3    H235069   1.096   1.077   2.247  0.5318 -2.3175 -0.4642
 4552TIP3   OH235070   3.952   6.048  14.375 -0.2410 -1.2375  0.5963
 4552TIP3    H135071   3.972   6.141  14.367 -0.3116 -0.8727  3.3863
 4552TIP3    H235072   3.856   6.044  14.381 -0.1805 -1.0392  3.3207
 4553TIP3   OH235073   3.831   0.043   3.704  0.1411  0.0513 -0.1643
 4553TIP3    H135074   3.886   0.110   3.744 -1.0643 -0.6002  2.8235
 4553TIP3    H235075   3.742   0.069   3.726 -0.4826 -1.3432 -0.9168
 4554TIP3   OH235076   0.584   1.568  14.955  0.0997 -0.4498  0.1163
 4554TIP3    H135077   0.617   1.490  14.910 -1.4933 -0.4435 -1.1742
 4554TIP3    H235078   0.629   1.641  14.913 -1.1996 -0.4598 -1.4022
 4555TIP3   OH235079   0.255   3.956   2.597  0.0928 -0.2871 -0.6926
 4555TIP3    H135080   0.302   4.031   2.561  0.5428  0.3806  1.1578
 4555TIP3    H235081   0.165   3.967   2.565  0.3750  0.5039 -1.2390
 4556TIP3   OH235082   4.255   3.724   0.339 -0.2958 -0.0438 -0.3418
 4556TIP3    H135083   4.170   3.761   0.362 -1.3068 -2.0888 -0.5319
 4556TIP3    H235084   4.282   3.773   0.261 -1.1996  0.7664 -0.1652
 4557TIP3   OH235085   0.579   1.063   1.172 -0.0356 -0.1538  0.5347
 4557TIP3    H135086   0.503   1.054   1.230 -0.0482  0.5838  0.6441
 4557TIP3    H235087   0.632   0.985   1.190 -0.1904 -0.0908  1.3073
 4558TIP3   OH235088   0.220   6.293   5.514 -0.0430  0.1362 -0.0713
 4558TIP3    H135089   0.218   6.197   5.523  3.0178  0.1156  1.8622
 4558TIP3    H235090   0.309   6.317   5.537 -0.9446  3.5783  0.3532
 4559TIP3   OH235091   3.213   0.060  14.574  0.2782 -0.3488  0.3306
 4559TIP3    H135092   3.235   0.066  14.667  1.7995 -0.4195 -0.0013
 4559TIP3    H235093   3.214  -0.033  14.555 -1.2214 -0.4238  0.4816
 4560TIP3   OH235094   6.364   1.678   1.348 -0.3941 -0.7411 -0.0039
 4560TIP3    H135095   6.317   1.753   1.384 -0.5607 -0.5781 -0.5545
 4560TIP3    H235096   6.450   1.712   1.323  0.0921 -1.0718  1.1422
 4561TIP3   OH235097   6.329   0.936   5.671  0.5366 -0.2284  0.2900
 4561TIP3    H135098   6.234   0.923   5.679  0.2332  2.3032  1.9742
 4561TIP3    H235099   6.367   0.877   5.735  0.0570 -0.8244  0.0317
 4562TIP3   OH235100   2.011   4.188  12.011  0.2449  0.1449  0.1756
 4562TIP3    H135101   1.954   4.253  11.969  2.0237  1.3889 -0.4737
 4562TIP3    H235102   2.048   4.235  12.086 -0.9199 -1.2338  1.6826
 4563TIP3   OH235103   2.243   4.833   6.572  0.4281  0.0356 -0.3284
 4563TIP3    H135104   2.265   4.926   6.566  2.7890 -0.5178 -1.4324
 4563TIP3    H235105   2.153   4.832   6.605  0.6554  2.6652  0.6539
 4564TIP3   OH235106   3.012   1.153   5.815  0.2980 -0.8737 -0.4629
 4564TIP3    H135107   3.047   1.227   5.864  1.3350 -1.3885 -0.4063
 4564TIP3    H235108   3.001   1.083   5.879 -5.3775  0.5156  0.6554
 4565TIP3   OH235109   0.891   1.686   3.738  0.6923 -0.2704  0.0104
 4565TIP3    H135110   0.858   1.729   3.816 -0.0618 -0.4461 -0.2045
 4565TIP3    H235111   0.917   1.758   3.680 -1.2419 -0.0412 -0.6434
 4566TIP3   OH235112   6.660   3.155  16.793 -0.1262 -0.4953 -0.2064
 4566TIP3    H135113   6.642   3.221  16.726 -0.0101  0.7645  0.9591
 4566TIP3    H235114   6.752   3.170  16.816 -0.5114 -0.0799  1.1041
 4567TIP3   OH235115   6.499   0.852  17.052 -0.3100 -0.4610 -0.3029
 4567TIP3    H135116   6.567   0.891  17.107  0.0157 -1.2709 -0.1210
 4567TIP3    H235117   6.421   0.904  17.070  0.5529  1.3652 -1.5435
 4568TIP3   OH235118   4.938   2.155   2.139  0.6660  0.2079 -0.2380
 4568TIP3    H135119   4.966   2.246   2.154  0.0286  0.5440 -0.9833
 4568TIP3    H235120   4.899   2.157   2.052  0.2691 -0.7042 -0.0876
 4569TIP3   OH235121   5.830   6.264   1.901  0.6531  0.0584  0.2249
 4569TIP3    H135122   5.811   6.170   1.895 -0.2018  0.3243 -1.9149
 4569TIP3    H235123   5.909   6.276   1.848  0.3185  0.6458 -0.1550
 4570TIP3   OH235124   0.971   2.534   3.770 -0.0393  0.1638 -0.1758
 4570TIP3    H135125   1.042   2.473   3.746  0.5598  0.6688  0.2831
 4570TIP3    H235126   0.949   2.510   3.860  1.1454  1.4769  0.5128
 4571TIP3   OH235127   6.299   4.067   4.973  0.6318  0.2448 -0.2409
 4571TIP3    H135128   6.236   3.995   4.965 -0.1768  0.9824 -0.8038
 4571TIP3    H235129   6.375   4.028   5.016 -0.1077 -0.7405  0.2265
 4572TIP3   OH235130   5.050   3.883  14.047  0.7476 -0.3419 -0.1020
 4572TIP3    H135131   5.122   3.892  14.109  0.1992 -2.2516  0.8878
 4572TIP3    H235132   5.086   3.831  13.975  0.3628 -1.4681  0.4854
 4573TIP3   OH235133   1.816   1.117  12.734  0.2499 -0.3602 -0.2981
 4573TIP3    H135134   1.895   1.073  12.766 -0.0472  0.1247  1.2102
 4573TIP3    H235135   1.785   1.167  12.809 -2.0333 -1.2848 -0.5477
 4574TIP3   OH235136   2.361   5.859  13.986 -0.7503  0.0482  0.2008
 4574TIP3    H135137   2.316   5.786  13.943  2.2610 -0.7911 -1.8494
 4574TIP3    H235138   2.377   5.828  14.075 -0.6528 -1.2814 -0.2602
 4575TIP3   OH235139   1.673   6.311  14.352  0.8265 -0.1382  0.0988
 4575TIP3    H135140   1.702   6.340  14.438 -1.8569  1.4699  0.6006
 4575TIP3    H235141   1.675   6.216  14.355  3.1164 -0.0993  1.0187
 4576TIP3   OH235142   0.838   0.493   6.402  0.4189  0.7753 -0.0059
 4576TIP3    H135143   0.887   0.419   6.366  2.1239  1.8725 -0.0677
 4576TIP3    H235144   0.906   0.557   6.426 -0.8275  1.3765  2.2456
 4577TIP3   OH235145   5.930   5.067   2.478  0.3995 -0.0967 -0.1745
 4577TIP3    H135146   5.856   5.010   2.456  1.3160 -0.9515 -1.1288
 4577TIP3    H235147   5.967   5.093   2.394 -0.0622  2.0481  0.2251
 4578TIP3   OH235148   5.997   2.753   2.925 -0.6978  0.2752 -0.0904
 4578TIP3    H135149   6.074   2.706   2.892 -1.1933  0.4972 -1.6961
 4578TIP3    H235150   5.925   2.722   2.870 -1.5284  0.9665  0.5788
 4579TIP3   OH235151   0.359   4.434  12.828  0.1228  0.2608  0.2768
 4579TIP3    H135152   0.279   4.437  12.776  0.2590 -0.3940  0.0216
 4579TIP3    H235153   0.423   4.390  12.772 -0.0249 -1.4395  1.3769
 4580TIP3   OH235154   5.531   5.535   2.989  0.1988 -0.3148 -0.4601
 4580TIP3    H135155   5.620   5.509   3.012  0.0596 -1.0019 -0.6790
 4580TIP3    H235156   5.534   5.631   2.985  0.2003 -0.1087  2.4907
 4581TIP3   OH235157   6.290   1.514   3.367 -0.3529 -0.6491 -0.0106
 4581TIP3    H135158   6.335   1.565   3.434 -0.3358  0.4292 -0.8130
 4581TIP3    H235159   6.360   1.464   3.324  0.4133  2.0192 -2.1427
 4582TIP3   OH235160   1.789   2.875   5.519 -0.2538 -0.3029 -0.0165
 4582TIP3    H135161   1.869   2.913   5.557 -0.4271  0.3845 -0.3331
 4582TIP3    H235162   1.816   2.845   5.432 -0.1960 -0.6289  0.1112
 4583TIP3   OH235163   4.721   1.499   2.153  0.1973 -0.3000  0.4203
 4583TIP3    H135164   4.802   1.472   2.197  0.2267 -1.2031 -0.1522
 4583TIP3    H235165   4.659   1.429   2.173 -0.3819  0.2679  0.6545
 4584TIP3   OH235166   5.339   1.976   5.930 -0.0162  0.2113  0.0980
 4584TIP3    H135167   5.423   2.016   5.950  0.0623 -0.0339  0.2645
 4584TIP3    H235168   5.360   1.887   5.901 -0.3183 -0.5253  2.0032
 4585TIP3   OH235169   2.311   4.220  11.736  0.0116  0.5657  0.4484
 4585TIP3    H135170   2.335   4.238  11.827 -1.5601  2.7952  0.5007
 4585TIP3    H235171   2.218   4.243  11.731 -0.7709 -2.3952 -1.0416
 4586TIP3   OH235172   6.010   0.821   0.581 -0.1342  0.4727 -0.3868
 4586TIP3    H135173   6.055   0.739   0.603 -0.9340 -0.0223 -0.5365
 4586TIP3    H235174   6.064   0.890   0.619  0.8480 -0.0876 -0.7319
 4587TIP3   OH235175   5.933   5.566   2.080 -0.2935 -0.2347 -0.4672
 4587TIP3    H135176   5.935   5.540   2.173 -0.1958  0.0040 -0.4027
 4587TIP3    H235177   5.870   5.638   2.077  0.6555  0.6274 -0.3610
 4588TIP3   OH235178   0.305   5.980   1.691  0.0438  0.6887  0.3642
 4588TIP3    H135179   0.270   5.916   1.753 -1.5312  1.6582  0.5167
 4588TIP3    H235180   0.397   5.989   1.716 -0.6590  1.5042  3.0297
 4589TIP3   OH235181   1.357   0.034   4.190  0.3764  0.1668  0.1496
 4589TIP3    H135182   1.396   0.067   4.271  0.5887  1.7605 -0.5623
 4589TIP3    H235183   1.414  -0.039   4.163  0.3995 -0.2692  1.3184
 4590TIP3   OH235184   4.663   6.626   2.225 -0.1222 -0.0043 -0.2739
 4590TIP3    H135185   4.618   6.586   2.150 -1.0100  1.0026 -0.3079
 4590TIP3    H235186   4.724   6.689   2.186 -0.0353 -0.0268 -0.1755
 4591TIP3   OH235187   3.806   1.570  14.700 -0.7208  0.5367  0.2351
 4591TIP3    H135188   3.856   1.616  14.633 -0.0871  0.3161  0.5483
 4591TIP3    H235189   3.766   1.497  14.654 -0.6652  0.6509  0.0033
 4592TIP3   OH235190   3.704   6.265   1.536 -0.4204 -0.1472 -0.2088
 4592TIP3    H135191   3.639   6.310   1.590  0.9713  0.4519  1.0153
 4592TIP3    H235192   3.716   6.322   1.460 -1.5236 -0.4202 -0.6178
 4593TIP3   OH235193   5.948   1.580  12.927  0.1470 -0.0437  0.4590
 4593TIP3    H135194   5.977   1.664  12.893 -0.3122 -0.0752 -0.0239
 4593TIP3    H235195   5.867   1.600  12.975  0.0235 -0.2076  0.3238
 4594TIP3   OH235196   4.345   6.174  16.330 -0.1783  0.0091  0.4752
 4594TIP3    H135197   4.331   6.183  16.424 -1.5042  0.3320  0.2719
 4594TIP3    H235198   4.291   6.244  16.291 -1.6663 -1.6512 -0.6179
 4595TIP3   OH235199   2.023   5.147   5.835  0.5854  0.0814 -0.2092
 4595TIP3    H135200   1.965   5.075   5.811 -1.3783  1.1937  0.9496
 4595TIP3    H235201   2.066   5.171   5.753 -1.7519  0.1840 -1.4904
 4596TIP3   OH235202   6.559   5.512  13.886  0.0677  0.1000 -0.3649
 4596TIP3    H135203   6.540   5.429  13.929  1.3081  0.2681  0.5655
 4596TIP3    H235204   6.512   5.577  13.939  0.7737  0.1972  0.1589
 4597TIP3   OH235205   4.141   1.301   1.542  0.6218  0.3379  0.2068
 4597TIP3    H135206   4.211   1.280   1.604  0.7822  0.1962 -0.0172
 4597TIP3    H235207   4.187   1.337   1.466  0.4244  0.5433  0.1846
 4598TIP3   OH235208   5.124   0.746   2.465  0.5912 -0.0231  0.1639
 4598TIP3    H135209   5.055   0.716   2.406  0.1056  1.2963  0.0187
 4598TIP3    H235210   5.093   0.722   2.552  0.1809  0.1200  0.0592
 4599TIP3   OH235211   3.231   1.306   2.840 -0.5816  0.1050  0.0971
 4599TIP3    H135212   3.147   1.339   2.873 -1.4479 -0.2072 -1.7030
 4599TIP3    H235213   3.249   1.229   2.893 -0.7392  0.9257  1.3939
 4600TIP3   OH235214   3.152   4.485  16.910  0.6749 -0.3729 -0.0156
 4600TIP3    H135215   3.188   4.511  16.825  0.7884 -0.8559 -0.1180
 4600TIP3    H235216   3.088   4.418  16.889  0.7149 -0.5057  0.2846
 4601TIP3   OH235217   5.421   5.114  12.650  0.0961 -0.1885  0.0291
 4601TIP3    H135218   5.363   5.180  12.614 -0.5382 -0.3931  0.6618
 4601TIP3    H235219   5.449   5.149  12.734  0.2678 -0.4384  0.0792
 4602TIP3   OH235220   5.957   5.654  12.396  0.0572 -0.2248 -0.0206
 4602TIP3    H135221   5.971   5.574  12.448 -1.5713 -1.6524 -1.6126
 4602TIP3    H235222   5.904   5.624  12.322 -1.0457  2.4540 -0.4049
 4603TIP3   OH235223   0.010   4.344   1.706  0.1412  0.1043 -0.2616
 4603TIP3    H135224  -0.015   4.253   1.722  1.0184 -0.2943 -1.0924
 4603TIP3    H235225  -0.032   4.367   1.624  0.3987  0.2659 -0.3488
 4604TIP3   OH235226   1.412   5.171   1.258  0.0602  0.1525 -0.3616
 4604TIP3    H135227   1.325   5.133   1.245  0.6164 -1.1960 -0.3149
 4604TIP3    H235228   1.421   5.179   1.353  0.9327 -2.1304 -0.1901
 4605TIP3   OH235229   3.583   0.579  16.865 -0.2570 -0.0967 -0.1638
 4605TIP3    H135230   3.576   0.494  16.908  1.5852  0.0211  0.4275
 4605TIP3    H235231   3.531   0.638  16.920  0.1794 -0.4197  0.6052
 4606TIP3   OH235232   2.203   3.636  11.727 -0.0109 -0.2009  0.5577
 4606TIP3    H135233   2.234   3.635  11.637  1.3114 -0.8244  0.9967
 4606TIP3    H235234   2.126   3.579  11.727  0.6872 -1.1752  0.0431
 4607TIP3   OH235235   5.401   2.673  16.147  0.0094  0.1942 -0.0695
 4607TIP3    H135236   5.489   2.674  16.186  0.9371 -0.8845 -1.9953
 4607TIP3    H235237   5.384   2.764  16.124  0.5402  0.4414  0.4784
 4608TIP3   OH235238   4.455   4.614   1.448  0.4524 -0.5665  0.5330
 4608TIP3    H135239   4.430   4.546   1.386 -1.9744  0.3315  0.4114
 4608TIP3    H235240   4.500   4.568   1.519  0.3116 -2.0487 -0.3130
 4609TIP3   OH235241   5.550   3.782  15.366  0.3758  0.2424  0.3061
 4609TIP3    H135242   5.538   3.719  15.437 -0.3811  2.2625  2.0885
 4609TIP3    H235243   5.474   3.841  15.373  0.9103  1.2153 -1.4177
 4610TIP3   OH235244   1.866   3.518   2.825  0.0911  0.4099 -0.2191
 4610TIP3    H135245   1.903   3.558   2.904  0.4650  0.9293 -0.6526
 4610TIP3    H235246   1.854   3.426   2.849  0.2291  0.5519  0.4328
 4611TIP3   OH235247   3.199   5.464  13.284 -0.2989 -0.2532  0.1047
 4611TIP3    H135248   3.121   5.513  13.310 -0.7914 -0.8562 -0.2349
 4611TIP3    H235249   3.174   5.372  13.290  0.3421 -0.4513 -0.1348
 4612TIP3   OH235250   6.202   0.929   6.262  0.2087  0.0115 -0.2754
 4612TIP3    H135251   6.254   0.919   6.343 -1.5689  0.6016  0.9996
 4612TIP3    H235252   6.209   1.021   6.240 -0.2175  0.0775 -0.1443
 4613TIP3   OH235253   4.259   6.231  14.892  0.0392  0.5341 -0.2153
 4613TIP3    H135254   4.176   6.215  14.938 -0.5077 -0.8764 -1.6283
 4613TIP3    H235255   4.321   6.169  14.930  0.3955  1.3857  0.6332
 4614TIP3   OH235256   1.050   6.285  12.035  0.3689 -0.1505  0.4109
 4614TIP3    H135257   1.094   6.312  12.115 -1.3379 -0.7586  1.6060
 4614TIP3    H235258   1.073   6.352  11.971  1.2770  0.6775  1.5675
 4615TIP3   OH235259   4.282   4.237  16.179  0.0926  0.4680  0.0857
 4615TIP3    H135260   4.224   4.308  16.206  0.6570  0.5086  1.2464
 4615TIP3    H235261   4.370   4.269  16.199  0.3117 -0.9193  1.5655
 4616TIP3   OH235262   0.472   6.038  14.894  0.2963 -0.1298  0.3313
 4616TIP3    H135263   0.550   6.069  14.849 -1.4767  1.0843 -2.1518
 4616TIP3    H235264   0.478   5.943  14.889  2.1977 -0.1192  1.3849
 4617TIP3   OH235265   3.009   5.066   5.753  0.1681  0.3688 -0.6082
 4617TIP3    H135266   3.017   5.095   5.662 -1.2496  0.6186 -0.6713
 4617TIP3    H235267   3.088   5.099   5.795  1.7325 -1.2209 -2.0959
 4618TIP3   OH235268   6.673   3.199   0.420  0.8400 -0.1930 -0.0736
 4618TIP3    H135269   6.616   3.132   0.382 -0.9163  0.0939  1.8449
 4618TIP3    H235270   6.695   3.256   0.347  1.0070 -1.9224 -1.4254
 4619TIP3   OH235271   5.186   5.986   2.953 -0.2551 -0.3466 -0.3635
 4619TIP3    H135272   5.165   5.947   2.868 -2.0778  1.9317 -1.0485
 4619TIP3    H235273   5.270   6.028   2.940 -1.7159  2.3274 -2.0106
 4620TIP3   OH235274   2.095   2.375  11.357  0.1786  0.6119 -0.1616
 4620TIP3    H135275   2.130   2.463  11.371  3.1673 -0.5666  0.5224
 4620TIP3    H235276   2.070   2.373  11.265 -0.1584  2.2022 -0.1396
 4621TIP3   OH235277   3.786   1.782   1.134  0.2838  0.0127  0.5483
 4621TIP3    H135278   3.764   1.735   1.215  0.4207  0.5241  0.8900
 4621TIP3    H235279   3.762   1.873   1.153 -0.7023 -0.0369 -0.3735
 4622TIP3   OH235280   4.801   3.726   3.037 -0.2548  0.3664 -0.7719
 4622TIP3    H135281   4.842   3.809   3.012 -1.1626  0.6903 -1.2260
 4622TIP3    H235282   4.872   3.662   3.032  0.5433  1.1623 -0.0775
 4623TIP3   OH235283   3.561   1.502  16.845 -0.2636  0.0404 -0.1511
 4623TIP3    H135284   3.570   1.445  16.770  1.9009 -0.4213  0.3950
 4623TIP3    H235285   3.518   1.448  16.912 -0.2305 -0.2344 -0.3535
 4624TIP3   OH235286   1.929   6.382  14.121 -0.0208  0.1382 -0.1089
 4624TIP3    H135287   1.907   6.294  14.152  1.0999  0.5705  2.1185
 4624TIP3    H235288   1.881   6.441  14.179  0.8794  0.9992 -0.2085
 4625TIP3   OH235289   5.952   4.225   1.986 -0.4282 -0.2881  0.0534
 4625TIP3    H135290   5.924   4.133   1.984  0.1988 -0.4881  0.1155
 4625TIP3    H235291   5.886   4.269   2.039 -0.8693 -0.6558 -0.1841
 4626TIP3   OH235292   4.462   0.365   0.224 -0.3836  0.0017  0.4905
 4626TIP3    H135293   4.425   0.391   0.140 -0.3423 -0.1010  0.4410
 4626TIP3    H235294   4.543   0.416   0.232  0.0232 -0.5708  0.1088
 4627TIP3   OH235295   0.029   4.469   2.318 -0.2828  0.2894  0.1951
 4627TIP3    H135296   0.034   4.394   2.259  0.9022 -0.3497  1.0691
 4627TIP3    H235297   0.116   4.476   2.356  0.3831  3.5428 -1.5311
 4628TIP3   OH235298   3.521   6.778   4.562 -0.3373 -0.2016  0.2462
 4628TIP3    H135299   3.556   6.778   4.652 -2.8995  1.1081  1.3427
 4628TIP3    H235300   3.435   6.737   4.570 -2.5746  3.7963 -0.6512
 4629TIP3   OH235301   6.435   1.268  14.394  0.0248  0.0577 -0.3572
 4629TIP3    H135302   6.358   1.319  14.418 -0.9754 -0.9809 -1.2367
 4629TIP3    H235303   6.493   1.331  14.351 -0.3286  0.8431  0.2961
 4630TIP3   OH235304   0.744   5.174   4.415  0.1879  0.0239  0.0021
 4630TIP3    H135305   0.727   5.268   4.408  3.3540  0.6709 -0.6473
 4630TIP3    H235306   0.747   5.143   4.324  1.3026 -0.1810  0.0860
 4631TIP3   OH235307   1.062   1.638  11.375 -0.4469  0.5035 -0.0973
 4631TIP3    H135308   1.054   1.599  11.287 -0.0742  0.8011 -0.2646
 4631TIP3    H235309   0.984   1.607  11.421  0.5537 -1.7077  0.2864
 4632TIP3   OH235310   2.672   3.515   6.707 -0.1162 -0.0359 -0.0857
 4632TIP3    H135311   2.577   3.499   6.708 -0.3887  1.4488  0.6732
 4632TIP3    H235312   2.709   3.436   6.669 -1.7926  0.0004 -2.0179
 4633TIP3   OH235313   4.275   4.070   0.980  0.0105 -0.3797  0.1519
 4633TIP3    H135314   4.312   4.023   1.055  1.1561 -0.9666 -0.7474
 4633TIP3    H235315   4.345   4.067   0.914 -1.2595 -0.5640 -1.2189
 4634TIP3   OH235316   3.683   3.403   2.788  0.4129  0.8924 -0.0956
 4634TIP3    H135317   3.639   3.469   2.734 -0.6524  1.2256  1.1103
 4634TIP3    H235318   3.728   3.346   2.726 -3.4165 -0.7768 -1.6736
 4635TIP3   OH235319   0.607   1.369   0.981 -0.1034 -0.2964  0.1018
 4635TIP3    H135320   0.640   1.327   0.901  2.2870  0.6500  0.4898
 4635TIP3    H235321   0.572   1.453   0.951 -3.1252 -1.6161 -0.4183
 4636TIP3   OH235322   1.128   4.248  16.919 -0.3411 -0.2162  0.2651
 4636TIP3    H135323   1.089   4.161  16.924  0.0158 -0.3224  1.3517
 4636TIP3    H235324   1.078   4.301  16.981 -0.6868  0.4150 -0.5337
 4637TIP3   OH235325   2.386   1.155  11.583  0.0093  1.0480  0.8012
 4637TIP3    H135326   2.374   1.227  11.645 -0.3003  0.2975  1.6317
 4637TIP3    H235327   2.441   1.092  11.629 -1.1866 -0.0547  0.7756
 4638TIP3   OH235328   0.007   2.890   0.797 -0.2979  0.4280 -0.0533
 4638TIP3    H135329   0.052   2.908   0.715  0.3524  0.9494  0.4048
 4638TIP3    H235330   0.057   2.938   0.863 -1.0545  0.3623  0.5905
 4639TIP3   OH235331   6.428   4.415  11.791 -0.0438 -0.1609 -0.4635
 4639TIP3    H135332   6.385   4.469  11.857  1.2129 -0.1460  0.3749
 4639TIP3    H235333   6.448   4.476  11.719  1.0534  0.4587  0.3301
 4640TIP3   OH235334   2.552   2.197   4.455  0.2948 -0.2749  0.9673
 4640TIP3    H135335   2.518   2.113   4.423  0.1013 -0.7940  2.4597
 4640TIP3    H235336   2.618   2.223   4.391 -3.0896  0.9872 -2.3732
 4641TIP3   OH235337   3.887   1.366  16.421 -0.4388 -0.2158 -0.5006
 4641TIP3    H135338   3.854   1.336  16.506  0.3127 -1.0481 -0.4909
 4641TIP3    H235339   3.947   1.298  16.393  2.7917  2.0397  0.3548
 4642TIP3   OH235340   1.316   5.009  11.631  0.1942  0.9620  0.7848
 4642TIP3    H135341   1.281   4.947  11.566  0.9480  2.2128 -0.8888
 4642TIP3    H235342   1.241   5.064  11.655 -0.0240  0.6759  0.7662
 4643TIP3   OH235343   6.646   2.800  15.371 -0.4589 -0.5591 -0.2379
 4643TIP3    H135344   6.662   2.831  15.460 -0.6889  2.1528 -1.0575
 4643TIP3    H235345   6.551   2.796  15.363 -0.4574 -0.0247 -0.5833
 4644TIP3   OH235346   2.144   2.176   5.937  0.2759  0.1281 -0.4418
 4644TIP3    H135347   2.096   2.168   5.855  1.1625  0.9229 -1.0566
 4644TIP3    H235348   2.192   2.258   5.929  0.7351 -0.0129  0.6789
 4645TIP3   OH235349   1.907   5.222   3.821  0.3123 -0.2931 -0.2194
 4645TIP3    H135350   1.833   5.283   3.816  1.0952  0.7283  0.2759
 4645TIP3    H235351   1.891   5.159   3.751  0.2681  1.4001 -1.8048
 4646TIP3   OH235352   2.958   1.994  15.703 -0.8249  0.6035  0.2292
 4646TIP3    H135353   2.987   2.069  15.755 -1.6788  3.0978 -2.6723
 4646TIP3    H235354   2.863   2.004  15.698 -0.7533  0.5214 -1.8699
 4647TIP3   OH235355   5.334   5.129   3.858  0.5996 -0.0818 -0.3801
 4647TIP3    H135356   5.419   5.101   3.893 -0.2078  0.1736  1.9947
 4647TIP3    H235357   5.292   5.049   3.828  0.7537 -0.5614  0.6519
 4648TIP3   OH235358   4.149   1.475  16.311 -0.2262  0.4318 -0.2200
 4648TIP3    H135359   4.115   1.557  16.275  0.4249  0.7086 -0.2242
 4648TIP3    H235360   4.081   1.445  16.372  0.1749  1.7677  0.9356
 4649TIP3   OH235361   0.192   0.177   3.100 -0.3320  0.0883 -0.0614
 4649TIP3    H135362   0.230   0.263   3.119 -1.9440  0.7319  0.4481
 4649TIP3    H235363   0.147   0.189   3.016  0.7263 -0.7169 -0.7674
 4650TIP3   OH235364   6.399   0.010   3.418  0.0395  0.5933  0.2935
 4650TIP3    H135365   6.461   0.052   3.358  1.4894 -0.9530  0.6101
 4650TIP3    H235366   6.382  -0.075   3.378 -1.6127  0.8328  0.4318
 4651TIP3   OH235367   5.769   6.804   4.488 -0.6135 -0.6574 -0.2905
 4651TIP3    H135368   5.703   6.829   4.423 -1.8685 -0.2479  1.0723
 4651TIP3    H235369   5.774   6.880   4.546 -1.6417 -2.0571  1.7260
 4652TIP3   OH235370   4.013   5.793  14.059  0.5627  0.8523 -0.3338
 4652TIP3    H135371   4.060   5.773  13.978  2.7521  0.8017  0.8686
 4652TIP3    H235372   3.942   5.728  14.062  2.4753 -1.3890 -0.5887
 4653TIP3   OH235373   2.294   3.419   4.557  0.2089 -0.0579 -0.3851
 4653TIP3    H135374   2.368   3.359   4.561  0.9210  0.8588  0.6344
 4653TIP3    H235375   2.233   3.386   4.624  0.5427  0.2613  0.0841
 4654TIP3   OH235376   6.123   0.363  14.409  0.0594  0.4245 -0.0159
 4654TIP3    H135377   6.146   0.402  14.493 -2.4553  0.5770  0.6944
 4654TIP3    H235378   6.090   0.436  14.356 -1.7328 -0.1578  0.2073
 4655TIP3   OH235379   5.202   2.760   4.845  0.0003  0.6831  0.2738
 4655TIP3    H135380   5.147   2.683   4.835  0.0516  0.6172  0.4868
 4655TIP3    H235381   5.288   2.732   4.815 -0.0505  0.7427  0.0774
 4656TIP3   OH235382   6.622   6.200  14.604  0.2513 -0.4681  0.8218
 4656TIP3    H135383   6.662   6.265  14.547  0.3018 -1.3821 -0.2083
 4656TIP3    H235384   6.644   6.116  14.565 -0.1478 -1.1062  1.9106
 4657TIP3   OH235385   1.361   0.448  17.101 -0.2708  0.2739  0.2417
 4657TIP3    H135386   1.409   0.471  17.181  0.1449 -1.8695  0.6928
 4657TIP3    H235387   1.396   0.507  17.035  0.6770  0.9205  1.2662
 4658TIP3   OH235388   4.651   0.231   1.777  0.2288 -0.0766  0.1546
 4658TIP3    H135389   4.656   0.246   1.872  0.1549 -1.4766  0.3935
 4658TIP3    H235390   4.656   0.136   1.767 -2.6228 -0.2219 -1.0378
 4659TIP3   OH235391   0.067   5.128   5.950 -0.0651  0.0466 -0.4895
 4659TIP3    H135392   0.156   5.148   5.919  0.8238 -2.4964  0.1697
 4659TIP3    H235393   0.075   5.121   6.045 -0.5995 -1.7024 -0.5401
 4660TIP3   OH235394   0.283   4.010   2.941 -0.0931  0.1266  0.4738
 4660TIP3    H135395   0.192   4.038   2.947 -0.3201 -0.6329  0.6906
 4660TIP3    H235396   0.278   3.921   2.906  0.6234  0.4274 -0.4383
 4661TIP3   OH235397   4.666   3.402   5.905 -0.1188 -0.7480  0.5627
 4661TIP3    H135398   4.675   3.466   5.976  2.2533  0.1387 -0.4390
 4661TIP3    H235399   4.682   3.317   5.947  1.5202 -0.2163  1.1081
 4662TIP3   OH235400   5.397   3.964  12.446  0.3815  0.3362  0.3134
 4662TIP3    H135401   5.388   3.886  12.391 -0.8260  0.3218  0.5066
 4662TIP3    H235402   5.359   4.034  12.393 -0.3536  0.4088  0.9274
 4663TIP3   OH235403   1.587   4.485  13.946  0.5094  0.3368 -0.2831
 4663TIP3    H135404   1.639   4.420  13.995 -1.4566 -1.2730 -0.2143
 4663TIP3    H235405   1.502   4.485  13.989 -0.2878  1.1970 -1.7895
 4664TIP3   OH235406   3.758   5.657   2.310  0.5040  0.1024 -0.1422
 4664TIP3    H135407   3.809   5.639   2.231  0.6196 -0.9652  0.1624
 4664TIP3    H235408   3.671   5.622   2.292  1.0676 -1.9892  0.9095
 4665TIP3   OH235409   6.312   0.716   6.077  0.3738  0.3989  0.0769
 4665TIP3    H135410   6.376   0.760   6.132  1.0956 -1.9635  1.2713
 4665TIP3    H235411   6.227   0.746   6.109  0.7972 -0.3019  2.0146
 4666TIP3   OH235412   0.679   2.524  11.541  0.6712 -0.4493 -0.0092
 4666TIP3    H135413   0.764   2.527  11.498  0.4327  0.6002 -0.4385
 4666TIP3    H235414   0.624   2.472  11.483  0.0991  1.7032 -1.5093
 4667TIP3   OH235415   5.976   1.208  10.771  0.0914 -0.0335 -0.3055
 4667TIP3    H135416   5.955   1.134  10.827  0.7506 -1.1299 -1.4722
 4667TIP3    H235417   6.032   1.172  10.703  2.2710  1.9126  0.2944
 4668TIP3   OH235418   5.782   0.341  15.590  0.1235 -0.2356 -0.5201
 4668TIP3    H135419   5.858   0.289  15.566  1.3182  0.8737  0.6849
 4668TIP3    H235420   5.756   0.307  15.676 -0.3244 -0.1458 -0.6156
 4669TIP3   OH235421   2.523   2.962   3.273  0.1564 -0.6136 -0.2226
 4669TIP3    H135422   2.463   2.967   3.348 -0.4555 -0.2450 -0.7293
 4669TIP3    H235423   2.469   2.929   3.201  0.4417  0.1335 -0.7974
 4670TIP3   OH235424   0.626   0.875  15.831 -0.7324  0.3263 -0.1401
 4670TIP3    H135425   0.622   0.788  15.790  1.1011  0.5370 -0.8589
 4670TIP3    H235426   0.667   0.931  15.765 -0.7414  1.4499  0.7749
 4671TIP3   OH235427   0.082   2.307   3.614  0.0723  0.3374  0.5397
 4671TIP3    H135428   0.004   2.296   3.669  0.3539 -0.8750  0.7354
 4671TIP3    H235429   0.105   2.217   3.588  3.2627  0.2669  3.0653
 4672TIP3   OH235430   6.410   4.718  16.122 -0.4270 -0.3247 -1.1665
 4672TIP3    H135431   6.379   4.648  16.066 -1.8213  0.3784 -1.3034
 4672TIP3    H235432   6.428   4.791  16.063 -1.4507  0.2615 -0.7865
 4673TIP3   OH235433   0.146   0.729   4.145 -0.1461 -0.2642 -0.7054
 4673TIP3    H135434   0.093   0.769   4.215 -1.4818 -0.7428 -1.4005
 4673TIP3    H235435   0.180   0.804   4.095 -1.6498  0.0659 -1.2900
 4674TIP3   OH235436   3.170   4.824   1.110 -0.0916  0.2405 -0.3900
 4674TIP3    H135437   3.167   4.774   1.191  0.0697 -0.0430 -0.5558
 4674TIP3    H235438   3.143   4.761   1.042 -1.7259  0.8790 -0.3688
 4675TIP3   OH235439   2.764   3.468   5.961  0.3345  0.2745 -0.2548
 4675TIP3    H135440   2.810   3.516   6.030  1.8426  1.2465 -1.8300
 4675TIP3    H235441   2.810   3.493   5.880  0.2717 -2.7147 -1.3571
 4676TIP3   OH235442   3.016   1.825  17.038 -0.4559  0.4621 -0.3428
 4676TIP3    H135443   3.066   1.861  17.111  0.0905  0.4467 -0.6957
 4676TIP3    H235444   3.067   1.850  16.960 -1.5347  1.3156 -0.7910
 4677TIP3   OH235445   3.618   2.609   2.869  0.0233 -0.0975 -0.4877
 4677TIP3    H135446   3.581   2.527   2.901  1.5974 -0.4271  0.6443
 4677TIP3    H235447   3.562   2.677   2.906 -0.2255 -0.6077  0.1017
 4678TIP3   OH235448   1.953   0.357   0.329 -0.0199 -0.6564  0.0923
 4678TIP3    H135449   1.970   0.445   0.364 -0.5437 -0.3480 -0.4303
 4678TIP3    H235450   1.950   0.301   0.407 -2.3577  0.2007  0.7052
 4679TIP3   OH235451   6.774   3.437   4.756  0.3732 -0.1211 -0.6685
 4679TIP3    H135452   6.843   3.470   4.698  0.0973  0.2459 -0.7890
 4679TIP3    H235453   6.777   3.496   4.832  0.6195 -0.4962 -0.3797
 4680TIP3   OH235454   2.408   4.374  14.021 -0.5254  0.3501 -0.0328
 4680TIP3    H135455   2.348   4.449  14.026  0.3301  0.9441  2.9550
 4680TIP3    H235456   2.352   4.299  14.040 -0.5554  0.8143  1.9261
 4681TIP3   OH235457   1.493   4.697   3.581 -0.2952 -0.1890 -0.8101
 4681TIP3    H135458   1.412   4.647   3.593 -0.6282  0.2776 -1.1022
 4681TIP3    H235459   1.476   4.781   3.624 -0.5143  0.4720 -2.1292
 4682TIP3   OH235460   0.700   2.772   4.817  0.9163 -0.2176  0.1906
 4682TIP3    H135461   0.733   2.852   4.857  0.3401 -0.4335  1.1185
 4682TIP3    H235462   0.756   2.702   4.852  0.5775 -0.3741  0.4317
 4683TIP3   OH235463   5.985   5.900  11.386  0.6840  0.1408 -0.3405
 4683TIP3    H135464   5.927   5.876  11.314 -0.2065 -1.8959  0.9791
 4683TIP3    H235465   5.928   5.939  11.452  0.3934 -2.9742  1.4831
 4684TIP3   OH235466   3.442   5.476  10.975 -0.1564  0.2233 -0.1060
 4684TIP3    H135467   3.530   5.475  10.935  0.1307  1.9260  0.3874
 4684TIP3    H235468   3.391   5.533  10.917 -1.1023 -1.0997 -0.6311
 4685TIP3   OH235469   2.209   6.527   1.182  0.0420 -0.4559  0.0098
 4685TIP3    H135470   2.238   6.532   1.090 -0.6365  2.6838 -0.1493
 4685TIP3    H235471   2.173   6.613   1.200  0.3202 -0.9097  3.3357
 4686TIP3   OH235472   1.335   6.417   1.352 -0.1772  0.3110 -0.2020
 4686TIP3    H135473   1.396   6.395   1.282  0.7366  0.5118  0.5180
 4686TIP3    H235474   1.324   6.335   1.402 -1.5505 -0.0868 -1.0890
 4687TIP3   OH235475   6.147   4.753   3.639  1.2018 -0.6551 -0.3120
 4687TIP3    H135476   6.220   4.770   3.580  0.4888  0.7332 -0.8454
 4687TIP3    H235477   6.084   4.704   3.587  0.5217  0.6709 -0.7945
 4688TIP3   OH235478   1.942   6.142   2.818 -0.2186 -0.0206 -0.4906
 4688TIP3    H135479   1.948   6.047   2.802  0.4945  0.3443 -2.7671
 4688TIP3    H235480   1.851   6.163   2.797 -0.0941 -0.0449 -1.0747
 4689TIP3   OH235481   0.013   3.200  15.551  0.2826  0.1716  0.0412
 4689TIP3    H135482  -0.043   3.264  15.596 -0.7553 -0.9514  0.4268
 4689TIP3    H235483   0.082   3.252  15.511 -0.1875  1.4665  0.8400
 4690TIP3   OH235484   1.626   4.014  15.594 -0.2250 -0.4258  0.3121
 4690TIP3    H135485   1.639   3.924  15.564  2.0713 -0.0124 -0.0706
 4690TIP3    H235486   1.712   4.056  15.586 -1.4434  2.1493 -0.6353
 4691TIP3   OH235487   4.993   1.324  16.119  0.1281  0.1533 -0.2460
 4691TIP3    H135488   5.002   1.385  16.192  0.8122  0.1526 -0.3278
 4691TIP3    H235489   4.902   1.296  16.123 -0.4503  1.8269 -0.7201
 4692TIP3   OH235490   3.612   6.007   1.585  0.2329  0.4226  0.2045
 4692TIP3    H135491   3.630   6.101   1.580  0.7409  0.3708  0.8378
 4692TIP3    H235492   3.517   6.001   1.594  0.2228  0.8968  0.4743
 4693TIP3   OH235493   0.114   5.103  11.514  0.4895  0.2460 -0.2745
 4693TIP3    H135494   0.019   5.108  11.522  0.6454  1.2919  1.5054
 4693TIP3    H235495   0.131   5.015  11.483 -1.0747  0.2068 -1.1209
 4694TIP3   OH235496   2.118   0.944  14.251  0.2476 -0.0009 -0.1418
 4694TIP3    H135497   2.179   0.918  14.182  0.7119  0.9422 -0.0944
 4694TIP3    H235498   2.141   1.034  14.272  0.4766 -0.4289  1.6397
 4695TIP3   OH235499   4.186   4.613  14.732  0.0167  0.6567 -0.1653
 4695TIP3    H135500   4.095   4.593  14.710 -0.2035  2.0728 -0.6434
 4695TIP3    H235501   4.229   4.626  14.648  0.7191 -0.2138  0.0512
 4696TIP3   OH235502   3.128   5.191  14.129 -0.1467 -0.9129  0.2794
 4696TIP3    H135503   3.116   5.271  14.182  0.8278  0.3999 -1.3654
 4696TIP3    H235504   3.144   5.122  14.193  0.4392  0.5090  1.7319
 4697TIP3   OH235505   1.214   1.953  14.732  0.2141  0.5679 -0.0722
 4697TIP3    H135506   1.217   2.031  14.787 -0.3637  0.1247  0.6031
 4697TIP3    H235507   1.237   1.985  14.644  0.0018  1.4904  0.1942
 4698TIP3   OH235508   3.609   1.582   2.473  0.8024  0.0256 -0.3732
 4698TIP3    H135509   3.572   1.501   2.439 -0.0027 -0.6258  1.8782
 4698TIP3    H235510   3.633   1.561   2.564 -1.4153  2.8239  1.0260
 4699TIP3   OH235511   5.427   1.689   0.353  0.4025 -0.3778 -0.9101
 4699TIP3    H135512   5.505   1.738   0.379 -0.7157  1.9263 -1.6254
 4699TIP3    H235513   5.391   1.738   0.279 -1.4165 -1.6953 -0.9653
 4700TIP3   OH235514   1.116   4.321  10.920 -0.1025 -0.0466 -0.1728
 4700TIP3    H135515   1.196   4.349  10.964  0.0958  0.3502 -0.7800
 4700TIP3    H235516   1.146   4.269  10.846 -0.4084  0.0516 -0.3669
 4701TIP3   OH235517   0.957   3.345   6.322 -0.5920 -0.5314  0.5120
 4701TIP3    H135518   1.026   3.280   6.304  0.1811  0.6078 -0.8937
 4701TIP3    H235519   0.902   3.343   6.244  0.4159  1.6222 -0.3498
 4702TIP3   OH235520   0.857   6.172   0.946 -0.4040  0.8693 -0.1877
 4702TIP3    H135521   0.772   6.173   0.902 -0.4485  0.7692 -0.1046
 4702TIP3    H235522   0.838   6.139   1.034 -0.5505  2.3303  0.3698
 4703TIP3   OH235523   4.467   2.734  11.560  0.3968  0.7613  0.4586
 4703TIP3    H135524   4.419   2.772  11.486 -0.6570 -1.4039 -0.0355
 4703TIP3    H235525   4.510   2.657  11.523  1.3382  0.6459  1.7297
 4704TIP3   OH235526   2.747   0.801  11.958 -0.1464 -0.2256  0.0628
 4704TIP3    H135527   2.679   0.857  11.994  0.0913  0.6313 -0.7689
 4704TIP3    H235528   2.710   0.712  11.962 -1.3851  0.2412 -0.5385
 4705TIP3   OH235529   0.794   6.298  12.130 -0.2371 -0.3771 -0.5129
 4705TIP3    H135530   0.877   6.298  12.081  1.6714 -2.7350  2.4033
 4705TIP3    H235531   0.774   6.206  12.143 -1.0888  0.1196  2.2973
 4706TIP3   OH235532   0.989   4.467  12.064  0.0626 -0.3254  0.1961
 4706TIP3    H135533   0.917   4.473  12.001 -0.9076 -1.3841  1.1381
 4706TIP3    H235534   1.035   4.387  12.040 -0.7091 -1.0994  1.1729
 4707TIP3   OH235535   5.644   2.454   6.259 -0.2993 -0.2959 -0.0395
 4707TIP3    H135536   5.655   2.548   6.269  0.3355 -0.3762  0.0939
 4707TIP3    H235537   5.596   2.426   6.337  0.6363 -0.2599  0.5690
 4708TIP3   OH235538   0.016   5.252   0.782 -0.4268  0.1832 -0.7303
 4708TIP3    H135539  -0.077   5.274   0.780 -0.2303  1.0188 -1.7832
 4708TIP3    H235540   0.043   5.251   0.689  1.2129  2.7859 -0.3998
 4709TIP3   OH235541   2.076   4.932  14.500  0.2239 -0.0201  0.0596
 4709TIP3    H135542   2.006   4.997  14.497 -1.0748 -1.2779  1.1367
 4709TIP3    H235543   2.074   4.892  14.413 -0.5592 -0.1643  0.1302
 4710TIP3   OH235544   2.836   0.466   1.447 -0.3897 -0.1971  0.1545
 4710TIP3    H135545   2.919   0.419   1.457 -0.2343 -0.4848 -1.9997
 4710TIP3    H235546   2.839   0.534   1.515 -0.8815 -3.4817  3.7959
 4711TIP3   OH235547   3.732   6.782  17.013  0.1539  0.0491 -0.1315
 4711TIP3    H135548   3.722   6.687  17.019 -2.0597  0.3062  1.1118
 4711TIP3    H235549   3.756   6.798  16.922  0.3203 -1.6778 -0.4216
 4712TIP3   OH235550   4.643   6.401  10.232  0.5438 -0.3648  0.1492
 4712TIP3    H135551   4.643   6.372  10.323  2.1091 -1.2421 -0.1022
 4712TIP3    H235552   4.556   6.377  10.199  0.3163 -0.9440  1.1404
 4713TIP3   OH235553   5.248   6.542  16.493 -0.1425 -0.2609  0.5297
 4713TIP3    H135554   5.324   6.492  16.465 -0.5205 -1.2641  1.2242
 4713TIP3    H235555   5.175   6.481  16.484 -0.4638 -0.2207  2.4145
 4714TIP3   OH235556   4.586   4.991  15.759  0.2292 -0.2927  0.0500
 4714TIP3    H135557   4.562   4.900  15.748 -0.2178 -0.3295  1.2245
 4714TIP3    H235558   4.551   5.035  15.681 -0.0136 -1.0237 -0.2611
 4715TIP3   OH235559   0.681   3.394  14.643 -0.9608 -0.4294 -0.0363
 4715TIP3    H135560   0.606   3.420  14.697 -0.0042  1.0737  0.6484
 4715TIP3    H235561   0.748   3.369  14.707 -0.1733  0.3388 -0.5358
 4716TIP3   OH235562   6.717   4.134   5.852 -0.9008  0.4981  0.5041
 4716TIP3    H135563   6.738   4.209   5.908  2.5350 -0.6836  0.9991
 4716TIP3    H235564   6.800   4.108   5.814 -2.6672 -0.4192 -3.1932
 4717TIP3   OH235565   6.164   4.322   6.065 -0.7580  0.1692  0.6961
 4717TIP3    H135566   6.113   4.298   6.143  0.4465 -0.3546  1.3481
 4717TIP3    H235567   6.182   4.415   6.077 -0.8524  0.1645  0.8899
 4718TIP3   OH235568   2.660   1.961  15.112 -0.3938  0.1013  0.5276
 4718TIP3    H135569   2.588   1.932  15.055 -0.2840  0.0381  0.4210
 4718TIP3    H235570   2.624   2.036  15.159  0.3230  1.7852 -1.4808
 4719TIP3   OH235571   3.759   0.026  16.235 -0.4787  0.3587  0.2964
 4719TIP3    H135572   3.704   0.071  16.171  0.9088 -0.7586 -1.7901
 4719TIP3    H235573   3.711  -0.055  16.254 -0.1174 -0.0897 -0.6519
 4720TIP3   OH235574   1.768   1.628  13.695  0.6910 -0.2027  0.7525
 4720TIP3    H135575   1.725   1.550  13.661 -1.1317  0.6121  1.0276
 4720TIP3    H235576   1.833   1.651  13.629 -0.8413 -0.2472 -0.8350
 4721TIP3   OH235577   5.420   2.035  12.961  0.0180  0.3581  0.4743
 4721TIP3    H135578   5.353   2.015  12.897 -1.2501 -0.8324  2.0865
 4721TIP3    H235579   5.395   2.120  12.997  0.9364  1.2044 -0.7937
 4722TIP3   OH235580   0.818   1.686  17.097 -0.0449  0.5402  0.2230
 4722TIP3    H135581   0.762   1.619  17.057 -0.3543  0.5895  0.5634
 4722TIP3    H235582   0.756   1.753  17.126  0.2619  0.9630 -0.0901
 4723TIP3   OH235583   6.774   6.495   5.195 -0.0887 -0.1673 -0.6351
 4723TIP3    H135584   6.697   6.519   5.246 -0.7487 -2.0232 -0.6717
 4723TIP3    H235585   6.848   6.528   5.245 -0.7516 -1.3856  1.2337
 4724TIP3   OH235586   5.066   0.725   4.354 -0.3402 -0.7223 -0.2791
 4724TIP3    H135587   5.116   0.802   4.382 -1.7126  0.8342 -1.8276
 4724TIP3    H235588   5.058   0.671   4.433  1.6239  0.1555  0.5789
 4725TIP3   OH235589   5.697   2.383   5.504  0.1091 -0.6540  0.1849
 4725TIP3    H135590   5.762   2.429   5.556  0.5992 -0.7299 -0.3471
 4725TIP3    H235591   5.743   2.306   5.470  0.1602 -0.0065 -1.3062
 4726TIP3   OH235592   6.463   5.659   4.730 -0.0890 -0.9487  0.3172
 4726TIP3    H135593   6.503   5.709   4.659  0.7401 -3.7729 -1.3722
 4726TIP3    H235594   6.533   5.649   4.795  1.1615 -3.3333 -1.2666
 4727TIP3   OH235595   4.333   5.424   0.795 -0.4690  0.1681  0.2033
 4727TIP3    H135596   4.318   5.344   0.745 -0.6503 -0.5032  1.3139
 4727TIP3    H235597   4.246   5.447   0.829 -0.1512 -0.0172  1.1463
 4728TIP3   OH235598   6.645   6.198   3.866  0.3879  0.2169 -0.1453
 4728TIP3    H135599   6.733   6.164   3.857  0.4981  0.6007 -0.5396
 4728TIP3    H235600   6.601   6.176   3.784 -0.2762 -1.0784  0.5235
 4729TIP3   OH235601   1.608   1.947   1.404  0.0692  0.0099 -0.5393
 4729TIP3    H135602   1.682   1.993   1.364 -1.5357  0.7496 -2.7924
 4729TIP3    H235603   1.628   1.854   1.392  0.4142  0.2111 -1.5713
 4730TIP3   OH235604   3.154   3.402   6.197  0.0993  0.1164 -0.4344
 4730TIP3    H135605   3.203   3.434   6.273  0.3588  0.9398 -0.9388
 4730TIP3    H235606   3.074   3.365   6.234  1.9175 -3.1978  0.6619
 4731TIP3   OH235607   1.916   0.348   1.981 -0.4538 -0.2822 -0.2842
 4731TIP3    H135608   1.838   0.381   2.025 -1.3966 -1.1671 -1.2317
 4731TIP3    H235609   1.909   0.382   1.892 -0.5879 -1.6404 -0.8131
 4732TIP3   OH235610   6.362   1.968   3.423 -0.1953 -0.0303 -0.2026
 4732TIP3    H135611   6.447   2.006   3.402 -0.3224 -0.8790 -2.5752
 4732TIP3    H235612   6.307   1.989   3.347 -1.7837 -0.4511  0.7787
 4733TIP3   OH235613   4.304   3.842   3.043  0.2451  0.2130 -0.0661
 4733TIP3    H135614   4.300   3.783   3.118  0.1989  1.2952  0.8115
 4733TIP3    H235615   4.396   3.867   3.036  0.0654  1.0312  0.3799
 4734TIP3   OH235616   5.101   4.859   6.094  0.5384 -0.0068  0.0046
 4734TIP3    H135617   5.033   4.823   6.151  0.2999  1.1625  0.4802
 4734TIP3    H235618   5.097   4.953   6.108  0.8661  0.2571 -1.5275
 4735TIP3   OH235619   6.718   2.494   5.295 -0.6674  0.0741 -0.0170
 4735TIP3    H135620   6.781   2.470   5.227 -1.5070 -0.8891 -0.4675
 4735TIP3    H235621   6.705   2.414   5.346 -0.6196  0.5893  0.8358
 4736TIP3   OH235622   6.177   6.790   2.741  0.1960 -0.1471 -0.6227
 4736TIP3    H135623   6.249   6.733   2.770  0.6149  0.4957 -0.3653
 4736TIP3    H235624   6.192   6.872   2.787 -2.4442 -0.9157  1.9170
 4737TIP3   OH235625   2.408   3.235   2.367 -0.0843 -0.3201 -0.1913
 4737TIP3    H135626   2.494   3.246   2.408 -0.7605  0.4022  1.1081
 4737TIP3    H235627   2.372   3.324   2.365 -1.5752 -0.8545  1.1054
 4738TIP3   OH235628   4.199   0.868  17.045 -0.1435  0.0207 -0.1539
 4738TIP3    H135629   4.205   0.775  17.068 -0.1361  0.2940  1.0319
 4738TIP3    H235630   4.149   0.907  17.117 -0.7135  0.8315 -0.9647
 4739TIP3   OH235631   2.954   5.049   3.276  0.1416 -0.3824 -0.1616
 4739TIP3    H135632   2.911   4.981   3.328 -1.2048  0.2866 -0.3288
 4739TIP3    H235633   2.989   5.110   3.341 -1.1040  0.1931  0.0105
 4740TIP3   OH235634   5.011   4.750  12.252 -0.5524  0.3298  0.1461
 4740TIP3    H135635   4.956   4.673  12.263 -0.6408  0.2464 -0.7819
 4740TIP3    H235636   5.093   4.728  12.297 -0.1064 -0.8231 -1.1566
 4741TIP3   OH235637   2.411   3.057   2.665 -0.1403  0.3787 -0.1137
 4741TIP3    H135638   2.403   3.144   2.705 -0.0533  1.3432 -2.0918
 4741TIP3    H235639   2.501   3.052   2.634  0.6987 -1.5337  2.2630
 4742TIP3   OH235640   4.964   2.624  15.127  0.0539  0.1120  0.5459
 4742TIP3    H135641   4.932   2.549  15.076 -1.5654  1.8948 -1.2257
 4742TIP3    H235642   4.991   2.688  15.062  0.9066  1.2900  1.9934
 4743TIP3   OH235643   4.345   5.190  13.619 -0.0370  0.5849 -0.2240
 4743TIP3    H135644   4.270   5.161  13.566  0.3148  0.7838 -0.8363
 4743TIP3    H235645   4.379   5.267  13.573 -1.3804  2.4776  1.7309
 4744TIP3   OH235646   4.329   5.872   5.150  0.0427  0.1447 -0.8175
 4744TIP3    H135647   4.383   5.950   5.162  0.3076 -0.2720  1.0775
 4744TIP3    H235648   4.239   5.903   5.158  0.1589  0.2286  0.3652
 4745TIP3   OH235649   0.672   3.369  12.763  1.1829 -0.3768  0.1520
 4745TIP3    H135650   0.673   3.279  12.795 -0.0229 -1.5444 -2.7791
 4745TIP3    H235651   0.606   3.369  12.693  3.3165  1.9919 -2.0659
 4746TIP3   OH235652   1.237   6.075  15.534 -0.0916  0.7133  0.3344
 4746TIP3    H135653   1.287   6.035  15.463  1.2519 -0.0123  1.6333
 4746TIP3    H235654   1.297   6.075  15.608 -1.8027  0.4362  1.7801
 4747TIP3   OH235655   3.018   2.687   0.317 -0.7054  0.4479  0.1112
 4747TIP3    H135656   3.108   2.719   0.313 -0.5236 -0.1129 -2.4403
 4747TIP3    H235657   2.984   2.718   0.400  1.4970  1.6174  0.6352
 4748TIP3   OH235658   1.414   4.572   0.803 -0.6407 -0.4860  0.3176
 4748TIP3    H135659   1.505   4.565   0.772 -0.7489 -1.3124  0.1524
 4748TIP3    H235660   1.363   4.524   0.738 -1.3024  0.6259  0.0058
 4749TIP3   OH235661   5.214   6.794   2.557 -0.5833  0.0302  0.2208
 4749TIP3    H135662   5.268   6.716   2.569 -0.6499  0.0417  0.6100
 4749TIP3    H235663   5.128   6.760   2.532 -0.4820  0.0007 -0.0978
 4750TIP3   OH235664   4.726   0.547  16.015  0.2831  0.1167  0.1435
 4750TIP3    H135665   4.673   0.578  15.941  1.7110 -1.3030 -1.5286
 4750TIP3    H235666   4.700   0.456  16.026  0.8888  0.0101  0.6948
 4751TIP3   OH235667   3.721   4.369   2.250  0.1108  0.0322 -0.3439
 4751TIP3    H135668   3.765   4.443   2.208 -0.3713  0.6610  0.2321
 4751TIP3    H235669   3.629   4.378   2.225 -0.1222  0.2028  0.5253
 4752TIP3   OH235670   0.362   4.428   1.200  0.1210  0.2177  0.5452
 4752TIP3    H135671   0.454   4.400   1.198  0.1754  0.1434  2.3193
 4752TIP3    H235672   0.366   4.523   1.209  0.0421  0.1724  1.0878
 4753TIP3   OH235673   3.382   1.971  16.474  0.1836 -0.5652  0.2886
 4753TIP3    H135674   3.476   1.977  16.456  0.2070  0.8679  0.7070
 4753TIP3    H235675   3.373   2.002  16.565 -0.8003  0.4319 -0.1281
 4754TIP3   OH235676   1.552   1.966  10.925  0.5068  0.2999 -0.1298
 4754TIP3    H135677   1.533   1.985  10.833 -2.6092  1.8239  0.6902
 4754TIP3    H235678   1.584   2.049  10.961  0.5997  0.0316  0.4215
 4755TIP3   OH235679   5.816   3.557  15.936 -0.0254  0.1737  0.0275
 4755TIP3    H135680   5.814   3.486  15.999  0.2393 -0.3918 -0.5888
 4755TIP3    H235681   5.823   3.636  15.989  1.3583 -0.3531  0.6625
 4756TIP3   OH235682   2.325   0.602  15.050 -0.0907  0.6408  0.0918
 4756TIP3    H135683   2.231   0.583  15.044  0.4560 -2.0954 -2.1927
 4756TIP3    H235684   2.331   0.697  15.039 -2.6027  1.0668  1.5255
 4757TIP3   OH235685   6.710   4.998   1.355  0.0711  0.0196 -0.0013
 4757TIP3    H135686   6.656   4.939   1.407  1.3613 -1.0906  0.1445
 4757TIP3    H235687   6.773   5.035   1.417  0.1073  0.5416 -0.3404
 4758TIP3   OH235688   3.765   0.003   0.492 -0.0823 -0.5773 -0.1710
 4758TIP3    H135689   3.786   0.081   0.543 -3.7752  0.1809  0.4834
 4758TIP3    H235690   3.728  -0.059   0.555  1.5542 -2.4303 -0.9067
 4759TIP3   OH235691   1.699   5.255  11.641  0.4017  0.3371 -0.3138
 4759TIP3    H135692   1.698   5.212  11.556  1.8984  0.9279 -0.6647
 4759TIP3    H235693   1.707   5.184  11.704  2.7687  0.0154 -0.8823
 4760TIP3   OH235694   0.037   5.499  16.263 -0.0127 -0.7484 -0.1469
 4760TIP3    H135695   0.065   5.563  16.198  1.2728 -0.4174  0.7110
 4760TIP3    H235696  -0.047   5.467  16.229  0.6179 -0.6059 -1.9762
 4761TIP3   OH235697   2.675   0.540  11.046  0.0297  0.4960 -0.1297
 4761TIP3    H135698   2.768   0.557  11.039  0.3370 -1.1021 -0.2315
 4761TIP3    H235699   2.639   0.562  10.960  0.6500 -0.7594 -0.7267
 4762TIP3   OH235700   5.786   3.726   4.640 -0.4727  0.6833 -0.5467
 4762TIP3    H135701   5.706   3.720   4.587 -0.6445  3.9862 -0.8639
 4762TIP3    H235702   5.857   3.709   4.578 -0.7954  1.8238 -1.2568
 4763TIP3   OH235703   6.667   6.754   5.011  0.2396 -0.2095 -0.7164
 4763TIP3    H135704   6.703   6.834   5.049 -1.3598 -0.5100  1.7127
 4763TIP3    H235705   6.609   6.785   4.941 -0.0211  0.7522 -0.0974
 4764TIP3   OH235706   2.828   4.793  11.053 -0.0759 -0.1146 -0.0579
 4764TIP3    H135707   2.916   4.813  11.021 -0.3938  1.4199 -0.0431
 4764TIP3    H235708   2.775   4.867  11.024 -1.1527 -0.5239  0.8051
 4765TIP3   OH235709   0.552   6.466  13.525  0.7000 -0.1852  0.4715
 4765TIP3    H135710   0.630   6.410  13.517  0.3329 -0.6367 -0.0396
 4765TIP3    H235711   0.499   6.443  13.449  0.5759  0.9248  0.2129
 4766TIP3   OH235712   2.123   4.879  14.942 -0.1597 -0.1267  0.3237
 4766TIP3    H135713   2.145   4.808  14.882 -1.4107 -0.9929  0.8528
 4766TIP3    H235714   2.195   4.941  14.933  0.1166 -0.6521 -1.4033
 4767TIP3   OH235715   3.896   2.957  16.122 -0.2134  0.3677 -0.1229
 4767TIP3    H135716   3.933   3.043  16.142  0.5466  0.6359 -2.4012
 4767TIP3    H235717   3.959   2.895  16.159 -0.1930  0.7694  0.5472
 4768TIP3   OH235718   1.357   5.104   4.647  0.0079 -0.2261  0.4255
 4768TIP3    H135719   1.398   5.041   4.707  0.6971 -0.5276 -0.3568
 4768TIP3    H235720   1.264   5.103   4.672 -0.0219 -1.6722  0.3366
 4769TIP3   OH235721   3.079   5.828  12.723 -0.4250 -0.4674  0.1311
 4769TIP3    H135722   3.031   5.911  12.718  0.6718  0.1000 -1.6942
 4769TIP3    H235723   3.124   5.821  12.639  0.3510 -2.4188  0.6592
 4770TIP3   OH235724   3.229   3.244  16.073  0.0612  0.5438 -0.3313
 4770TIP3    H135725   3.253   3.305  16.143 -0.2350 -1.3504  1.5380
 4770TIP3    H235726   3.142   3.212  16.097 -0.3246  0.2836 -1.9256
 4771TIP3   OH235727   1.112   6.594   2.326 -0.0227 -0.3297  0.0481
 4771TIP3    H135728   1.089   6.585   2.234 -0.4132 -1.0961  0.2122
 4771TIP3    H235729   1.172   6.668   2.329  2.0163 -1.8256 -1.1672
 4772TIP3   OH235730   3.868   0.426   2.333 -0.0676  0.0998 -0.4624
 4772TIP3    H135731   3.864   0.446   2.426  0.9934  1.6442 -0.7024
 4772TIP3    H235732   3.932   0.356   2.325 -1.3353 -1.1557  0.0975
 4773TIP3   OH235733   0.635   4.945  13.891  0.2971  0.2061 -0.6149
 4773TIP3    H135734   0.606   4.953  13.800  2.9919 -0.6262 -1.6236
 4773TIP3    H235735   0.624   5.032  13.927 -1.4897  0.3936 -1.4795
 4774TIP3   OH235736   4.997   1.190   1.764 -0.3390  0.2675 -0.1018
 4774TIP3    H135737   5.054   1.115   1.746 -1.5152 -0.3396 -1.5459
 4774TIP3    H235738   5.049   1.266   1.739  0.3754 -0.1584  0.0508
 4775TIP3   OH235739   4.326   3.374  16.833  0.6245 -0.1977  0.4578
 4775TIP3    H135740   4.271   3.422  16.895 -2.2711  0.0829 -2.0825
 4775TIP3    H235741   4.284   3.288  16.825  2.3875 -1.1292  0.6563
 4776TIP3   OH235742   6.051   0.049  16.718 -0.7682 -0.3714  0.0485
 4776TIP3    H135743   5.960   0.047  16.746 -0.6739  1.3367  0.5870
 4776TIP3    H235744   6.057   0.124  16.660  0.1036 -1.0398 -0.7712
 4777TIP3   OH235745   3.210   1.537   0.697  0.1458  0.1424  0.4056
 4777TIP3    H135746   3.138   1.474   0.688  1.5307 -1.4002 -0.5963
 4777TIP3    H235747   3.248   1.541   0.609  1.7550  0.3098  1.0814
 4778TIP3   OH235748   0.344   4.694   2.670 -0.5493 -0.4387  0.0240
 4778TIP3    H135749   0.296   4.674   2.751 -0.7162  1.3903  0.4337
 4778TIP3    H235750   0.437   4.688   2.695 -0.5991  0.3001  0.4398
 4779TIP3   OH235751   2.487   3.763  12.894 -0.3925 -0.1170 -0.1404
 4779TIP3    H135752   2.439   3.696  12.942 -0.8632 -0.5058 -1.1288
 4779TIP3    H235753   2.575   3.726  12.883 -0.2705 -0.0108  0.4230
 4780TIP3   OH235754   6.589   1.954   4.676 -0.0006  0.3780 -0.7269
 4780TIP3    H135755   6.514   2.013   4.666 -1.1882 -1.0497 -0.6143
 4780TIP3    H235756   6.552   1.866   4.665  1.1053 -0.5655  2.2489
 4781TIP3   OH235757   6.650   3.190  11.524  0.2093  0.4969 -0.0154
 4781TIP3    H135758   6.618   3.234  11.603  0.9697 -1.6428  1.5872
 4781TIP3    H235759   6.699   3.115  11.557 -1.6818 -2.0787 -2.5281
 4782TIP3   OH235760   2.351   3.792   6.637 -0.0487 -0.1111 -0.3095
 4782TIP3    H135761   2.417   3.849   6.675  0.3176 -1.0467  0.5026
 4782TIP3    H235762   2.267   3.829   6.664  0.0541  1.6800 -2.1947
 4783TIP3   OH235763   0.176   4.635   4.777  0.4082  0.6398  0.3574
 4783TIP3    H135764   0.114   4.562   4.787  0.0065  0.8223 -0.6716
 4783TIP3    H235765   0.251   4.596   4.733  1.0564  0.4191  1.6044
 4784TIP3   OH235766   1.445   3.646  13.843 -0.2673 -0.7087  0.2975
 4784TIP3    H135767   1.364   3.607  13.876 -0.8435  1.5977  1.7934
 4784TIP3    H235768   1.446   3.622  13.750 -3.3615  0.2283 -0.1049
 4785TIP3   OH235769   3.699   6.730  12.189  0.0959  0.4044  0.1560
 4785TIP3    H135770   3.612   6.752  12.222 -0.2859  0.1668 -0.6860
 4785TIP3    H235771   3.755   6.731  12.267 -0.7388  0.1465  0.7692
 4786TIP3   OH235772   5.989   3.972   2.937 -0.0554 -0.0211  0.1503
 4786TIP3    H135773   5.966   3.890   2.980  0.3215 -1.7703 -2.7447
 4786TIP3    H235774   5.952   4.040   2.994 -1.0614 -2.1767  2.2532
 4787TIP3   OH235775   6.168   2.387  10.093 -0.0570 -0.2589 -0.3663
 4787TIP3    H135776   6.085   2.353  10.126 -0.1486  1.8370  1.8642
 4787TIP3    H235777   6.228   2.312  10.097 -1.0522 -1.0140  1.1052
 4788TIP3   OH235778   6.452   4.030   3.953 -0.2305  0.1518  0.3337
 4788TIP3    H135779   6.510   4.104   3.936  0.0523  0.0644  0.9134
 4788TIP3    H235780   6.435   4.033   4.047 -1.7501  0.6037  0.0722
 4789TIP3   OH235781   6.193   1.820  13.861 -0.9361  0.2676  0.3202
 4789TIP3    H135782   6.217   1.736  13.821 -0.5295 -0.1587  1.4497
 4789TIP3    H235783   6.142   1.796  13.938 -1.9436  1.0958 -0.0704
 4790TIP3   OH235784   3.527   5.312   0.821 -0.2353 -0.6975  0.1394
 4790TIP3    H135785   3.481   5.291   0.903 -0.4428  0.1925  0.2633
 4790TIP3    H235786   3.600   5.368   0.848 -0.9359  0.5077 -0.3826
 4791TIP3   OH235787   5.151   2.864  12.014 -0.0293  0.1718  0.4202
 4791TIP3    H135788   5.171   2.902  11.928  2.4192 -0.7415  0.5319
 4791TIP3    H235789   5.056   2.875  12.022 -0.0653  2.1382 -1.4866
 4792TIP3   OH235790   5.269   0.658  14.502 -0.0120  0.0623 -0.4016
 4792TIP3    H135791   5.217   0.662  14.422 -0.3656 -1.7276 -0.2881
 4792TIP3    H235792   5.226   0.719  14.561 -3.4043 -2.8094  0.4321
 4793TIP3   OH235793   3.208   0.390  16.293 -0.2551  0.7157  0.2237
 4793TIP3    H135794   3.159   0.366  16.371 -2.0467  3.0911 -0.0463
 4793TIP3    H235795   3.185   0.482  16.277  2.7782  1.3853 -1.1268
 4794TIP3   OH235796   0.529   2.285   5.173 -0.1670  0.3067 -0.0011
 4794TIP3    H135797   0.592   2.346   5.209 -0.9927 -0.1002  2.3009
 4794TIP3    H235798   0.558   2.199   5.204 -1.6491  0.0824  0.8492
 4795TIP3   OH235799   5.613   1.183  15.411 -0.3895 -0.2372  0.5827
 4795TIP3    H135800   5.587   1.093  15.429 -1.7562 -0.0169 -0.1542
 4795TIP3    H235801   5.541   1.236  15.444 -0.4035  0.4661 -0.5314
 4796TIP3   OH235802   6.793   4.248  12.078  0.3798  0.2477 -0.1230
 4796TIP3    H135803   6.803   4.160  12.041  0.7106 -1.0003  2.6127
 4796TIP3    H235804   6.706   4.277  12.050 -0.1428 -1.3954 -0.3102
 4797TIP3   OH235805   5.482   4.575   6.076 -0.1806 -0.6092 -0.2244
 4797TIP3    H135806   5.560   4.541   6.032  0.3221 -0.6900  0.7021
 4797TIP3    H235807   5.411   4.519   6.046  0.6824 -2.7636  1.5289
 4798TIP3   OH235808   4.927   1.543   2.836  0.2555 -0.1725  0.3013
 4798TIP3    H135809   4.849   1.538   2.891 -0.9194  1.4160 -1.1017
 4798TIP3    H235810   4.961   1.454   2.834  0.0359 -0.3963  3.0749
 4799TIP3   OH235811   3.204   2.656   4.623 -1.0189 -0.7029  0.0320
 4799TIP3    H135812   3.186   2.689   4.711 -1.2470 -2.6913  0.7823
 4799TIP3    H235813   3.251   2.573   4.637 -1.7570 -1.4696 -1.6729
 4800TIP3   OH235814   5.877   6.601   5.969  0.3475  0.0843  0.0878
 4800TIP3    H135815   5.798   6.559   5.934  0.2597  0.0126  0.3642
 4800TIP3    H235816   5.946   6.580   5.906  0.0665  0.4552 -0.3498
 4801TIP3   OH235817   2.101   0.017  15.301 -0.0937 -0.0513  0.2141
 4801TIP3    H135818   2.128   0.032  15.391 -1.0751 -0.8565  0.6609
 4801TIP3    H235819   2.042   0.089  15.281  3.2886  2.5618 -1.2560
 4802TIP3   OH235820   4.097   2.071  14.929  0.2868 -0.3546  0.1333
 4802TIP3    H135821   4.010   2.032  14.921 -0.5573  1.5222 -0.4961
 4802TIP3    H235822   4.155   1.997  14.948 -1.3979 -1.6862  0.3765
 4803TIP3   OH235823   1.008   3.539   1.810 -0.1951  0.0105 -0.1438
 4803TIP3    H135824   1.023   3.491   1.891 -2.1728 -1.1575 -0.4063
 4803TIP3    H235825   0.943   3.605   1.834  0.0993  0.4423 -0.5220
 4804TIP3   OH235826   3.551   4.632  16.903  0.3586  0.2374 -0.1646
 4804TIP3    H135827   3.533   4.591  16.988 -0.9774  0.9187 -0.0842
 4804TIP3    H235828   3.639   4.669  16.912 -0.7971  2.7634  1.9824
 4805TIP3   OH235829   0.677   2.984   5.640 -1.0850 -0.4163 -0.0796
 4805TIP3    H135830   0.595   2.993   5.689 -0.5696  1.5530  0.5129
 4805TIP3    H235831   0.739   3.039   5.687 -0.3079  0.8659 -2.4594
 4806TIP3   OH235832   0.769   6.270  13.388 -0.1915  0.5155 -0.3819
 4806TIP3    H135833   0.855   6.260  13.428 -0.6287  1.5117  0.8361
 4806TIP3    H235834   0.720   6.192  13.416  0.5262 -0.4770 -1.7447
 4807TIP3   OH235835   0.307   0.005  14.592 -0.4795 -0.3081 -0.4474
 4807TIP3    H135836   0.339   0.050  14.514 -1.3557 -1.7316 -1.6766
 4807TIP3    H235837   0.352   0.048  14.665 -0.2971  1.6458 -1.6467
 4808TIP3   OH235838   1.236   6.441   3.313 -0.1159 -0.8958  0.2718
 4808TIP3    H135839   1.254   6.444   3.219  0.2987 -1.1238  0.3438
 4808TIP3    H235840   1.227   6.533   3.338  0.0969 -0.8190  0.0693
 4809TIP3   OH235841   6.655   5.801   3.669 -0.4134 -0.1039 -0.5152
 4809TIP3    H135842   6.596   5.801   3.744  1.2245 -0.0324  0.8363
 4809TIP3    H235843   6.684   5.710   3.662  2.7443  0.5701  1.7673
 4810TIP3   OH235844   4.977   3.473   0.583  0.5876  0.6513 -0.0803
 4810TIP3    H135845   4.891   3.482   0.624  0.5813  4.4812 -0.5545
 4810TIP3    H235846   4.978   3.383   0.550 -3.1889  0.3915  0.0346
 4811TIP3   OH235847   4.234   4.703   0.858  0.4203 -0.3150 -0.6308
 4811TIP3    H135848   4.174   4.704   0.784 -1.2161  0.7831  0.6338
 4811TIP3    H235849   4.268   4.792   0.863  0.6177 -0.4150 -0.1361
 4812TIP3   OH235850   5.446   5.031  15.732  0.4642 -0.5946  0.3068
 4812TIP3    H135851   5.386   4.973  15.686  1.9157 -1.8115 -0.1214
 4812TIP3    H235852   5.440   5.003  15.824  0.4153 -0.7406  0.2598
 4813TIP3   OH235853   6.708   5.520  13.019 -0.1642  0.0420  0.1882
 4813TIP3    H135854   6.655   5.580  13.071  1.9385  1.3800  0.9001
 4813TIP3    H235855   6.715   5.442  13.074 -2.1362 -0.5754 -0.3424
 4814TIP3   OH235856   4.317   1.138   3.245  0.3736 -0.1171 -0.1864
 4814TIP3    H135857   4.248   1.204   3.249  0.1569 -0.3786  0.4907
 4814TIP3    H235858   4.388   1.180   3.196 -0.1196  0.2832 -0.5692
 4815TIP3   OH235859   1.938   3.979  13.335 -0.0334 -0.0649  0.0718
 4815TIP3    H135860   1.931   4.074  13.324  0.9884 -0.0725 -0.8114
 4815TIP3    H235861   1.876   3.958  13.405 -0.9699  1.1183 -0.3719
 4816TIP3   OH235862   5.323   4.503  16.820 -0.8550 -0.2601 -0.1593
 4816TIP3    H135863   5.287   4.445  16.887 -1.0480  1.5042  1.3583
 4816TIP3    H235864   5.376   4.566  16.869  1.0322 -0.3461 -1.9391
 4817TIP3   OH235865   4.324   1.759   0.746 -0.1845 -0.2691 -0.0338
 4817TIP3    H135866   4.386   1.744   0.675  0.3313 -0.6755  0.4906
 4817TIP3    H235867   4.260   1.688   0.738 -0.4506  0.0125 -0.4305
 4818TIP3   OH235868   2.293   1.603  13.255 -0.4526 -0.7954  0.0602
 4818TIP3    H135869   2.317   1.574  13.343 -1.7602  0.9085  1.0476
 4818TIP3    H235870   2.221   1.545  13.231 -0.6941 -0.6970  0.5181
 4819TIP3   OH235871   5.576   0.071   3.223  0.1190  0.6875  0.1168
 4819TIP3    H135872   5.632   0.116   3.286  0.6608  0.2321 -0.0369
 4819TIP3    H235873   5.492   0.118   3.228 -0.0254  0.3209  1.5703
 4820TIP3   OH235874   6.688   3.508   0.852  0.0918 -0.2756  0.1944
 4820TIP3    H135875   6.690   3.520   0.757 -2.0696 -1.0676 -0.0069
 4820TIP3    H235876   6.695   3.597   0.888 -1.0522  0.2386 -0.7878
 4821TIP3   OH235877   0.839   4.022   1.062  0.4920  0.2773  0.1871
 4821TIP3    H135878   0.919   4.073   1.054  1.2360 -0.6221  1.5323
 4821TIP3    H235879   0.864   3.933   1.039  0.2734 -0.3026  2.0476
 4822TIP3   OH235880   3.359   6.040   0.951 -0.0113  0.4423  0.1850
 4822TIP3    H135881   3.385   6.038   0.859  0.5161 -2.8630  0.2757
 4822TIP3    H235882   3.264   6.049   0.949  0.0112  0.5393 -0.6933
 4823TIP3   OH235883   4.522   2.444  16.152 -0.2309  0.1517  0.0649
 4823TIP3    H135884   4.536   2.360  16.194  0.6202  0.3860  0.2663
 4823TIP3    H235885   4.601   2.459  16.100 -1.2486 -0.1370 -1.6726
 4824TIP3   OH235886   2.051   1.077  10.620  0.2302 -0.5127 -1.0333
 4824TIP3    H135887   2.139   1.115  10.619 -0.9992  2.6315 -1.7407
 4824TIP3    H235888   2.043   1.038  10.707  1.9713 -0.0159 -0.6048
 4825TIP3   OH235889   3.310   4.991  14.370 -0.4863 -0.4825 -0.5480
 4825TIP3    H135890   3.304   4.951  14.457 -0.5776 -1.0623 -0.8146
 4825TIP3    H235891   3.402   4.983  14.346  0.2134  2.5019  0.7912
 4826TIP3   OH235892   1.025   6.221   2.016  0.3659 -0.0242  0.2634
 4826TIP3    H135893   1.053   6.312   2.032  1.3803 -0.0967 -0.9931
 4826TIP3    H235894   0.959   6.228   1.948  0.8594 -0.2702 -0.2469
 4827TIP3   OH235895   6.265   6.087  16.635  0.3642 -0.0466  0.2981
 4827TIP3    H135896   6.260   6.054  16.725  1.7549 -2.5694 -0.4314
 4827TIP3    H235897   6.174   6.094  16.608 -0.0732  0.2260  1.7190
 4828TIP3   OH235898   1.412   0.571   4.883  0.0981  0.4743 -0.2129
 4828TIP3    H135899   1.372   0.577   4.796 -1.7902  1.2996  0.6553
 4828TIP3    H235900   1.395   0.480   4.910 -3.2143  1.2805  0.9479
 4829TIP3   OH235901   6.239   2.570  15.341 -0.1882 -0.4196 -0.1910
 4829TIP3    H135902   6.198   2.572  15.428  1.9053 -0.9354  0.8724
 4829TIP3    H235903   6.171   2.535  15.283 -1.5429 -0.3252  1.2856
 4830TIP3   OH235904   2.632   1.387  15.698 -0.1717 -0.1173  0.3002
 4830TIP3    H135905   2.550   1.341  15.719 -0.6590  1.6864  2.9080
 4830TIP3    H235906   2.612   1.436  15.618 -0.6018 -1.9515 -0.7849
 4831TIP3   OH235907   0.332   1.859   0.852 -0.8211 -0.4134  0.4088
 4831TIP3    H135908   0.362   1.835   0.940 -0.2220 -0.6464  0.1470
 4831TIP3    H235909   0.273   1.788   0.828 -1.3821 -0.0944  0.8165
 4832TIP3   OH235910   2.746   3.427  12.804  0.6357 -0.3801 -0.2032
 4832TIP3    H135911   2.822   3.456  12.755 -0.0782 -0.3120 -1.3198
 4832TIP3    H235912   2.737   3.490  12.876  1.4712 -0.2530 -0.2074
 4833TIP3   OH235913   1.602   5.258   3.116  0.2111  0.2328 -0.2149
 4833TIP3    H135914   1.629   5.334   3.166  0.9609  0.6650 -1.2331
 4833TIP3    H235915   1.590   5.291   3.027  3.1831 -1.2538 -1.3261
 4834TIP3   OH235916   4.675   0.515  12.337 -0.4254  0.1437 -0.0601
 4834TIP3    H135917   4.595   0.562  12.358 -0.4278 -0.0427  0.3527
 4834TIP3    H235918   4.658   0.424  12.363 -0.4365 -0.1011 -0.8899
 4835TIP3   OH235919   4.663   0.884   5.384 -0.0514  0.2499 -0.4286
 4835TIP3    H135920   4.587   0.942   5.374 -0.9340 -0.5815  1.1828
 4835TIP3    H235921   4.707   0.915   5.463  0.0609 -0.6031 -0.1468
 4836TIP3   OH235922   5.854   0.582   4.705  0.3300 -0.2128 -0.0396
 4836TIP3    H135923   5.841   0.605   4.613  0.7153  0.1779  0.0014
 4836TIP3    H235924   5.909   0.652   4.740 -0.8182  0.3126  0.7985
 4837TIP3   OH235925   5.421   4.585  15.105 -0.0658  0.5055 -0.2990
 4837TIP3    H135926   5.385   4.556  15.189 -0.9294  0.5986 -0.6270
 4837TIP3    H235927   5.505   4.624  15.127 -0.7760  1.5328  0.6726
 4838TIP3   OH235928   4.277   4.664  11.331 -1.0331  0.2018 -0.4886
 4838TIP3    H135929   4.269   4.748  11.286 -2.4084 -0.2416 -1.1224
 4838TIP3    H235930   4.284   4.686  11.423  1.7531  1.1362 -0.8349
 4839TIP3   OH235931   5.242   4.914   1.830  0.3319 -0.4750 -0.8274
 4839TIP3    H135932   5.321   4.940   1.877  0.0456 -1.1504  0.0375
 4839TIP3    H235933   5.211   4.995   1.789  1.9487 -0.3587 -1.9387
 4840TIP3   OH235934   5.260   3.169   5.868 -0.1037  0.2583 -0.1448
 4840TIP3    H135935   5.220   3.216   5.942 -0.6582  1.6091 -1.2497
 4840TIP3    H235936   5.276   3.081   5.901 -1.9424  0.3211  1.0594
 4841TIP3   OH235937   2.429   0.128   2.091  0.6113 -0.0522  0.0153
 4841TIP3    H135938   2.350   0.075   2.100 -0.0886  0.7264 -1.2167
 4841TIP3    H235939   2.400   0.217   2.112  0.4095  0.7329 -3.1087
 4842TIP3   OH235940   2.736   1.679   6.250 -0.4678 -0.4311  0.0609
 4842TIP3    H135941   2.750   1.761   6.298 -1.4378  0.0891 -0.5205
 4842TIP3    H235942   2.777   1.612   6.305 -2.5083 -0.0353  2.2647
 4843TIP3   OH235943   4.987   4.230   5.467 -0.6451  0.5331 -1.0669
 4843TIP3    H135944   4.964   4.209   5.376  1.4954 -1.5832 -1.2242
 4843TIP3    H235945   5.063   4.288   5.459 -1.3255  1.5143 -0.5877
 4844TIP3   OH235946   1.130   0.791   1.269 -0.3981 -0.1174 -0.3493
 4844TIP3    H135947   1.065   0.730   1.235 -0.0984 -0.7445  0.1702
 4844TIP3    H235948   1.173   0.743   1.340  1.6498 -0.3111 -1.6134
 4845TIP3   OH235949   5.661   4.333  13.215  0.1469 -0.4317 -0.7601
 4845TIP3    H135950   5.582   4.284  13.192  0.9180 -1.5307 -1.1563
 4845TIP3    H235951   5.635   4.425  13.209 -1.5598 -0.7566  0.8067
 4846TIP3   OH235952   2.771   5.383   3.409 -0.1440  0.1918 -0.2469
 4846TIP3    H135953   2.706   5.445   3.443 -0.9415 -0.4414 -0.5867
 4846TIP3    H235954   2.746   5.299   3.448  1.4371  0.2149  0.8876
 4847TIP3   OH235955   6.358   2.663  13.126  0.3891  0.1681  0.1252
 4847TIP3    H135956   6.401   2.586  13.164 -1.4787 -0.0669  1.9454
 4847TIP3    H235957   6.285   2.628  13.076 -1.7015  0.7172  2.6059
 4848TIP3   OH235958   4.202   6.399   0.209  0.2117  0.4409 -0.0932
 4848TIP3    H135959   4.269   6.467   0.214 -0.9637  1.5877  0.5476
 4848TIP3    H235960   4.134   6.436   0.152 -0.5811 -0.0697  0.4936
 4849TIP3   OH235961   5.705   0.807   6.009 -0.0518 -0.2712  0.5633
 4849TIP3    H135962   5.629   0.803   5.951 -1.7688 -0.0322  2.6631
 4849TIP3    H235963   5.707   0.898   6.040  1.2203 -0.2274  0.3727
 4850TIP3   OH235964   0.230   3.121   2.507 -0.4667 -0.4190  0.4567
 4850TIP3    H135965   0.278   3.119   2.425 -1.5761 -0.4387 -0.2103
 4850TIP3    H235966   0.296   3.145   2.573  0.5857 -1.1366 -0.3053
 4851TIP3   OH235967   0.738   3.533   0.470 -0.0592 -0.0820  0.1341
 4851TIP3    H135968   0.730   3.450   0.518  0.9549  1.5147  3.2992
 4851TIP3    H235969   0.653   3.576   0.482 -0.5789 -0.5368 -1.4972
 4852TIP3   OH235970   3.733   5.601  13.567  0.5670 -0.4131 -0.0310
 4852TIP3    H135971   3.768   5.517  13.539  1.1953 -0.7454  1.6261
 4852TIP3    H235972   3.697   5.585  13.655  0.0320  0.8698  0.0138
 4853TIP3   OH235973   1.017   3.176  16.452 -0.0968 -0.0463 -0.4039
 4853TIP3    H135974   1.015   3.129  16.535  2.2095 -0.8522 -0.7387
 4853TIP3    H235975   1.082   3.245  16.465 -0.4374  0.4501 -1.2274
 4854TIP3   OH235976   2.165   4.283   1.081 -0.4920  0.0420 -0.4116
 4854TIP3    H135977   2.244   4.230   1.089 -1.1727 -1.0496 -0.8078
 4854TIP3    H235978   2.152   4.320   1.168 -1.2404 -2.2414  0.5053
 4855TIP3   OH235979   2.997   0.639  15.093  0.1035 -0.2518  0.3900
 4855TIP3    H135980   2.938   0.710  15.067  1.4108  0.6682 -0.1711
 4855TIP3    H235981   3.038   0.670  15.174 -0.0200 -0.7909  0.6645
 4856TIP3   OH235982   2.849   4.421   2.703 -1.1312 -0.6320 -0.2777
 4856TIP3    H135983   2.861   4.515   2.719 -0.3608 -0.6766 -0.5736
 4856TIP3    H235984   2.843   4.414   2.608 -0.6341 -0.9434 -0.2903
 4857TIP3   OH235985   0.778   2.366  12.224  0.5447  0.7353 -0.2778
 4857TIP3    H135986   0.822   2.283  12.240 -0.6728 -0.1464 -1.2129
 4857TIP3    H235987   0.704   2.366  12.285  0.0169  0.6894 -0.9081
 4858TIP3   OH235988   5.088   6.328  16.559 -0.0936  0.3997 -0.1998
 4858TIP3    H135989   5.009   6.296  16.517  1.3473 -1.2114 -1.8509
 4858TIP3    H235990   5.133   6.249  16.591  0.5596  1.3182  1.2982
 4859TIP3   OH235991   5.682   2.931   2.844 -0.7573 -0.7102  0.3195
 4859TIP3    H135992   5.708   2.944   2.753 -2.3310 -1.4380 -0.2647
 4859TIP3    H235993   5.642   3.014   2.869 -0.9822 -0.7578  0.1151
 4860TIP3   OH235994   4.797   3.426   0.880  0.0740 -0.6114  0.0317
 4860TIP3    H135995   4.823   3.455   0.968  1.2297 -1.3079 -0.0507
 4860TIP3    H235996   4.766   3.505   0.837  1.1310  0.0957  0.5131
 4861TIP3   OH235997   4.132   1.461  13.647 -0.2072  0.2315  0.2035
 4861TIP3    H135998   4.095   1.415  13.723 -1.1986  1.7396  0.6684
 4861TIP3    H235999   4.214   1.498  13.680  0.9899 -1.7563 -0.3807
 4862TIP3   OH236000   1.469   3.413  11.149 -0.0312 -0.3655  0.1772
 4862TIP3    H136001   1.482   3.508  11.151  1.1587 -0.4967 -0.1797
 4862TIP3    H236002   1.479   3.389  11.056 -3.4456 -0.4925 -0.2770
 4863TIP3   OH236003   0.656   4.452   0.535 -0.2831  0.0257  0.1250
 4863TIP3    H136004   0.722   4.487   0.476 -2.4182  0.2167 -2.3376
 4863TIP3    H236005   0.628   4.527   0.588  0.4800  0.2495  0.2140
 4864TIP3   OH236006   5.593   3.473  13.444 -0.1822  0.2372 -0.4243
 4864TIP3    H136007   5.529   3.443  13.508  0.1482  0.8557  0.2117
 4864TIP3    H236008   5.661   3.405  13.443 -0.4195  0.0024 -0.4601
 4865TIP3   OH236009   0.146   1.352  15.524 -0.3839  0.0402  0.2298
 4865TIP3    H136010   0.201   1.275  15.512  0.1422  0.5445 -0.6525
 4865TIP3    H236011   0.132   1.357  15.619  0.4724 -0.5151  0.3902
 4866TIP3   OH236012   2.669   2.705  11.554 -0.5938  0.3711 -0.3934
 4866TIP3    H136013   2.576   2.704  11.579 -0.8833  0.0590 -1.4139
 4866TIP3    H236014   2.716   2.697  11.636 -1.5008 -0.5124  0.0659
 4867TIP3   OH236015   5.453   1.411  15.492  0.2066 -0.7811  0.8822
 4867TIP3    H136016   5.440   1.377  15.580  1.6463 -0.6677  1.1591
 4867TIP3    H236017   5.403   1.493  15.490  3.2354  1.3543  2.9810
 4868TIP3   OH236018   4.572   1.034   4.814 -0.1567 -0.4914  0.1186
 4868TIP3    H136019   4.536   1.036   4.903  1.4192  0.9191  0.7770
 4868TIP3    H236020   4.505   1.077   4.761 -1.0409 -1.1862  0.6479
 4869TIP3   OH236021   0.912   2.752   3.060  0.1782  0.0180 -0.2103
 4869TIP3    H136022   0.878   2.667   3.089  1.6286 -0.8309 -0.9554
 4869TIP3    H236023   0.883   2.813   3.129 -0.5334 -1.1278  0.5426
 4870TIP3   OH236024   4.362   6.206  16.655  0.0221  0.2934  0.0614
 4870TIP3    H136025   4.273   6.186  16.682  0.4080 -0.0854  1.0851
 4870TIP3    H236026   4.417   6.175  16.727  1.3147 -3.0709 -2.0980
 4871TIP3   OH236027   6.690   2.389  16.372  0.0985  0.2609  0.7519
 4871TIP3    H136028   6.671   2.315  16.430 -0.7061 -0.7783 -0.7820
 4871TIP3    H236029   6.709   2.349  16.287 -0.1607  1.7986 -0.0585
 4872TIP3   OH236030   5.588   5.404  13.100 -0.5155 -0.3612 -0.3519
 4872TIP3    H136031   5.509   5.452  13.125  0.6134  1.4848 -0.0859
 4872TIP3    H236032   5.633   5.388  13.183 -0.0494 -0.3227 -0.5953
 4873TIP3   OH236033   3.145   2.896  16.829 -0.2707 -0.0078 -0.2920
 4873TIP3    H136034   3.123   2.896  16.922 -0.9699 -1.4188 -0.4292
 4873TIP3    H236035   3.240   2.906  16.826 -0.4304  2.4368  0.4529
 4874TIP3   OH236036   0.602   0.466   5.472  0.4783 -0.9659 -0.7287
 4874TIP3    H136037   0.631   0.474   5.563  1.1612  0.1813 -1.0277
 4874TIP3    H236038   0.535   0.397   5.474 -0.3750 -0.1471  0.8438
 4875TIP3   OH236039   3.986   1.025   2.848  0.5166  0.2101 -0.1553
 4875TIP3    H136040   4.050   0.955   2.863 -1.0405 -1.5099 -1.1387
 4875TIP3    H236041   3.902   0.980   2.842 -0.8715  2.4150  1.2972
 4876TIP3   OH236042   3.409   5.817  15.864  0.1507 -0.3979 -0.5606
 4876TIP3    H136043   3.402   5.827  15.769  3.2183 -0.4275 -0.8970
 4876TIP3    H236044   3.414   5.907  15.897 -0.1304 -0.4045 -0.4951
 4877TIP3   OH236045   1.918   2.256   2.710 -0.2083  0.1210 -0.2428
 4877TIP3    H136046   1.942   2.327   2.651 -0.2654 -0.6442 -1.2219
 4877TIP3    H236047   1.985   2.189   2.696 -1.2021 -0.8086 -0.8013
 4878TIP3   OH236048   6.419   1.840   0.386 -0.5326  0.0951 -0.4209
 4878TIP3    H136049   6.470   1.852   0.306  1.7525  0.0174  0.9444
 4878TIP3    H236050   6.341   1.793   0.357  0.5830 -0.6264 -2.4983
 4879TIP3   OH236051   4.675   6.527  13.859  0.4350 -0.0011 -1.0978
 4879TIP3    H136052   4.608   6.460  13.847  1.3687 -0.9741 -1.0262
 4879TIP3    H236053   4.742   6.484  13.912  0.4628  1.4125  0.0564
 4880TIP3   OH236054   2.258   1.793   2.878 -0.3431  0.1327  0.3614
 4880TIP3    H136055   2.237   1.740   2.802 -0.2849  1.6562 -0.7623
 4880TIP3    H236056   2.212   1.751   2.951 -1.9888 -0.2471 -0.8650
 4881TIP3   OH236057   0.886   6.094  12.474 -0.1713 -0.0015  0.2937
 4881TIP3    H136058   0.853   6.183  12.465 -0.7883 -0.3859 -1.6906
 4881TIP3    H236059   0.808   6.039  12.477  0.2021 -0.6809 -1.4005
 4882TIP3   OH236060   0.614   4.273  14.535 -0.5163 -0.3435 -0.4299
 4882TIP3    H136061   0.570   4.358  14.533 -1.4261 -0.8139 -0.9479
 4882TIP3    H236062   0.702   4.292  14.500 -0.6048  0.4326 -0.2659
 4883TIP3   OH236063   2.336   2.499   0.174  0.3717  0.0425  0.5103
 4883TIP3    H136064   2.395   2.573   0.160 -1.0325  0.5403 -4.9017
 4883TIP3    H236065   2.248   2.536   0.170 -0.3649 -1.5619  0.8620
 4884TIP3   OH236066   5.894   3.454  15.452 -0.3543 -0.4329  0.3176
 4884TIP3    H136067   5.863   3.542  15.428  2.3820  0.1140 -1.7384
 4884TIP3    H236068   5.864   3.442  15.542 -0.7636  2.6568  0.7259
 4885TIP3   OH236069   0.732   5.454   3.422 -0.7424  0.4260  0.2826
 4885TIP3    H136070   0.791   5.506   3.476 -1.1929 -0.4465  1.6492
 4885TIP3    H236071   0.759   5.473   3.332 -0.0067  1.9427  0.7891
 4886TIP3   OH236072   1.936   1.497  11.308 -0.3560 -0.8383 -0.1673
 4886TIP3    H136073   1.884   1.499  11.228  0.2883 -1.1895 -0.5956
 4886TIP3    H236074   2.023   1.525  11.281  0.1229 -1.9092  0.2136
 4887TIP3   OH236075   3.994   3.260  14.928  0.1846 -0.0107  0.3026
 4887TIP3    H136076   3.941   3.229  14.854  0.2074 -3.5787  1.5719
 4887TIP3    H236077   4.084   3.249  14.900  0.3779  3.3190 -0.7908
 4888TIP3   OH236078   5.162   3.973  15.469  0.1489  0.3345 -0.2424
 4888TIP3    H136079   5.227   4.042  15.451 -0.6101  0.8660 -1.0520
 4888TIP3    H236080   5.080   4.021  15.482 -0.1054 -0.3373  0.6921
 4889TIP3   OH236081   0.497   5.456   3.041  0.3790 -0.2760  0.2649
 4889TIP3    H136082   0.513   5.508   3.120  0.7138 -2.3372  1.6317
 4889TIP3    H236083   0.527   5.512   2.970  0.2646  1.5846  1.5789
 4890TIP3   OH236084   3.807   5.039  15.379  0.3638  0.0970 -0.1654
 4890TIP3    H136085   3.746   4.970  15.404  1.2193  0.0928  2.0914
 4890TIP3    H236086   3.863   4.999  15.312 -1.9621  0.0856 -2.2282
 4891TIP3   OH236087   0.147   3.554   1.297 -0.3328 -0.6934 -0.8774
 4891TIP3    H136088   0.217   3.593   1.349 -0.8186  0.1334 -0.8147
 4891TIP3    H236089   0.179   3.557   1.207 -1.1406  1.8092 -1.1751
 4892TIP3   OH236090   2.093   1.201  15.996 -0.1351 -0.0185  0.0097
 4892TIP3    H136091   2.091   1.276  16.056 -2.3234  0.1417 -0.2062
 4892TIP3    H236092   2.006   1.198  15.958  1.2262  0.1412 -3.5312
 4893TIP3   OH236093   4.220   1.891   6.192 -0.0795  0.3725  0.1704
 4893TIP3    H136094   4.218   1.945   6.271 -0.9967 -0.8957  1.0559
 4893TIP3    H236095   4.129   1.883   6.165  0.1672  0.2971 -0.6795
 4894TIP3   OH236096   6.806   4.179   0.452  0.6686  0.4116  0.0773
 4894TIP3    H136097   6.806   4.211   0.542  0.4372  0.5471  0.0309
 4894TIP3    H236098   6.843   4.251   0.401 -2.5227  1.8946 -0.4531
 4895TIP3   OH236099   4.249   3.573  16.338  0.6208  0.3507 -0.3960
 4895TIP3    H136100   4.189   3.498  16.348  1.0882  0.0709  0.3367
 4895TIP3    H236101   4.201   3.634  16.282 -0.8322  0.6413  1.0880
 4896TIP3   OH236102   3.782   4.434   1.701 -0.4238  0.5935 -0.1440
 4896TIP3    H136103   3.819   4.454   1.615  1.6792 -1.6723  0.1228
 4896TIP3    H236104   3.855   4.445   1.761 -0.8825 -1.2388  0.8293
 4897TIP3   OH236105   4.598   3.376  11.735 -0.1119  0.2599 -0.0667
 4897TIP3    H136106   4.564   3.359  11.647 -2.2079  0.8929  0.5655
 4897TIP3    H236107   4.526   3.420  11.781  1.5804  1.6633  1.4030
 4898TIP3   OH236108   2.964   1.563  10.672  0.2731 -0.1520 -0.3263
 4898TIP3    H136109   2.869   1.566  10.683  0.1992 -0.9133 -0.6369
 4898TIP3    H236110   2.987   1.647  10.633  0.1266  1.2302  2.3748
 4899TIP3   OH236111   2.412   1.793   1.261 -0.5364 -0.2085  0.3916
 4899TIP3    H136112   2.343   1.739   1.302 -0.0479 -0.8293  0.4096
 4899TIP3    H236113   2.421   1.868   1.320  0.8317 -1.5569  1.9932
 4900TIP3   OH236114   0.500   2.047   2.529 -0.1386  0.2767  0.5087
 4900TIP3    H136115   0.438   2.065   2.458 -0.9408  0.3988  1.2289
 4900TIP3    H236116   0.547   1.969   2.501 -0.8263  0.0094  0.0853
 4901TIP3   OH236117   2.871   6.047  12.843 -0.2575 -0.0482 -0.5161
 4901TIP3    H136118   2.906   5.975  12.896 -1.6406 -0.4439 -0.0889
 4901TIP3    H236119   2.776   6.039  12.852 -0.4526  1.6444 -0.7361
 4902TIP3   OH236120   5.929   1.949  14.444 -0.2712 -0.5786  0.3354
 4902TIP3    H136121   5.931   2.043  14.426 -1.0394 -0.7491 -0.6755
 4902TIP3    H236122   5.839   1.931  14.470  0.0525 -0.9177  1.2664
 4903TIP3   OH236123   2.177   4.856   3.105 -0.3348 -0.0200  0.0308
 4903TIP3    H136124   2.194   4.950   3.116  0.1577 -0.0787 -0.2147
 4903TIP3    H236125   2.262   4.819   3.081 -0.5931 -0.4822 -0.1786
 4904TIP3   OH236126   4.097   2.865  14.916  0.4692  0.0552  0.4631
 4904TIP3    H136127   4.054   2.933  14.968 -0.4605 -0.8625  0.9565
 4904TIP3    H236128   4.100   2.900  14.827  0.3079  0.8610  0.7676
 4905TIP3   OH236129   0.653   5.951   2.979  0.0566  0.1193  0.3918
 4905TIP3    H136130   0.632   5.931   2.888  0.7938  0.4009  0.1488
 4905TIP3    H236131   0.673   6.044   2.980 -1.7563  0.5416  1.2136
 4906TIP3   OH236132   6.553   1.986  16.145  0.2543 -0.3402  0.2003
 4906TIP3    H136133   6.490   1.965  16.077  1.0385 -0.4167 -0.5248
 4906TIP3    H236134   6.506   2.044  16.204 -0.2666  0.2188 -0.7351
 4907TIP3   OH236135   3.947   0.423   4.408  0.7360 -0.0370 -0.1744
 4907TIP3    H136136   3.943   0.439   4.502 -1.0867 -1.2983  0.0065
 4907TIP3    H236137   3.946   0.327   4.399 -0.2657  0.0688 -1.4945
 4908TIP3   OH236138   2.312   3.909   6.353 -0.3407 -0.2614  0.2648
 4908TIP3    H136139   2.226   3.947   6.365 -0.6039 -0.7238 -0.1107
 4908TIP3    H236140   2.341   3.886   6.441 -0.2234  0.6926  0.4794
 4909TIP3   OH236141   6.449   0.946  11.300  0.2353 -0.2190 -0.0231
 4909TIP3    H136142   6.496   1.009  11.353  1.1285  0.9903 -2.1177
 4909TIP3    H236143   6.374   0.995  11.265 -0.8523 -1.2384  0.7987
 4910TIP3   OH236144   5.031   6.713   4.666  0.3488  0.2832  0.4406
 4910TIP3    H136145   5.050   6.767   4.742  1.8038  0.8231 -0.2747
 4910TIP3    H236146   5.032   6.623   4.700  0.4542  0.5449  1.1435
 4911TIP3   OH236147   2.086   4.476   2.321  0.5488 -0.7708 -0.0202
 4911TIP3    H136148   2.047   4.417   2.385 -1.2358 -0.0581 -0.3923
 4911TIP3    H236149   2.034   4.555   2.326  0.6689 -0.5099 -1.9991
 4912TIP3   OH236150   1.490   3.613   0.866 -0.0137  0.7898  0.0514
 4912TIP3    H136151   1.461   3.624   0.957 -0.8166  0.7749 -0.1920
 4912TIP3    H236152   1.430   3.668   0.816  0.6419  1.0639 -0.4368
 4913TIP3   OH236153   5.982   5.532  11.546  0.0730  0.2006 -0.1912
 4913TIP3    H136154   6.016   5.451  11.584 -0.5881  0.1665  0.3433
 4913TIP3    H236155   6.010   5.529  11.455 -0.0355 -0.6808 -0.2022
 4914TIP3   OH236156   5.538   0.711   5.359 -0.2749 -0.5548 -0.0895
 4914TIP3    H136157   5.517   0.686   5.449  0.8191  1.4082  0.7851
 4914TIP3    H236158   5.474   0.779   5.338 -1.5389 -2.0798 -1.4401
 4915TIP3   OH236159   0.005   5.969  11.039  0.0682 -0.0440 -0.6963
 4915TIP3    H136160   0.022   5.877  11.021 -0.0688  0.0960 -1.5907
 4915TIP3    H236161  -0.062   5.995  10.976  0.7491  0.8944 -1.0685
 4916TIP3   OH236162   6.113   0.772  11.388  0.6084 -0.2626 -0.0650
 4916TIP3    H136163   6.145   0.760  11.299  1.1781 -0.1549  0.1143
 4916TIP3    H236164   6.193   0.776  11.441  0.2475 -3.2516  0.8440
 4917TIP3   OH236165   4.919   1.109   5.758  0.4013 -0.4351 -0.6181
 4917TIP3    H136166   4.934   1.176   5.825  0.2745 -0.2417 -0.7820
 4917TIP3    H236167   4.996   1.115   5.702  2.3629 -3.0622  1.5299
 4918TIP3   OH236168   5.852   2.367  12.187 -0.5765  0.3808 -0.2946
 4918TIP3    H136169   5.865   2.297  12.123 -1.7142  1.1684 -1.4277
 4918TIP3    H236170   5.937   2.408  12.196 -0.2896 -0.0715 -0.8973
 4919TIP3   OH236171   6.331   4.558  12.315  0.2351 -0.4570  0.3736
 4919TIP3    H136172   6.244   4.578  12.281  0.4364  0.2564  0.2531
 4919TIP3    H236173   6.318   4.551  12.410  0.5415  2.8161  0.7647
 4920TIP3   OH236174   1.797   1.473  11.083  0.2490 -0.3544 -0.3170
 4920TIP3    H136175   1.745   1.546  11.051 -0.8978 -0.4766  1.1560
 4920TIP3    H236176   1.827   1.429  11.003 -0.8183  0.4790 -1.2208
 4921TIP3   OH236177   3.870   6.073   4.706  0.1592 -0.4131 -0.4833
 4921TIP3    H136178   3.784   6.052   4.671  0.5213 -1.0812 -1.0041
 4921TIP3    H236179   3.865   6.049   4.799  0.1018 -1.4496 -0.7395
 4922TIP3   OH236180   6.612   1.045   4.426  0.4331  0.0626  0.3372
 4922TIP3    H136181   6.595   0.960   4.466 -0.2381 -0.2739 -0.6099
 4922TIP3    H236182   6.632   1.025   4.334  0.8140  0.8855  0.2286
 4923TIP3   OH236183   4.412   2.162   1.080 -0.1538  0.3748  0.5582
 4923TIP3    H136184   4.388   2.073   1.107  1.6454 -0.3154  0.0251
 4923TIP3    H236185   4.508   2.162   1.079 -0.1179  1.7912 -1.1638
 4924TIP3   OH236186   1.499   3.575  12.601 -0.0445  0.0826 -0.2189
 4924TIP3    H136187   1.585   3.538  12.580 -0.8549 -2.1772  0.1961
 4924TIP3    H236188   1.493   3.571  12.696 -1.5054 -2.0802 -0.3386
 4925TIP3   OH236189   2.736   4.110  11.260  0.0223  0.2184 -0.2405
 4925TIP3    H136190   2.792   4.146  11.191 -2.2710 -0.8234 -2.8383
 4925TIP3    H236191   2.764   4.019  11.269  1.4130  0.7567  1.5293
 4926TIP3   OH236192   3.240   2.028   4.638  0.3098 -0.0407 -0.3949
 4926TIP3    H136193   3.300   1.973   4.689  0.5103 -1.0042 -1.6149
 4926TIP3    H236194   3.177   1.966   4.601 -0.6876  0.8159 -0.1759
 4927TIP3   OH236195   2.635   2.265  13.911 -0.0064 -0.1519 -0.0340
 4927TIP3    H136196   2.556   2.267  13.964  0.1951 -0.2427  0.2756
 4927TIP3    H236197   2.605   2.243  13.823 -0.3756  0.2920 -0.0192
 4928TIP3   OH236198   3.846   5.880   1.669 -0.7095  0.4644  0.3788
 4928TIP3    H136199   3.759   5.920   1.669 -0.6532  0.6122 -0.8614
 4928TIP3    H236200   3.842   5.814   1.599  1.0574  2.5349 -1.8251
 4929TIP3   OH236201   1.351   1.058   3.538 -0.7660  0.2264  0.5234
 4929TIP3    H136202   1.298   1.086   3.463 -1.9494 -1.1141  0.8201
 4929TIP3    H236203   1.436   1.100   3.524 -1.7245  2.0333 -0.2308
 4930TIP3   OH236204   1.785   3.238  13.060  0.1332 -0.2829  0.4024
 4930TIP3    H136205   1.855   3.181  13.093  1.5280  1.5988  0.8689
 4930TIP3    H236206   1.750   3.192  12.984  2.4579 -0.8982 -0.3517
 4931TIP3   OH236207   1.441   2.408   5.417  0.7344  0.2309  0.0023
 4931TIP3    H136208   1.456   2.494   5.457 -1.2519  0.8324 -0.4495
 4931TIP3    H236209   1.392   2.359   5.482  0.9094 -0.1912 -0.1769
 4932TIP3   OH236210   6.340   4.431  15.245  0.0464 -0.2197 -0.2606
 4932TIP3    H136211   6.405   4.400  15.183  1.7178  0.5292  1.0367
 4932TIP3    H236212   6.333   4.361  15.310  2.2187  1.0507  1.4863
 4933TIP3   OH236213   0.427   2.803   1.958 -0.0378 -0.1773 -0.0764
 4933TIP3    H136214   0.381   2.799   2.042  0.2007 -0.6633  0.0351
 4933TIP3    H236215   0.516   2.773   1.978 -0.6547 -2.8693 -0.9775
 4934TIP3   OH236216   2.255   3.042   4.522  0.0722 -0.6168  0.3740
 4934TIP3    H136217   2.287   3.093   4.448  2.2152 -0.5811  1.2375
 4934TIP3    H236218   2.267   2.951   4.495 -1.5084 -0.6671 -0.2473
 4935TIP3   OH236219   4.646   3.118   2.263  0.0714 -0.5008  0.0957
 4935TIP3    H136220   4.588   3.136   2.337  0.5073  1.5785  0.0011
 4935TIP3    H236221   4.721   3.177   2.276  0.1505 -0.0664 -1.9988
 4936TIP3   OH236222   2.060   0.530  15.005  0.3902  0.0456 -0.9571
 4936TIP3    H136223   1.982   0.476  15.016  1.1211 -1.3965 -2.4336
 4936TIP3    H236224   2.036   0.594  14.937  0.7048 -0.8870 -1.9675
 4937TIP3   OH236225   3.140   0.549  13.879 -0.4153 -0.5296  0.1947
 4937TIP3    H136226   3.213   0.498  13.914  0.9636  1.2488  0.0818
 4937TIP3    H236227   3.131   0.519  13.788 -0.4039 -1.3782  0.4744
 4938TIP3   OH236228   2.303   3.777   3.082 -0.4790  0.2832  0.2442
 4938TIP3    H136229   2.350   3.832   3.144  0.4924 -1.8496  1.5149
 4938TIP3    H236230   2.346   3.794   2.998  0.8745  0.3041  0.9054
 4939TIP3   OH236231   4.567   3.315  15.091 -0.2874 -0.3134  0.5958
 4939TIP3    H136232   4.637   3.320  15.157  0.5070  3.0242 -0.2988
 4939TIP3    H236233   4.613   3.315  15.007 -1.3399 -0.2374  0.0047
 4940TIP3   OH236234   5.086   6.036   2.348 -0.1642  0.1036  0.0575
 4940TIP3    H136235   5.119   6.107   2.403 -1.1448  1.3490 -0.8911
 4940TIP3    H236236   5.145   5.962   2.365 -0.4042  0.4472  2.6749
 4941TIP3   OH236237   2.046   5.594   0.848  0.4434  0.0610  0.0753
 4941TIP3    H136238   2.051   5.527   0.916 -0.4077  0.4836  0.5771
 4941TIP3    H236239   1.998   5.666   0.889 -0.4109  0.1891 -1.0837
 4942TIP3   OH236240   3.423   3.904   4.580  0.0371  0.0446 -0.3490
 4942TIP3    H136241   3.444   3.878   4.669 -0.2602  2.0259  0.3590
 4942TIP3    H236242   3.483   3.977   4.562  0.0201 -0.2573 -1.7473
 4943TIP3   OH236243   2.535   5.733   3.479 -0.6765  0.0485 -0.1687
 4943TIP3    H136244   2.630   5.742   3.486 -0.7135  0.7320 -0.4480
 4943TIP3    H236245   2.515   5.654   3.528 -0.3716  1.8040  3.0665
 4944TIP3   OH236246   3.792   1.702   2.075  0.3990  0.3292  0.0181
 4944TIP3    H136247   3.759   1.776   2.126 -0.5146  1.7569 -2.4720
 4944TIP3    H236248   3.722   1.637   2.079 -1.5196  2.0677 -2.6071
 4945TIP3   OH236249   0.557   6.020  16.964  0.0110  0.0244 -0.2187
 4945TIP3    H136250   0.571   6.086  17.032  1.2334 -0.8781  0.4380
 4945TIP3    H236251   0.556   5.936  17.011  2.7327 -0.8100 -1.4404
 4946TIP3   OH236252   1.414   5.501   6.280 -0.2345  0.2970  0.3479
 4946TIP3    H136253   1.398   5.468   6.368  0.7847 -0.3816  0.2871
 4946TIP3    H236254   1.502   5.538   6.283 -0.3620  0.6776 -0.2784
 4947TIP3   OH236255   5.965   5.071   3.675 -0.3126 -0.3830 -0.1075
 4947TIP3    H136256   6.023   5.067   3.598  0.6327  0.1948  0.5555
 4947TIP3    H236257   6.001   5.006   3.735 -0.4127 -0.0962  0.2662
 4948TIP3   OH236258   4.930   5.232  12.751 -0.3378  0.4584 -0.0064
 4948TIP3    H136259   5.007   5.288  12.748  1.3161 -1.7071 -0.6598
 4948TIP3    H236260   4.912   5.221  12.845  1.9149 -1.1460  0.3361
 4949TIP3   OH236261   3.200   0.177   3.299  1.0212  0.2773  0.8031
 4949TIP3    H136262   3.155   0.147   3.378 -0.5705 -0.0847 -0.1920
 4949TIP3    H236263   3.165   0.265   3.283 -0.2580 -0.4139 -0.5751
 4950TIP3   OH236264   6.634   0.481   0.658  0.0475  0.2778 -0.9142
 4950TIP3    H136265   6.674   0.402   0.695  0.5241 -0.1107 -2.2039
 4950TIP3    H236266   6.591   0.523   0.732  0.9338 -0.4855  0.0647
 4951TIP3   OH236267   3.323   2.699  10.979  0.0248  0.6656  0.2878
 4951TIP3    H136268   3.375   2.759  11.033 -0.4871 -0.1654  1.7707
 4951TIP3    H236269   3.387   2.634  10.948  0.4512  1.5565 -0.7278
 4952TIP3   OH236270   3.739   6.019   3.887 -0.0806  0.2329  0.4134
 4952TIP3    H136271   3.691   6.068   3.954  0.5525  1.1566  0.2258
 4952TIP3    H236272   3.676   5.956   3.853 -0.9072  0.8569  0.7422
 4953TIP3   OH236273   5.250   5.912   0.008  0.7068 -0.1588 -0.9880
 4953TIP3    H136274   5.321   5.952   0.059 -0.2623  0.9952 -0.4986
 4953TIP3    H236275   5.205   5.855   0.071  0.1916  0.4049 -0.8359
 4954TIP3   OH236276   2.307   4.205   4.415  0.1799 -0.7551 -0.8923
 4954TIP3    H136277   2.353   4.158   4.485 -0.0512  1.1501  0.6276
 4954TIP3    H236278   2.340   4.166   4.334  1.6504 -1.9696  0.2379
 4955TIP3   OH236279   1.622   4.223   1.792  0.0716  0.5638  0.1737
 4955TIP3    H136280   1.617   4.224   1.887  3.8130 -1.4324  0.5743
 4955TIP3    H236281   1.687   4.290   1.771  0.3187  0.0331 -0.8425
 4956TIP3   OH236282   4.084   3.431  14.093 -0.2163 -0.0023  0.2928
 4956TIP3    H136283   4.057   3.517  14.125  0.2557 -0.0551  0.8544
 4956TIP3    H236284   4.171   3.446  14.056 -0.4928 -0.0696 -0.4060
 4957TIP3   OH236285   0.057   1.188  11.967 -0.3197  0.0861 -0.2277
 4957TIP3    H136286   0.114   1.233  12.028 -0.0825  1.1802 -1.2304
 4957TIP3    H236287  -0.009   1.145  12.023 -0.9766  2.2402  0.7483
 4958TIP3   OH236288   4.802   0.864  15.850 -0.0317 -0.3371 -0.0987
 4958TIP3    H136289   4.864   0.894  15.783 -0.6648  1.8919  0.2672
 4958TIP3    H236290   4.853   0.802  15.903  2.0394  1.6280  0.3643
 4959TIP3   OH236291   5.411   3.910   0.108  0.1234 -0.3416 -0.0440
 4959TIP3    H136292   5.356   3.857   0.050 -0.4462 -0.8892  0.9739
 4959TIP3    H236293   5.494   3.918   0.060 -1.0310  1.1072 -1.9154
 4960TIP3   OH236294   4.125   5.191  15.017 -0.2934  0.2029 -0.1648
 4960TIP3    H136295   4.161   5.112  14.977  0.4860 -0.3263  1.5049
 4960TIP3    H236296   4.030   5.176  15.020 -0.1892 -0.4660 -0.2551
 4961TIP3   OH236297   0.102   0.616  14.752 -0.0648 -0.7802 -0.1658
 4961TIP3    H136298   0.093   0.578  14.665  0.5189 -4.5943  1.2474
 4961TIP3    H236299   0.187   0.661  14.751  0.2709 -1.4192 -1.3586
 4962TIP3   OH236300   6.622   5.892  13.365  0.3081 -0.5590 -0.4845
 4962TIP3    H136301   6.598   5.985  13.359 -0.0720 -0.7323 -2.0346
 4962TIP3    H236302   6.544   5.850  13.400 -0.6592 -0.6913 -2.6672
 4963TIP3   OH236303   4.911   5.453   1.418 -0.2882 -0.6003 -0.1032
 4963TIP3    H136304   4.867   5.517   1.474 -0.2232 -0.9665  0.3702
 4963TIP3    H236305   4.843   5.426   1.356 -0.9576 -1.6611  1.0422
 4964TIP3   OH236306   2.570   5.244   5.102  0.4589  0.2584 -0.1455
 4964TIP3    H136307   2.649   5.199   5.132  0.6165  1.0555  0.6843
 4964TIP3    H236308   2.519   5.176   5.057  0.1244 -1.0655  2.1000
 4965TIP3   OH236309   2.049   2.455  12.558  0.3690 -0.0541 -0.5589
 4965TIP3    H136310   2.086   2.493  12.638  1.2785 -1.1814 -0.4076
 4965TIP3    H236311   2.026   2.530  12.503  0.6694  0.7162  0.3515
 4966TIP3   OH236312   3.502   5.647   0.654  0.3757  0.0722 -0.1120
 4966TIP3    H136313   3.414   5.616   0.676  0.3111  0.2924 -0.0565
 4966TIP3    H236314   3.541   5.670   0.739  0.5210 -0.1175 -0.1278
 4967TIP3   OH236315   1.920   0.344   0.761 -0.0311 -0.0852  0.0612
 4967TIP3    H136316   1.974   0.279   0.716  0.1503  0.9219 -1.2211
 4967TIP3    H236317   1.834   0.336   0.720  0.0776  0.7032 -0.3320
 4968TIP3   OH236318   6.787   2.896   3.873 -0.1135  0.7968  0.1914
 4968TIP3    H136319   6.872   2.864   3.905  0.8613  1.3682 -1.6718
 4968TIP3    H236320   6.725   2.828   3.899  1.3208 -0.8889 -0.5446
 4969TIP3   OH236321   6.230   4.223   3.383 -0.3913 -0.3422 -0.1687
 4969TIP3    H136322   6.160   4.208   3.446  0.6403 -3.4824  0.4177
 4969TIP3    H236323   6.230   4.146   3.327  2.8331 -0.7678  0.1833
 4970TIP3   OH236324   6.082   0.126   5.853  0.1444 -0.5637  0.5396
 4970TIP3    H136325   6.096   0.164   5.766  1.0583 -1.6654  0.1844
 4970TIP3    H236326   6.130   0.184   5.913 -0.2875  0.0616  0.2833
 4971TIP3   OH236327   3.045   6.258  11.697 -0.6266 -0.0682 -0.5521
 4971TIP3    H136328   2.962   6.247  11.651 -1.0880  1.9919 -0.3418
 4971TIP3    H236329   3.052   6.181  11.753 -2.1674 -0.5164 -0.9179
 4972TIP3   OH236330   3.900   2.453  16.579 -0.3446  0.0063  0.0572
 4972TIP3    H136331   3.820   2.403  16.597  0.8019 -2.9432 -2.1614
 4972TIP3    H236332   3.950   2.448  16.662 -1.0338 -1.1037  0.4339
 4973TIP3   OH236333   3.132   5.760  11.750 -0.2326 -0.0085 -0.1930
 4973TIP3    H136334   3.039   5.741  11.737 -0.3010 -1.3489  1.8085
 4973TIP3    H236335   3.178   5.696  11.697 -0.4257  0.5663 -1.0756
 4974TIP3   OH236336   3.307   2.633  15.731  0.5780 -0.4502  0.3718
 4974TIP3    H136337   3.226   2.615  15.779  1.0115 -1.1381  0.8584
 4974TIP3    H236338   3.328   2.551  15.688  0.3804  0.0681 -0.7371
 4975TIP3   OH236339   5.583   0.801   3.165  0.1686  0.1871  0.4689
 4975TIP3    H136340   5.640   0.813   3.088 -1.8954  0.8397 -1.0480
 4975TIP3    H236341   5.504   0.759   3.129 -0.4501 -0.4220  2.4423
 4976TIP3   OH236342   4.164   1.375  15.533 -0.1006  0.1633  0.3501
 4976TIP3    H136343   4.205   1.323  15.464 -0.4754 -0.4870  0.6026
 4976TIP3    H236344   4.092   1.420  15.490 -0.6555 -0.6453  0.4135
 4977TIP3   OH236345   6.088   1.154   4.501 -0.0812  1.0919 -0.6472
 4977TIP3    H136346   6.104   1.196   4.585  0.7647  1.6781 -1.0972
 4977TIP3    H236347   6.149   1.080   4.499 -1.4142 -0.0740  0.0503
 4978TIP3   OH236348   5.448   6.353   0.818 -0.0003 -0.0289  0.1877
 4978TIP3    H136349   5.381   6.330   0.883  0.9642  0.6636  1.4834
 4978TIP3    H236350   5.515   6.285   0.827 -0.4797 -0.6931 -1.0693
 4979TIP3   OH236351   5.806   5.764  14.093 -0.0993 -0.7002 -0.3863
 4979TIP3    H136352   5.871   5.772  14.163 -2.3777  0.9568  1.7050
 4979TIP3    H236353   5.788   5.671  14.087  1.8185 -1.1096 -0.4659
 4980TIP3   OH236354   3.763   4.742   4.897 -0.2911 -0.0071 -0.4360
 4980TIP3    H136355   3.822   4.809   4.932  1.6870 -2.1008  0.5501
 4980TIP3    H236356   3.709   4.716   4.971  0.5140 -1.0039 -0.1615
 4981TIP3   OH236357   3.740   3.462   1.889  0.9064 -0.4188 -0.0450
 4981TIP3    H136358   3.735   3.487   1.797 -1.5791  0.8850  0.3679
 4981TIP3    H236359   3.651   3.434   1.911  1.3900 -0.4912  2.0233
 4982TIP3   OH236360   3.215   6.702   2.169 -0.0986 -0.2169 -0.5361
 4982TIP3    H136361   3.154   6.732   2.102 -2.8018 -1.5271  1.1214
 4982TIP3    H236362   3.277   6.646   2.122 -0.8515  0.2407 -2.1511
 4983TIP3   OH236363   3.612   2.251  11.349 -0.0674  0.0168  0.6883
 4983TIP3    H136364   3.616   2.217  11.259 -0.2689 -1.2218  1.1369
 4983TIP3    H236365   3.536   2.207  11.388  0.4524 -0.0124  1.6937
 4984TIP3   OH236366   0.503   4.524   5.292 -0.0569  0.3917 -0.0646
 4984TIP3    H136367   0.500   4.612   5.331  0.2303 -0.9262  3.2405
 4984TIP3    H236368   0.426   4.480   5.327  1.9375 -1.8783  1.7422
 4985TIP3   OH236369   6.040   3.266   3.583 -0.4704  0.6544  0.1437
 4985TIP3    H136370   6.054   3.244   3.675 -3.3127 -0.1150  0.4911
 4985TIP3    H236371   5.957   3.314   3.582 -0.7225  0.2915 -2.0531
 4986TIP3   OH236372   1.973   3.911  16.475 -0.4551 -0.1760 -0.3503
 4986TIP3    H136373   1.936   3.974  16.538  1.3707  1.0847 -0.4534
 4986TIP3    H236374   1.989   3.832  16.526  0.6975  0.7217  0.7572
 4987TIP3   OH236375   0.693   1.158   2.914  0.0423 -0.7369 -1.0086
 4987TIP3    H136376   0.612   1.108   2.911  0.7709 -2.0113 -0.1911
 4987TIP3    H236377   0.757   1.099   2.953  1.6139 -0.0935 -2.4631
 4988TIP3   OH236378   1.017   6.608   1.096 -0.2784  0.3175 -0.3263
 4988TIP3    H136379   0.942   6.565   1.056 -0.5219  1.1351 -0.7723
 4988TIP3    H236380   1.090   6.589   1.037 -0.6131  1.4208 -1.1200
 4989TIP3   OH236381   3.570   4.194   1.600  0.4625 -0.2643  0.1480
 4989TIP3    H136382   3.608   4.191   1.688 -2.5286  0.5577  1.5905
 4989TIP3    H236383   3.489   4.143   1.607 -0.3436  0.6399 -1.8572
 4990TIP3   OH236384   6.205   3.238  13.212 -0.2198  0.3014  0.4441
 4990TIP3    H136385   6.162   3.278  13.136 -0.4259 -0.3118  0.2374
 4990TIP3    H236386   6.207   3.145  13.192 -0.7339  0.0764  1.4221
 4991TIP3   OH236387   0.595   4.596   1.172 -0.4882  0.3907  0.3585
 4991TIP3    H136388   0.669   4.604   1.111 -0.8080  1.9221  0.1454
 4991TIP3    H236389   0.635   4.595   1.259 -0.1359 -0.2241  0.1959
 4992TIP3   OH236390   5.777   6.116  16.395 -0.7458  0.2363  0.1209
 4992TIP3    H136391   5.692   6.140  16.359 -0.5186  0.4615 -0.2712
 4992TIP3    H236392   5.793   6.027  16.362 -1.0519 -0.0015  0.6032
 4993TIP3   OH236393   0.655   4.568  13.931  0.3975  0.2703  0.4131
 4993TIP3    H136394   0.614   4.516  13.863 -1.5836  0.7349  1.1824
 4993TIP3    H236395   0.726   4.615  13.887  0.0398 -0.4697 -0.9923
 4994TIP3   OH236396   5.455   1.041   3.313 -0.5978 -0.0858 -0.0829
 4994TIP3    H136397   5.501   1.057   3.395  1.8205  1.0005 -1.5456
 4994TIP3    H236398   5.472   0.949   3.293 -0.7096 -0.1992  0.3371
 4995TIP3   OH236399   0.237   1.955  13.689  0.1570  0.2539  0.3136
 4995TIP3    H136400   0.230   1.964  13.594 -1.0166  0.8183  0.4376
 4995TIP3    H236401   0.315   1.901  13.702  1.9403  2.3489 -0.8728
 4996TIP3   OH236402   5.947   6.286  11.664  0.1295  0.2781  0.6151
 4996TIP3    H136403   5.853   6.276  11.651  0.1855  0.3301  0.1558
 4996TIP3    H236404   5.987   6.224  11.603  0.4448  2.1203 -1.1683
 4997TIP3   OH236405   5.636   5.751  12.998  0.2952  0.6020  0.3179
 4997TIP3    H136406   5.601   5.729  13.084 -4.1622 -0.3881 -1.4390
 4997TIP3    H236407   5.643   5.846  12.999  0.3174  0.6038  1.7753
 4998TIP3   OH236408   1.584   1.630   5.572 -0.1781 -0.2944 -0.0107
 4998TIP3    H136409   1.514   1.575   5.537 -0.6787  0.2982  0.0445
 4998TIP3    H236410   1.657   1.570   5.585 -1.6088 -1.6007  2.8318
 4999TIP3   OH236411   3.145   0.901  16.270 -0.0902 -0.7429 -0.1564
 4999TIP3    H136412   3.198   0.980  16.257 -0.8031 -0.4851 -1.6414
 4999TIP3    H236413   3.080   0.926  16.336  0.1879 -0.3517 -0.0275
 5000TIP3   OH236414   3.180   4.237   2.141 -0.2276  0.4710  0.2284
 5000TIP3    H136415   3.136   4.283   2.212 -3.0573 -0.5676 -0.7395
 5000TIP3    H236416   3.224   4.163   2.184 -1.3599  0.2209  1.0147
 5001TIP3   OH236417   1.437   3.674   5.215 -0.2832  0.2937 -0.6535
 5001TIP3    H136418   1.445   3.592   5.263 -0.4661 -0.2492 -1.5230
 5001TIP3    H236419   1.523   3.687   5.175 -0.0373  0.9017  0.0537
 5002TIP3   OH236420   1.677   4.117  11.144 -0.3192 -0.5418 -0.1597
 5002TIP3    H136421   1.654   4.208  11.164  0.6517 -0.5350  1.1097
 5002TIP3    H236422   1.735   4.123  11.068 -1.4714 -0.2518 -1.0342
 5003TIP3   OH236423   3.948   0.063  15.179 -0.9288  0.1648 -0.3000
 5003TIP3    H136424   3.882   0.039  15.114  0.0137 -1.9068 -0.5908
 5003TIP3    H236425   3.964  -0.018  15.228 -0.2887  1.2171  1.3299
 5004TIP3   OH236426   6.381   3.271   3.835 -0.2340  0.4656  0.1290
 5004TIP3    H136427   6.384   3.323   3.755  1.7505 -1.5591 -1.2055
 5004TIP3    H236428   6.425   3.325   3.900  1.5490  0.6338 -1.1538
 5005TIP3   OH236429   3.115   1.128   2.275 -0.1733 -0.2089 -0.2095
 5005TIP3    H136430   3.154   1.209   2.242  2.1852 -1.3234 -0.3697
 5005TIP3    H236431   3.169   1.104   2.350 -0.7651 -1.6652 -0.2117
 5006TIP3   OH236432   3.281   2.573   3.115 -0.2909  0.0676  0.2331
 5006TIP3    H136433   3.335   2.649   3.136  0.4361 -0.2851 -0.2967
 5006TIP3    H236434   3.299   2.556   3.022  1.6467 -2.3593  0.9457
 5007TIP3   OH236435   1.821   3.983   0.421  0.4512  0.1689  0.7825
 5007TIP3    H136436   1.815   3.889   0.438  0.2161 -0.0953 -0.6242
 5007TIP3    H236437   1.901   4.011   0.466  1.8645 -1.2038 -0.7541
 5008TIP3   OH236438   0.897   3.086  13.233 -0.3920 -0.1967 -0.7990
 5008TIP3    H136439   0.991   3.071  13.220 -0.3205  0.1912 -0.7264
 5008TIP3    H236440   0.891   3.169  13.280 -0.7823 -0.0714 -1.0587
 5009TIP3   OH236441   1.197   5.424   4.304  0.0348  0.5236 -0.6056
 5009TIP3    H136442   1.134   5.366   4.347  0.6384  0.6863  0.5256
 5009TIP3    H236443   1.212   5.384   4.219 -1.5798  0.4670 -0.8963
 5010TIP3   OH236444   2.982   4.306  16.792  0.2856 -0.3878  0.1588
 5010TIP3    H136445   2.957   4.213  16.798  1.0172 -0.7437 -1.7771
 5010TIP3    H236446   2.904   4.349  16.758  0.6963 -0.7236 -1.2849
 5011TIP3   OH236447   6.410   2.663  14.083  0.0736 -0.5250 -0.0082
 5011TIP3    H136448   6.449   2.597  14.025  0.6527 -1.0877  0.9951
 5011TIP3    H236449   6.369   2.726  14.024  0.9681 -0.8837 -1.0450
 5012TIP3   OH236450   5.102   0.149  14.102  0.1808 -0.1844 -0.2024
 5012TIP3    H136451   5.122   0.090  14.174  0.0121 -0.6155 -0.5034
 5012TIP3    H236452   5.014   0.181  14.121  0.9777  1.4737  0.9609
 5013TIP3   OH236453   2.310   2.943  14.874  0.2333 -0.3566 -0.4640
 5013TIP3    H136454   2.299   2.848  14.867 -2.0934 -0.0655 -1.9147
 5013TIP3    H236455   2.400   2.955  14.902  0.8280 -2.9794 -1.0143
 5014TIP3   OH236456   1.204   6.487  14.044  0.9074  0.5584  0.6790
 5014TIP3    H136457   1.254   6.462  13.966  0.2446  2.3779 -0.3835
 5014TIP3    H236458   1.132   6.424  14.049  0.9721  0.4153 -0.1656
 5015TIP3   OH236459   4.158   2.218   1.858 -0.4277  0.0385 -0.2274
 5015TIP3    H136460   4.108   2.137   1.858  1.3619 -1.1352 -0.1494
 5015TIP3    H236461   4.178   2.234   1.951 -0.3209  0.2765 -0.2902
 5016TIP3   OH236462   4.505   6.584   1.499  0.0572  0.2529  0.0188
 5016TIP3    H136463   4.445   6.529   1.550 -1.5073  2.4064  0.6370
 5016TIP3    H236464   4.591   6.544   1.512 -1.0025 -2.1053  0.2886
 5017TIP3   OH236465   2.290   4.396   2.798  0.5182 -0.3153 -0.0715
 5017TIP3    H136466   2.301   4.418   2.890  0.5935  0.8224 -0.3365
 5017TIP3    H236467   2.369   4.429   2.756 -0.9478  2.3266 -1.0403
 5018TIP3   OH236468   4.373   1.368  14.296 -0.2447  0.0529 -0.0116
 5018TIP3    H136469   4.353   1.275  14.301  2.4155 -0.8349 -2.6170
 5018TIP3    H236470   4.455   1.378  14.345 -0.8637  1.1952  0.8390
 5019TIP3   OH236471   1.507   4.857   5.021 -0.3576 -0.5497  0.5490
 5019TIP3    H136472   1.465   4.857   4.935  0.5588  0.8311  0.0757
 5019TIP3    H236473   1.587   4.805   5.009 -1.0272 -1.7422  1.0194
 5020TIP3   OH236474   0.263   5.499  13.168  0.0477 -0.0974  0.0344
 5020TIP3    H136475   0.251   5.407  13.144 -1.5337  0.0370  0.1609
 5020TIP3    H236476   0.280   5.497  13.262  0.8279 -0.3017 -0.1065
 5021TIP3   OH236477   3.533   6.083   1.169  0.6222 -0.0813 -0.2432
 5021TIP3    H136478   3.601   6.135   1.125  0.9323  1.3879  1.8289
 5021TIP3    H236479   3.468   6.066   1.100 -0.0611  4.0286 -0.9000
 5022TIP3   OH236480   2.527   3.673   0.888 -0.1004  0.2327 -0.7695
 5022TIP3    H136481   2.621   3.689   0.878 -0.1794  1.5573  0.3019
 5022TIP3    H236482   2.504   3.718   0.969 -1.4633 -0.9876 -0.4487
 5023TIP3   OH236483   0.293   5.472  11.377  0.4594  0.4993  1.0360
 5023TIP3    H136484   0.255   5.391  11.343  0.2785  0.6100  0.9762
 5023TIP3    H236485   0.218   5.523  11.406  0.0172  2.7919 -3.3215
 5024TIP3   OH236486   1.724   0.275   2.291  0.0232 -0.1713 -0.1088
 5024TIP3    H136487   1.720   0.277   2.196 -2.0507  0.1416 -0.0788
 5024TIP3    H236488   1.695   0.363   2.318 -3.0632 -1.3140  0.7706
 5025TIP3   OH236489   0.771   6.427   5.341 -0.6679 -0.2986 -0.4486
 5025TIP3    H136490   0.693   6.461   5.297  0.3645  0.2243 -1.9583
 5025TIP3    H236491   0.775   6.474   5.424 -1.8174 -0.1529 -0.4660
 5026TIP3   OH236492   3.891   2.976  14.174  0.1453  0.1062  0.1419
 5026TIP3    H136493   3.879   2.896  14.122 -1.1202  0.2516  0.1780
 5026TIP3    H236494   3.946   3.032  14.120 -0.3080 -0.1489 -0.6001
 5027TIP3   OH236495   6.050   2.004  16.394  0.1909  0.4795 -0.4021
 5027TIP3    H136496   6.026   2.095  16.377 -1.4459  0.0429 -0.6117
 5027TIP3    H236497   5.969   1.964  16.425  1.4965 -0.3027  2.2872
 5028TIP3   OH236498   5.232   3.437  15.288 -0.5842  0.8680  0.0528
 5028TIP3    H136499   5.243   3.531  15.298  0.8800  0.7721 -0.4602
 5028TIP3    H236500   5.266   3.400  15.370 -0.7385  0.7647  0.0716
 5029TIP3   OH236501   6.046   3.027  12.403  0.5169  0.1010  0.5469
 5029TIP3    H136502   5.971   3.085  12.390  0.4224 -0.2304 -0.5618
 5029TIP3    H236503   6.089   3.025  12.317  1.9432  0.4861  1.2218
 5030TIP3   OH236504   5.600   3.798  13.693  0.1683 -0.1635  0.5735
 5030TIP3    H136505   5.642   3.721  13.731  0.8123  0.9839  2.3425
 5030TIP3    H236506   5.667   3.866  13.698 -0.7353  0.7933  0.0592
 5031TIP3   OH236507   4.380   4.080   0.197 -0.2224  0.4443  0.1068
 5031TIP3    H136508   4.394   4.174   0.189  1.0353  0.1772 -1.1740
 5031TIP3    H236509   4.468   4.043   0.203 -0.6239 -0.7634 -1.0464
 5032TIP3   OH236510   0.787   3.332   1.186  0.4785 -0.7386  0.0459
 5032TIP3    H136511   0.755   3.364   1.270  1.0051  0.2945 -0.1333
 5032TIP3    H236512   0.787   3.410   1.130 -0.7505 -1.5828 -1.1929
 5033TIP3   OH236513   1.452   1.182   4.581 -0.0083 -0.1404  0.0646
 5033TIP3    H136514   1.481   1.233   4.656  0.1737 -1.0431  0.6170
 5033TIP3    H236515   1.395   1.115   4.617 -0.3011 -0.2972 -0.6598
 5034TIP3   OH236516   1.276   0.763  16.273 -0.1756  0.5702  0.1479
 5034TIP3    H136517   1.357   0.765  16.323  0.0161 -1.2612 -0.0516
 5034TIP3    H236518   1.270   0.851  16.234  1.7219  0.7204  0.1139
 5035TIP3   OH236519   0.579   5.190  14.912 -0.0749  0.0225  0.5032
 5035TIP3    H136520   0.533   5.172  14.830  0.7108 -0.0131  0.0610
 5035TIP3    H236521   0.621   5.107  14.934 -1.2988 -0.3504  1.6324
 5036TIP3   OH236522   6.503   6.680   4.419 -0.3407  0.2161 -0.3493
 5036TIP3    H136523   6.495   6.669   4.324 -1.1291  0.8173 -0.3596
 5036TIP3    H236524   6.528   6.593   4.450  1.9437  0.4459 -1.2902
 5037TIP3   OH236525   5.341   2.047   2.736 -0.0943 -0.2642 -0.1884
 5037TIP3    H136526   5.327   2.020   2.646 -4.4114  0.7608 -0.0186
 5037TIP3    H236527   5.324   1.969   2.789  2.7440 -0.9539 -0.0875
 5038TIP3   OH236528   0.592   6.153   3.199  0.4990 -0.3898  0.4997
 5038TIP3    H136529   0.680   6.178   3.169  0.0980  0.6692  0.1646
 5038TIP3    H236530   0.599   6.152   3.295  0.8956 -0.3618  0.4726
 5039TIP3   OH236531   4.443   4.647   0.243 -0.0529 -0.2809 -0.8250
 5039TIP3    H136532   4.529   4.687   0.257 -0.1617 -0.5271  0.6949
 5039TIP3    H236533   4.430   4.650   0.148  0.8657  1.3386 -0.9212
 5040TIP3   OH236534   1.586   0.384  16.039  0.2662 -0.2093 -0.2612
 5040TIP3    H136535   1.596   0.321  16.110  0.0993  1.1528  1.0144
 5040TIP3    H236536   1.549   0.462  16.080  1.4227  1.1102 -1.5713
 5041TIP3   OH236537   4.994   3.168  12.294 -0.3676 -0.1342 -0.5910
 5041TIP3    H136538   4.997   3.164  12.389 -0.5386 -2.6065 -0.6115
 5041TIP3    H236539   5.018   3.257  12.272 -1.1444  0.7309  1.7933
 5042TIP3   OH236540   4.316   2.847  11.341 -0.1998  0.0566 -0.3883
 5042TIP3    H136541   4.356   2.884  11.263  0.1079 -0.4216 -0.4630
 5042TIP3    H236542   4.224   2.831  11.316  0.0486 -0.6908 -0.8724
 5043TIP3   OH236543   0.318   6.482   2.338 -0.2934  0.3599 -0.0754
 5043TIP3    H136544   0.393   6.439   2.379 -0.8427  1.3718  2.0902
 5043TIP3    H236545   0.337   6.477   2.244  0.6207 -2.7471  0.1739
 5044TIP3   OH236546   3.318   4.438   1.234  0.5523  0.0967  0.3982
 5044TIP3    H136547   3.281   4.366   1.183  1.3730 -0.3103  0.3692
 5044TIP3    H236548   3.387   4.397   1.287 -0.2255  0.5065  1.8003
 5045TIP3   OH236549   5.887   5.373   6.142  0.4575  0.6355  0.1976
 5045TIP3    H136550   5.848   5.460   6.151  0.2901  0.4238  1.7534
 5045TIP3    H236551   5.977   5.385   6.173  0.4769  0.2816  0.2748
 5046TIP3   OH236552   5.775   4.439   5.130  0.5016  0.4915  0.5826
 5046TIP3    H136553   5.690   4.418   5.168 -0.2397  0.0341 -1.2276
 5046TIP3    H236554   5.812   4.355   5.103 -0.2769  0.9187 -2.1983
 5047TIP3   OH236555   0.858   0.539   4.529 -0.1976 -0.1594 -0.2680
 5047TIP3    H136556   0.792   0.521   4.462  0.6000 -0.4785 -0.9753
 5047TIP3    H236557   0.917   0.602   4.489  0.5251 -0.6738 -0.0280
 5048TIP3   OH236558   6.315   5.336  11.355 -0.9707 -0.4204 -0.1719
 5048TIP3    H136559   6.364   5.256  11.339  2.4067  1.1854  1.2049
 5048TIP3    H236560   6.275   5.323  11.441  0.7147 -0.1685  0.6776
 5049TIP3   OH236561   4.553   2.068   2.389  0.3510 -0.4342  0.6923
 5049TIP3    H136562   4.532   2.033   2.476  1.3043 -1.6746  0.4469
 5049TIP3    H236563   4.487   2.136   2.374  0.8580  0.6454  2.8795
 5050TIP3   OH236564   4.879   6.611  12.650 -0.3311 -0.0295  0.0724
 5050TIP3    H136565   4.795   6.592  12.607  0.6168 -1.2432 -1.3241
 5050TIP3    H236566   4.920   6.676  12.594  0.5070 -0.9111 -0.3622
 5051TIP3   OH236567   0.382   3.711   2.643  0.9657  0.4007  0.2458
 5051TIP3    H136568   0.359   3.669   2.560  2.3655  0.7650 -0.3578
 5051TIP3    H236569   0.350   3.800   2.634 -0.1960  0.0477  0.7112
 5052TIP3   OH236570   2.000   5.260   4.374  0.5977 -0.1385 -0.7133
 5052TIP3    H136571   1.967   5.345   4.343  1.8873  0.8493  0.4599
 5052TIP3    H236572   1.922   5.208   4.390 -0.1993  0.4441 -2.4411
 5053TIP3   OH236573   3.425   2.762   1.590 -0.1893  0.0313  0.3753
 5053TIP3    H136574   3.359   2.697   1.567 -1.8794  1.1874  1.7075
 5053TIP3    H236575   3.503   2.735   1.542 -1.4920 -1.6315 -0.9268
 5054TIP3   OH236576   6.033   5.468  15.711 -0.8152 -0.0700 -0.4085
 5054TIP3    H136577   5.996   5.461  15.800  0.0946 -2.4392 -0.1289
 5054TIP3    H236578   6.027   5.561  15.690 -2.6665  0.3127  1.4319
 5055TIP3   OH236579   2.342   4.650  15.125 -0.6436  0.2912 -0.3187
 5055TIP3    H136580   2.359   4.741  15.104  1.0890 -0.3491 -2.0374
 5055TIP3    H236581   2.413   4.602  15.082 -1.4897 -1.8659  0.5404
 5056TIP3   OH236582   3.202   4.128   3.079 -0.4652 -0.5670  0.3244
 5056TIP3    H136583   3.196   4.224   3.078  0.1477 -0.4899  1.5604
 5056TIP3    H236584   3.112   4.099   3.096 -0.6034 -0.2012  0.2376
 5057TIP3   OH236585   0.570   0.877  13.461  0.5122 -0.1008 -0.7769
 5057TIP3    H136586   0.509   0.852  13.531  2.1913 -0.8685  0.4975
 5057TIP3    H236587   0.649   0.905  13.508  1.1902  0.7672 -2.3686
 5058TIP3   OH236588   5.913   0.080   4.185 -0.0152  0.5499  0.2135
 5058TIP3    H136589   5.921   0.140   4.259  3.0227 -0.3395  0.7435
 5058TIP3    H236590   5.960   0.001   4.213 -0.5857 -0.6214 -1.9115
 5059TIP3   OH236591   6.259   1.289   1.475  0.2017  0.4579  0.2727
 5059TIP3    H136592   6.271   1.295   1.569  0.3848  0.7796  0.2286
 5059TIP3    H236593   6.208   1.209   1.463 -1.2797  1.2899  0.7710
 5060TIP3   OH236594   0.766   3.985   1.931  0.1462 -0.3446 -0.5432
 5060TIP3    H136595   0.724   4.014   1.849 -0.7369  1.4924  0.4884
 5060TIP3    H236596   0.810   4.063   1.963  0.3351 -0.9943  0.8243
 5061TIP3   OH236597   6.306   3.841  12.331 -0.8591  0.5159  0.4650
 5061TIP3    H136598   6.364   3.821  12.405  0.0335 -1.0717 -0.6036
 5061TIP3    H236599   6.262   3.758  12.312 -0.8455  0.8128 -0.9795
 5062TIP3   OH236600   3.518   4.497  12.648 -0.1162  0.3516 -0.1365
 5062TIP3    H136601   3.582   4.432  12.676 -0.7953  0.2501  1.3038
 5062TIP3    H236602   3.449   4.447  12.604  0.1567  0.3033 -0.5102
 5063TIP3   OH236603   6.043   4.529  15.570 -0.0660 -0.4206 -0.4009
 5063TIP3    H136604   5.967   4.550  15.624  0.4623  0.1443  0.1529
 5063TIP3    H236605   6.075   4.446  15.605 -0.2739 -0.5214 -0.4532
 5064TIP3   OH236606   3.769   1.718   1.490  0.7504  0.1039  0.1790
 5064TIP3    H136607   3.853   1.732   1.447  1.0523 -0.0661  0.7030
 5064TIP3    H236608   3.787   1.649   1.554  0.5329  1.0108  1.2267
 5065TIP3   OH236609   4.170   1.982  15.514  0.3931 -0.5239 -0.2276
 5065TIP3    H136610   4.094   1.947  15.468 -0.7982 -1.2260  2.1146
 5065TIP3    H236611   4.210   1.906  15.555  1.0827  0.1413  0.3604
 5066TIP3   OH236612   0.926   1.071  14.611  0.4270  0.2157  0.6051
 5066TIP3    H136613   0.830   1.076  14.611  0.3844 -0.4564  1.9118
 5066TIP3    H236614   0.953   1.152  14.655  0.5034  0.7490 -0.3857
 5067TIP3   OH236615   3.665   0.717   3.230  0.7532  0.5330 -0.1980
 5067TIP3    H136616   3.652   0.756   3.143  0.4794  1.7309  0.3708
 5067TIP3    H236617   3.589   0.660   3.242  0.8808  0.2211 -0.8124
 5068TIP3   OH236618   5.292   6.431   5.007  0.2643  0.5018  0.3724
 5068TIP3    H136619   5.336   6.492   5.066  0.6179  0.2703  0.3529
 5068TIP3    H236620   5.207   6.471   4.990 -0.0852  0.2899  1.5113
 5069TIP3   OH236621   5.942   0.462   3.288  0.4954 -0.1275  0.1883
 5069TIP3    H136622   5.904   0.538   3.331  0.3107 -0.8681  1.3709
 5069TIP3    H236623   6.025   0.495   3.251  0.1027  0.7920  0.0860
 5070TIP3   OH236624   0.124   6.083  13.256 -0.3366  0.7349  0.4448
 5070TIP3    H136625   0.157   6.051  13.340 -3.4950 -2.4778  0.6883
 5070TIP3    H236626   0.039   6.121  13.276 -0.6859  0.8834 -1.1475
 5071TIP3   OH236627   1.677   4.893   4.578 -0.3203  0.3201 -0.0237
 5071TIP3    H136628   1.670   4.969   4.521  0.1706  1.4005  1.2909
 5071TIP3    H236629   1.599   4.840   4.558  0.7563 -0.3542 -3.0022
 5072TIP3   OH236630   0.302   2.094   5.876  0.1675 -0.1677  0.2993
 5072TIP3    H136631   0.388   2.124   5.847 -0.0909 -1.0945 -1.5691
 5072TIP3    H236632   0.257   2.173   5.906  1.4008  0.4265  0.6376
 5073TIP3   OH236633   2.406   0.758  11.017 -0.1023  0.6154  0.2646
 5073TIP3    H136634   2.336   0.694  11.003 -0.4374  1.0295  0.0230
 5073TIP3    H236635   2.392   0.791  11.105  1.5744 -1.4638  1.3822
 5074TIP3   OH236636   4.173   4.151   3.816  0.4305 -0.1445  1.2157
 5074TIP3    H136637   4.208   4.227   3.862 -0.8093  1.3970 -0.2442
 5074TIP3    H236638   4.214   4.154   3.730 -0.7298 -0.2685  0.6403
 5075TIP3   OH236639   2.426   5.616  12.192  0.0838 -0.3229  0.0089
 5075TIP3    H136640   2.458   5.677  12.258 -0.4661  0.8793 -0.7829
 5075TIP3    H236641   2.391   5.673  12.123  0.0065 -1.5444 -0.9878
 5076TIP3   OH236642   5.021   6.032  14.225  0.2877 -0.1131 -0.3833
 5076TIP3    H136643   5.065   6.088  14.289 -0.4943  0.1966 -0.1127
 5076TIP3    H236644   4.930   6.061  14.225 -0.0215 -1.0463 -0.6049
 5077TIP3   OH236645   3.287   0.458   3.825  0.2483 -0.4149  0.5456
 5077TIP3    H136646   3.366   0.488   3.780  2.6984 -2.5581  3.0394
 5077TIP3    H236647   3.279   0.366   3.802 -0.9285 -0.5002  1.2060
 5078TIP3   OH236648   0.123   4.948  12.123  0.4072 -0.1790  0.5960
 5078TIP3    H136649   0.096   5.008  12.193  1.3246  1.5706 -0.4826
 5078TIP3    H236650   0.082   4.984  12.044  2.0015 -0.2047 -0.2790
 5079TIP3   OH236651   1.649   4.656  11.750 -0.1352  0.9359 -0.1571
 5079TIP3    H136652   1.711   4.697  11.811 -0.5619 -0.5676  1.3501
 5079TIP3    H236653   1.564   4.690  11.776 -0.4648 -0.6127  0.9457
 5080TIP3   OH236654   4.853   1.797   0.297  0.5795  0.5427  0.0531
 5080TIP3    H136655   4.935   1.783   0.249  0.3838 -0.4146 -0.0232
 5080TIP3    H236656   4.788   1.813   0.229  0.5788  0.6389  0.0769
 5081TIP3   OH236657   5.295   4.105   5.470  0.5225  0.2139 -0.2427
 5081TIP3    H136658   5.279   4.095   5.376  1.6906 -0.1328 -0.4195
 5081TIP3    H236659   5.257   4.190   5.492  0.2630  0.3087 -1.0379
 5082TIP3   OH236660   2.723   0.211  15.768  0.0095  0.4280  0.3341
 5082TIP3    H136661   2.755   0.259  15.844 -0.7472 -0.6791  1.3978
 5082TIP3    H236662   2.652   0.265  15.733 -0.4758  0.3728  1.1948
 5083TIP3   OH236663   5.219   3.569   3.322 -0.9140 -0.6904  0.5788
 5083TIP3    H136664   5.300   3.557   3.371 -0.4565  0.7083  0.2201
 5083TIP3    H236665   5.248   3.591   3.233 -1.6008  1.2139  0.7655
 5084TIP3   OH236666   0.888   6.350  12.377 -0.7200  0.1171 -0.2112
 5084TIP3    H136667   0.943   6.428  12.369  1.5434 -1.2311  1.0983
 5084TIP3    H236668   0.856   6.334  12.289  0.1958  1.5427 -0.8380
 5085TIP3   OH236669   3.424   2.446   3.454  0.0194  0.4994  0.4227
 5085TIP3    H136670   3.407   2.529   3.498 -0.9641 -0.1795  1.3462
 5085TIP3    H236671   3.507   2.461   3.407  0.0045  1.8987  0.7942
 5086TIP3   OH236672   2.938   2.133  11.391 -0.2334 -0.6815  0.5896
 5086TIP3    H136673   2.931   2.130  11.487 -0.5108 -0.1863  0.5894
 5086TIP3    H236674   2.901   2.218  11.367  2.7068  0.6668  0.3212
 5087TIP3   OH236675   3.784   4.487   3.224  0.4669 -0.4573 -0.4181
 5087TIP3    H136676   3.837   4.556   3.263  0.0369  0.2175 -0.9962
 5087TIP3    H236677   3.694   4.508   3.250  0.3424 -0.8490 -0.5227
 5088TIP3   OH236678   6.784   3.352   0.211 -0.4702 -0.6074  0.5898
 5088TIP3    H136679   6.857   3.410   0.231  0.0186 -1.6626  2.0347
 5088TIP3    H236680   6.813   3.303   0.134 -1.6751  2.3053 -1.9522
 5089TIP3   OH236681   1.927   0.910  15.194  0.0784  0.5256 -0.3461
 5089TIP3    H136682   1.926   0.823  15.234  2.0159  0.8647  0.6034
 5089TIP3    H236683   1.918   0.970  15.268  0.9437  1.1455 -0.7260
 5090TIP3   OH236684   3.808   6.466  14.475 -0.5338 -0.1014 -0.1505
 5090TIP3    H136685   3.819   6.384  14.524 -0.6750 -0.1123 -0.1333
 5090TIP3    H236686   3.770   6.527  14.539 -0.3173  0.0113 -0.1308
 5091TIP3   OH236687   0.647   4.272   5.671  0.8074  0.1841  0.2328
 5091TIP3    H136688   0.560   4.296   5.637  0.3436 -2.4077 -0.6160
 5091TIP3    H236689   0.676   4.350   5.719 -0.5995  2.2944 -2.0651
 5092TIP3   OH236690   0.083   1.179  12.383 -0.2127  0.4007 -0.6544
 5092TIP3    H136691   0.046   1.135  12.306  1.8350  0.3688 -1.6810
 5092TIP3    H236692   0.145   1.115  12.419  0.7851  1.4083 -0.5453
 5093TIP3   OH236693   3.104   5.471  11.876  0.0120  0.3556  0.1023
 5093TIP3    H136694   3.080   5.403  11.939 -0.1799  1.4165  1.2156
 5093TIP3    H236695   3.026   5.483  11.822  0.5918 -1.4632 -1.2403
 5094TIP3   OH236696   0.333   2.427  16.138 -0.0536 -0.1856 -0.0165
 5094TIP3    H136697   0.375   2.501  16.095  0.5310 -0.4155  0.1458
 5094TIP3    H236698   0.392   2.404  16.210  0.2804 -1.4505 -0.6692
 5095TIP3   OH236699   1.241   4.944  10.907  0.0376  0.3255  0.0078
 5095TIP3    H136700   1.156   4.911  10.937 -1.1067  1.9158 -1.2833
 5095TIP3    H236701   1.219   5.024  10.858  2.3450  1.0912  0.1282
 5096TIP3   OH236702   1.660   3.572  14.801 -0.0793  0.5934  0.2000
 5096TIP3    H136703   1.573   3.532  14.806  0.7551 -1.3710  0.1601
 5096TIP3    H236704   1.719   3.506  14.839  1.5914  1.1673 -1.2490
 5097TIP3   OH236705   0.009   1.194  13.628 -0.4940 -0.3466  0.5868
 5097TIP3    H136706  -0.043   1.135  13.681 -0.2023 -1.1811 -0.0394
 5097TIP3    H236707   0.009   1.155  13.540  0.2615  0.2167  0.3196
 5098TIP3   OH236708   6.100   6.117  15.446  0.7080  0.1591  0.2230
 5098TIP3    H136709   6.065   6.029  15.433  2.3567 -0.9026  2.4272
 5098TIP3    H236710   6.084   6.137  15.538  1.6080  1.5870  0.1076
 5099TIP3   OH236711   1.200   3.599  10.638  0.5784 -0.1702 -0.2276
 5099TIP3    H136712   1.227   3.690  10.655 -1.1040  0.3352 -0.0812
 5099TIP3    H236713   1.199   3.558  10.724  0.7881 -0.1666 -0.2227
 5100TIP3   OH236714   4.736   1.600  17.001 -0.1739 -0.5332  0.2839
 5100TIP3    H136715   4.710   1.594  17.093 -1.2660 -1.6506 -0.0653
 5100TIP3    H236716   4.706   1.687  16.974  1.6728  0.5215  1.3802
 5101TIP3   OH236717   3.605   2.027  16.750  0.8157 -0.0571  0.0291
 5101TIP3    H136718   3.684   2.053  16.702  0.5350  0.1541 -0.3205
 5101TIP3    H236719   3.553   2.107  16.754  0.8955 -0.0403  0.8039
 5102TIP3   OH236720   4.071   5.537  15.728 -0.0688  0.0107  0.0547
 5102TIP3    H136721   4.068   5.594  15.651 -1.1845 -1.1050 -0.7817
 5102TIP3    H236722   3.998   5.566  15.782  0.0167  0.0579  0.1455
 5103TIP3   OH236723   4.959   2.415  16.346  0.2089  0.5286 -0.3049
 5103TIP3    H136724   4.867   2.443  16.347 -0.0114 -0.1935  0.7119
 5103TIP3    H236725   5.008   2.495  16.326 -0.3225  1.9570  3.4066
 5104TIP3   OH236726   3.319   1.047  15.905 -0.3782  0.5286 -0.2483
 5104TIP3    H136727   3.367   0.968  15.881  1.7397  1.6201  0.1509
 5104TIP3    H236728   3.233   1.036  15.866 -1.1414 -3.2078  2.0456
 5105TIP3   OH236729   4.342   3.401  14.943  0.0388 -0.1035  0.2447
 5105TIP3    H136730   4.416   3.374  14.997  0.3505  1.9973  0.9730
 5105TIP3    H236731   4.304   3.475  14.990  0.4770  2.0344 -2.4835
 5106TIP3   OH236732   0.315   1.186   0.344 -0.3647 -0.0745 -0.1833
 5106TIP3    H136733   0.346   1.098   0.364  0.5344  0.7324  2.3919
 5106TIP3    H236734   0.332   1.197   0.251  0.4874 -2.2422 -0.3377
 5107TIP3   OH236735   1.742   2.248  17.142 -0.0606  0.0200 -0.4545
 5107TIP3    H136736   1.774   2.326  17.188  0.0443 -0.1480 -0.2398
 5107TIP3    H236737   1.822   2.204  17.112  0.0416 -1.3375  1.6181
 5108TIP3   OH236738   6.476   4.145  14.135 -1.1089 -0.1305  0.0550
 5108TIP3    H136739   6.395   4.140  14.084 -0.6655 -0.5840 -0.6346
 5108TIP3    H236740   6.543   4.169  14.071 -0.6504 -0.0324  0.5637
 5109TIP3   OH236741   2.495   6.761   3.256  0.3052  0.1090  0.2114
 5109TIP3    H136742   2.453   6.781   3.173  1.0796  0.4937 -0.0950
 5109TIP3    H236743   2.498   6.666   3.259 -0.6655  0.0699  0.2853
 5110TIP3   OH236744   5.132   4.151  15.211 -0.7077  0.3812 -0.3670
 5110TIP3    H136745   5.073   4.127  15.282 -0.5889 -0.2413 -0.4715
 5110TIP3    H236746   5.074   4.163  15.135 -0.6166 -1.3530 -0.7518
 5111TIP3   OH236747   3.601   5.733   5.852  0.4993  0.1011 -0.1551
 5111TIP3    H136748   3.621   5.817   5.810 -0.9147  0.6006  0.0948
 5111TIP3    H236749   3.624   5.746   5.943  0.9369 -0.0247 -0.2462
 5112TIP3   OH236750   2.960   0.562   2.832  0.0614  0.0473 -0.5031
 5112TIP3    H136751   2.892   0.608   2.782 -0.4848 -0.0517  0.1316
 5112TIP3    H236752   2.914   0.488   2.871  0.5578 -0.0615 -0.1208
 5113TIP3   OH236753   1.036   2.401   1.558 -0.3619  0.7591 -0.3574
 5113TIP3    H136754   1.052   2.341   1.630  0.5093  0.3525 -0.8730
 5113TIP3    H236755   1.075   2.484   1.587  0.2984  0.5026 -0.4895
 5114TIP3   OH236756   2.272   6.335  15.788 -0.3791  0.4210 -0.6802
 5114TIP3    H136757   2.249   6.407  15.728 -0.3328  1.3044  0.3332
 5114TIP3    H236758   2.336   6.373  15.848 -0.7834 -0.2999  0.2317
 5115TIP3   OH236759   0.614   1.637  16.784 -0.4535  0.4625  0.3074
 5115TIP3    H136760   0.604   1.718  16.732 -0.8134 -0.1010 -0.5309
 5115TIP3    H236761   0.655   1.575  16.723  0.4119  0.1974  1.1424
 5116TIP3   OH236762   4.532   5.956   3.165  0.2958 -0.2480 -0.2978
 5116TIP3    H136763   4.513   5.949   3.072 -1.5024 -0.4355  0.0483
 5116TIP3    H236764   4.449   5.937   3.208  1.1263 -0.3203  1.3576
 5117TIP3   OH236765   0.703   3.951  12.478  0.3158  1.1664  0.9020
 5117TIP3    H136766   0.625   4.003  12.458 -0.3329  0.3129  1.1659
 5117TIP3    H236767   0.718   3.898  12.399 -1.3189 -1.0444  1.9528
 5118TIP3   OH236768   0.258   0.795   2.842 -0.4789 -0.0576 -0.3592
 5118TIP3    H136769   0.303   0.723   2.885 -0.9704 -0.7657 -1.0000
 5118TIP3    H236770   0.303   0.805   2.758 -1.6515 -0.9634 -1.1322
 5119TIP3   OH236771   2.963   2.253  10.365 -0.0540 -0.4030  0.0945
 5119TIP3    H136772   2.868   2.248  10.368 -0.0023 -1.4464  0.5680
 5119TIP3    H236773   2.985   2.249  10.272 -0.4369 -1.0260  0.0283
 5120TIP3   OH236774   6.144   1.982   5.705 -0.8932  0.1984 -0.2326
 5120TIP3    H136775   6.180   2.069   5.721 -1.0726  0.4037 -0.9087
 5120TIP3    H236776   6.116   1.951   5.791 -2.5773  1.6085 -0.2079
 5121TIP3   OH236777   3.448   1.502   4.567 -0.3564  0.6204 -0.0447
 5121TIP3    H136778   3.425   1.540   4.652  0.3974  2.8339 -0.7449
 5121TIP3    H236779   3.373   1.520   4.511 -0.7606 -0.6384  0.0677
 5122TIP3   OH236780   2.947   4.744   0.377 -0.1653  0.4166 -0.2063
 5122TIP3    H136781   3.039   4.724   0.395 -0.8171 -0.2764  3.0023
 5122TIP3    H236782   2.948   4.836   0.350  1.3955  0.7285  0.7420
 5123TIP3   OH236783   6.658   5.823   2.749 -0.1584  0.3009  0.8307
 5123TIP3    H136784   6.600   5.748   2.739 -1.8938  1.4396  1.7982
 5123TIP3    H236785   6.709   5.805   2.828  2.6171 -1.7569 -1.2274
 5124TIP3   OH236786   2.182   4.669   5.464  0.1837  0.3959 -0.3910
 5124TIP3    H136787   2.096   4.686   5.504  0.1741 -0.1524 -0.1779
 5124TIP3    H236788   2.241   4.659   5.538  0.4691  0.9461 -0.5403
 5125TIP3   OH236789   2.041   4.161   5.264 -0.1413  0.1697 -0.1156
 5125TIP3    H136790   2.136   4.161   5.251 -0.4229  0.7520 -2.7461
 5125TIP3    H236791   2.029   4.161   5.359  2.4651 -0.4396  0.2742
 5126TIP3   OH236792   4.487   6.620  12.698 -0.5341  0.2864  0.0083
 5126TIP3    H136793   4.530   6.556  12.643  0.0974  0.6849  0.0257
 5126TIP3    H236794   4.543   6.627  12.775 -1.8677 -0.9365  1.1563
 5127TIP3   OH236795   3.330   3.116  13.297 -0.4989  0.2889  0.4168
 5127TIP3    H136796   3.261   3.127  13.230  2.5035 -0.5266 -3.1616
 5127TIP3    H236797   3.356   3.205  13.319 -1.3298  0.5841  0.2416
 5128TIP3   OH236798   5.092   3.000   4.736 -0.0378 -0.1155 -0.2725
 5128TIP3    H136799   5.127   2.920   4.775 -0.9992  0.3942  1.7351
 5128TIP3    H236800   5.135   3.071   4.784 -0.6322  0.5645 -0.7276
 5129TIP3   OH236801   2.788   1.165  15.753 -0.1931  0.3566 -0.2925
 5129TIP3    H136802   2.849   1.146  15.681 -1.3777  1.1131 -1.5355
 5129TIP3    H236803   2.731   1.233  15.719 -1.6867 -0.2476  0.8776
 5130TIP3   OH236804   2.452   5.896   0.852  0.1649  0.4919 -0.6185
 5130TIP3    H136805   2.429   5.831   0.918  1.3639 -1.1036 -1.6837
 5130TIP3    H236806   2.473   5.845   0.774  0.9505  2.1801 -1.5844
 5131TIP3   OH236807   5.070   5.654  11.928  0.4405 -0.1318  0.0193
 5131TIP3    H136808   5.012   5.607  11.868 -0.0707  0.7491 -0.2016
 5131TIP3    H236809   5.131   5.701  11.872  0.4201  0.1233  0.2075
 5132TIP3   OH236810   6.717   5.100   4.111  0.3174  0.0178  0.5696
 5132TIP3    H136811   6.687   5.034   4.049 -0.1659  1.2358 -0.5464
 5132TIP3    H236812   6.641   5.120   4.165  0.2859  0.1145  0.4897
 5133TIP3   OH236813   0.286   0.905  11.494 -0.5004  0.6307  0.2233
 5133TIP3    H136814   0.343   0.855  11.553 -0.4265 -0.9006 -1.0829
 5133TIP3    H236815   0.206   0.854  11.489  0.6648 -1.1351 -3.5138
 5134TIP3   OH236816   2.481   0.416   2.040 -0.0589 -0.2873  0.4235
 5134TIP3    H136817   2.456   0.500   2.078 -0.4499 -0.3030  0.2103
 5134TIP3    H236818   2.518   0.367   2.113  0.1673  0.0661  0.5514
 5135TIP3   OH236819   5.025   0.373  14.752 -0.1300 -0.1361 -0.4773
 5135TIP3    H136820   5.053   0.441  14.813  2.6199 -0.6546 -1.0585
 5135TIP3    H236821   5.069   0.294  14.782 -1.6239 -1.2306 -1.0388
 5136TIP3   OH236822   0.635   5.917   2.118  0.1759 -0.1930  0.5324
 5136TIP3    H136823   0.589   5.888   2.039 -0.8452  0.5844  0.8108
 5136TIP3    H236824   0.661   5.836   2.162  1.8665 -0.6524 -1.1965
 5137TIP3   OH236825   3.338   6.245  11.628  0.8610 -0.0838 -0.3646
 5137TIP3    H136826   3.338   6.253  11.724  1.6553 -0.8066 -0.2895
 5137TIP3    H236827   3.247   6.226  11.605  1.0518 -2.3565  0.4957
 5138TIP3   OH236828   5.614   6.647  11.277 -0.3954  0.1488  0.4205
 5138TIP3    H136829   5.573   6.640  11.191  1.6510 -1.5650 -0.5182
 5138TIP3    H236830   5.617   6.740  11.296 -0.2612  0.6165 -1.7073
 5139TIP3   OH236831   1.851   1.832  15.048  0.3752  0.2024 -0.1153
 5139TIP3    H136832   1.831   1.901  15.111  0.3737 -1.0722  1.3674
 5139TIP3    H236833   1.767   1.814  15.005 -0.4713 -1.1427  1.9217
 5140TIP3   OH236834   2.111   0.023  15.580 -0.0871  0.4201  0.1029
 5140TIP3    H136835   2.022   0.016  15.613 -0.1943  1.9029  0.2108
 5140TIP3    H236836   2.165   0.040  15.657  0.2659 -0.2955  0.0186
 5141TIP3   OH236837   2.947   6.248  16.607  0.2481  0.2124 -0.1325
 5141TIP3    H136838   2.976   6.163  16.638 -0.0903  0.0776 -0.1795
 5141TIP3    H236839   2.856   6.255  16.637 -0.0311  0.1479 -0.9420
 5142TIP3   OH236840   0.259   0.477   4.264 -0.9168 -0.4595  0.2287
 5142TIP3    H136841   0.222   0.401   4.310 -0.8687 -0.3841  0.3902
 5142TIP3    H236842   0.184   0.535   4.250 -1.3062 -1.2916 -1.4135
 5143TIP3   OH236843   4.915   0.948  11.611  0.0670 -0.1328  0.1730
 5143TIP3    H136844   4.850   0.959  11.541 -0.0221  3.4618  0.6145
 5143TIP3    H236845   4.997   0.979  11.572  0.3359  0.4631  1.1776
 5144TIP3   OH236846   2.555   6.388   0.591  0.3904  0.4171 -0.5234
 5144TIP3    H136847   2.644   6.424   0.600  0.5607 -0.3702  1.4613
 5144TIP3    H236848   2.499   6.464   0.580  1.1468  1.0346 -0.1856
 5145TIP3   OH236849   2.956   4.067   1.997  0.1487  0.1369 -0.0762
 5145TIP3    H136850   2.880   4.111   2.035 -1.3425 -1.4154 -1.0615
 5145TIP3    H236851   3.014   4.048   2.071 -1.2648 -0.1949  0.9892
 5146TIP3   OH236852   5.223   0.835   5.675  0.3959 -0.0499  0.5372
 5146TIP3    H136853   5.293   0.787   5.632 -0.3760 -3.0832  2.3553
 5146TIP3    H236854   5.253   0.926   5.676  1.7536 -0.2536 -3.5101
 5147TIP3   OH236855   2.168   3.214   5.693 -0.6037 -0.2581 -0.4035
 5147TIP3    H136856   2.211   3.129   5.702  0.4686  0.4690  2.6402
 5147TIP3    H236857   2.236   3.272   5.659 -0.7725 -0.2245 -0.6842
 5148TIP3   OH236858   4.815   2.290   1.341 -0.5518 -0.0970 -0.8265
 5148TIP3    H136859   4.725   2.267   1.365 -0.1325  1.2370  2.4678
 5148TIP3    H236860   4.869   2.225   1.386  0.2141  0.5906 -0.7294
 5149TIP3   OH236861   5.527   6.418   1.357  0.2676 -0.1269 -0.0451
 5149TIP3    H136862   5.439   6.456   1.358 -0.2013 -1.1457 -0.5142
 5149TIP3    H236863   5.566   6.447   1.440 -1.2645 -1.3068  1.1719
 5150TIP3   OH236864   3.611   0.727  15.714  0.2579  0.4828 -0.3214
 5150TIP3    H136865   3.569   0.662  15.656 -0.4566  0.6473  0.0055
 5150TIP3    H236866   3.692   0.750  15.669  0.9595 -1.2786 -0.0367
 5151TIP3   OH236867   4.475   0.480  14.834 -0.1011 -0.0473  0.4971
 5151TIP3    H136868   4.476   0.508  14.743 -0.7327  1.9956  1.0809
 5151TIP3    H236869   4.416   0.404  14.834  0.0195 -0.1723 -0.8027
 5152TIP3   OH236870   5.220   6.786  14.287 -0.1911 -0.3102 -0.1407
 5152TIP3    H136871   5.194   6.820  14.372 -0.2153  0.1256 -0.3215
 5152TIP3    H236872   5.235   6.692  14.302 -0.9228 -0.3784  0.1732
 5153TIP3   OH236873   6.795   4.061  14.743  0.5149  0.1913 -0.4014
 5153TIP3    H136874   6.711   4.086  14.782  0.1926 -1.3790 -0.0372
 5153TIP3    H236875   6.860   4.091  14.806  0.1209 -0.1931  0.2009
 5154TIP3   OH236876   5.927   3.336   2.292  0.3040  0.5869 -1.1355
 5154TIP3    H136877   5.947   3.281   2.368 -0.8189 -1.2773 -2.1123
 5154TIP3    H236878   5.831   3.342   2.292  0.0926 -1.1779 -3.4474
 5155TIP3   OH236879   1.964   3.791  15.430 -0.3191 -0.0217  0.3759
 5155TIP3    H136880   1.992   3.825  15.345 -0.3537  0.6008  0.6086
 5155TIP3    H236881   1.921   3.865  15.473  1.9922  0.5013  1.9886
 5156TIP3   OH236882   1.503   1.278  12.923  0.2989  0.1433  0.5703
 5156TIP3    H136883   1.466   1.360  12.954  1.4847  0.4853  1.0991
 5156TIP3    H236884   1.595   1.297  12.905  0.6057 -1.0753  0.7326
 5157TIP3   OH236885   5.461   2.756  13.493 -0.5569  0.3173  0.1076
 5157TIP3    H136886   5.529   2.706  13.448 -1.6925 -1.7603  0.6152
 5157TIP3    H236887   5.414   2.692  13.546 -3.1060  1.6125 -0.4303
 5158TIP3   OH236888   6.799   1.898   1.585 -0.1339  0.1552 -0.0089
 5158TIP3    H136889   6.723   1.845   1.611 -0.8078 -0.0660 -2.2061
 5158TIP3    H236890   6.852   1.840   1.531  1.3670  0.4766  1.0568
 5159TIP3   OH236891   1.679   4.592   1.965 -0.0239 -0.3577 -0.0228
 5159TIP3    H136892   1.756   4.584   2.021 -0.8573 -1.6397  0.9776
 5159TIP3    H236893   1.670   4.686   1.951  1.0471 -0.1114  0.7892
 5160TIP3   OH236894   0.447   0.371   3.430  0.5762 -0.5648 -0.1071
 5160TIP3    H136895   0.531   0.406   3.401 -0.2762  1.3900 -0.4095
 5160TIP3    H236896   0.458   0.355   3.524  1.2509 -0.1949 -0.1184
 5161TIP3   OH236897   5.104   0.161   2.297 -0.3823  0.3070 -0.1634
 5161TIP3    H136898   5.118   0.097   2.367  0.5066  0.7959  0.1165
 5161TIP3    H236899   5.022   0.134   2.256 -0.1402 -0.8624  0.1066
 5162TIP3   OH236900   5.898   3.707  12.347 -0.1539 -0.3686  0.3680
 5162TIP3    H136901   5.929   3.679  12.261  1.7290  3.0855 -0.2572
 5162TIP3    H236902   5.808   3.675  12.352  0.4251 -2.6348 -1.8499
 5163TIP3   OH236903   5.811   0.873   1.140 -0.3650  0.1426 -0.4223
 5163TIP3    H136904   5.886   0.929   1.159  0.8436 -1.6689  0.3932
 5163TIP3    H236905   5.796   0.884   1.046  1.0667  0.3771 -0.6451
 5164TIP3   OH236906   2.385   3.194   5.920 -0.4978 -0.0534  0.1178
 5164TIP3    H136907   2.334   3.122   5.956 -2.1287  2.1369  2.5267
 5164TIP3    H236908   2.320   3.254   5.883  0.2022  2.4670  2.6056
 5165TIP3   OH236909   1.787   2.005   5.804 -0.6775 -0.0009 -0.2667
 5165TIP3    H136910   1.771   2.096   5.831 -3.1032 -0.7121  0.8814
 5165TIP3    H236911   1.783   1.955   5.886  2.0197 -1.0570 -0.6789
 5166TIP3   OH236912   1.971   1.716  12.584  0.0323 -0.2561 -0.7899
 5166TIP3    H136913   2.053   1.719  12.535  0.9034  2.8080  0.6375
 5166TIP3    H236914   1.998   1.697  12.674 -1.0099 -0.6398 -0.5366
 5167TIP3   OH236915   4.550   3.787  15.519 -0.0340 -0.0362  0.2281
 5167TIP3    H136916   4.577   3.877  15.535  1.2110 -0.1679 -0.9816
 5167TIP3    H236917   4.585   3.738  15.593  0.5172  0.2490  0.1570
 5168TIP3   OH236918   5.767   1.210  15.056 -0.1324 -0.2720  0.0433
 5168TIP3    H136919   5.761   1.177  15.145 -0.2362  0.4963  0.3293
 5168TIP3    H236920   5.684   1.184  15.015  0.7048 -2.3461 -0.4553
 5169TIP3   OH236921   0.065   6.664   0.688 -0.0794  0.1484  0.4109
 5169TIP3    H136922   0.085   6.695   0.600  0.0624 -0.7125  0.1313
 5169TIP3    H236923   0.003   6.729   0.723  0.1071  0.6617 -0.2022
 5170TIP3   OH236924   4.519   1.621  13.059 -0.3063 -0.3192  0.5057
 5170TIP3    H136925   4.474   1.553  13.009 -0.9432 -0.9377  1.8539
 5170TIP3    H236926   4.457   1.695  13.059  0.3859  0.3057 -0.9582
 5171TIP3   OH236927   2.647   2.656  14.916 -0.6377  0.4961 -0.2713
 5171TIP3    H136928   2.658   2.700  15.000 -1.0589  0.2716 -0.0976
 5171TIP3    H236929   2.619   2.568  14.939 -0.7438  0.4314 -0.6490
 5172TIP3   OH236930   1.915   6.252   1.016  0.3621  1.2044 -0.0119
 5172TIP3    H136931   1.828   6.214   1.017  1.0216 -0.4095 -0.1553
 5172TIP3    H236932   1.920   6.302   1.097  0.0492 -0.5611  1.1635
 5173TIP3   OH236933   3.581   6.304  16.033 -0.2388 -0.4724  0.0898
 5173TIP3    H136934   3.649   6.293  15.966 -1.3478  0.4202 -1.2353
 5173TIP3    H236935   3.537   6.386  16.009 -0.8174 -0.2477  1.8007
 5174TIP3   OH236936   2.439   4.247  11.487 -0.2649 -0.3099  0.0176
 5174TIP3    H136937   2.400   4.237  11.574 -1.3656  0.3753 -0.3832
 5174TIP3    H236938   2.456   4.157  11.458  0.6411 -0.5328  1.1517
 5175TIP3   OH236939   1.942   1.949  13.329 -0.0494  0.3289 -0.4768
 5175TIP3    H136940   1.887   1.915  13.259 -0.8531 -1.9058  1.1029
 5175TIP3    H236941   1.880   1.994  13.387  0.4275  1.1628 -0.6009
 5176TIP3   OH236942   4.152   3.107  15.358 -0.5123  0.1101  0.1363
 5176TIP3    H136943   4.187   3.062  15.434 -1.6108 -1.7387 -0.3922
 5176TIP3    H236944   4.226   3.157  15.323  0.1838  0.4244  1.9750
 5177TIP3   OH236945   4.920   2.984  12.585  0.0654 -0.1289 -0.0107
 5177TIP3    H136946   4.845   3.002  12.529  0.4926 -0.5266 -0.7300
 5177TIP3    H236947   4.985   2.945  12.527 -0.0168 -1.9523  1.0485
 5178TIP3   OH236948   6.132   6.156   0.021 -0.8246  0.1677 -0.2044
 5178TIP3    H136949   6.189   6.225   0.057 -1.0954  1.5304 -2.2081
 5178TIP3    H236950   6.065   6.144   0.088 -0.5843  1.6462  0.3597
 5179TIP3   OH236951   4.170   4.541   6.581  0.3274  0.3777 -0.1754
 5179TIP3    H136952   4.132   4.561   6.667  0.8273 -0.5611  0.2839
 5179TIP3    H236953   4.183   4.626   6.539 -3.1377  0.7559 -0.7551
 5180TIP3   OH236954   5.431   2.413  16.735 -0.0884  0.5412 -0.5850
 5180TIP3    H136955   5.342   2.449  16.729  0.3091  1.5762 -0.5051
 5180TIP3    H236956   5.488   2.489  16.721  0.8203  0.6211  2.7787
 5181TIP3   OH236957   0.567   2.844   4.571 -0.5090  0.2252  0.0567
 5181TIP3    H136958   0.659   2.821   4.577 -0.4669 -0.6317 -2.6291
 5181TIP3    H236959   0.522   2.760   4.555 -1.4139  0.9002 -1.1493
 5182TIP3   OH236960   0.846   2.774  16.874 -0.7110  0.4936 -0.0695
 5182TIP3    H136961   0.898   2.855  16.873 -0.1179  0.1477 -1.6336
 5182TIP3    H236962   0.900   2.712  16.923 -0.3760  0.5895 -0.3078
 5183TIP3   OH236963   5.337   5.594  15.467  0.5486 -0.1261 -0.3434
 5183TIP3    H136964   5.341   5.504  15.435 -1.5284 -0.3499 -0.0669
 5183TIP3    H236965   5.252   5.627  15.438  1.0057  1.5669  0.0818
 5184TIP3   OH236966   0.238   4.435   6.197  0.1273 -0.1571  0.1065
 5184TIP3    H136967   0.152   4.418   6.236  0.8504  0.3854  2.0404
 5184TIP3    H236968   0.294   4.459   6.271  2.1472 -1.2011 -0.9916
 5185TIP3   OH236969   2.789   4.866   2.058 -0.4887 -0.3438  0.3496
 5185TIP3    H136970   2.813   4.792   2.004 -2.4373 -0.8022  0.0163
 5185TIP3    H236971   2.745   4.926   1.998  0.3314  0.7250  0.7775
 5186TIP3   OH236972   3.031   1.012  14.327 -0.6477  0.5865 -0.8521
 5186TIP3    H136973   3.009   0.919  14.326  0.3242  0.3470 -1.9769
 5186TIP3    H236974   3.076   1.025  14.411  1.0239 -0.4293 -1.5431
 5187TIP3   OH236975   0.990   6.395  13.757 -0.4151  0.2525 -0.2361
 5187TIP3    H136976   0.957   6.465  13.814 -0.6874 -0.4139  0.4316
 5187TIP3    H236977   1.031   6.442  13.684 -1.3021  1.1161 -0.2108
 5188TIP3   OH236978   0.684   6.640  15.626  0.5746 -0.2332 -0.3467
 5188TIP3    H136979   0.671   6.662  15.718 -2.3840 -0.3670 -0.6250
 5188TIP3    H236980   0.760   6.581  15.625  0.3923 -0.5989  2.0613
 5189TIP3   OH236981   1.526   6.033   3.481  0.0321 -0.1324 -0.8189
 5189TIP3    H136982   1.481   6.079   3.410 -1.6674 -1.3173 -0.5564
 5189TIP3    H236983   1.475   6.054   3.559 -0.5703 -2.1326 -0.6384
 5190TIP3   OH236984   5.814   2.728  13.162  0.2565  0.3985 -0.3117
 5190TIP3    H136985   5.784   2.669  13.093  0.4457  0.5268 -0.5043
 5190TIP3    H236986   5.771   2.811  13.144  0.1172  0.3672 -0.1327
 5191TIP3   OH236987   3.461   5.218   0.390 -0.1061  0.4334 -0.0611
 5191TIP3    H136988   3.521   5.217   0.316  1.1200  1.2410  0.8655
 5191TIP3    H236989   3.466   5.130   0.427  0.5130  0.4896 -0.0022
 5192TIP3   OH236990   3.000   1.673   3.106  0.3515  0.2105  0.2439
 5192TIP3    H136991   3.069   1.686   3.042  0.9437  0.8033  0.9911
 5192TIP3    H236992   2.991   1.758   3.150 -1.4011  0.3866 -0.3701
 5193TIP3   OH236993   4.517   0.597   2.384  0.1198 -0.3692 -0.4950
 5193TIP3    H136994   4.537   0.505   2.364  3.5753  0.3705 -1.1229
 5193TIP3    H236995   4.550   0.645   2.308  1.9565  1.6190  1.4330
 5194TIP3   OH236996   2.895   6.279  15.270  0.2284  0.1349  0.5847
 5194TIP3    H136997   2.799   6.281  15.275  0.2467  0.8270  0.8442
 5194TIP3    H236998   2.924   6.324  15.350  0.8002 -1.0555  1.0821
 5195TIP3   OH236999   4.904   4.540   4.090  0.1482 -0.2196 -0.4023
 5195TIP3    H137000   4.900   4.538   4.185 -0.8881 -0.0155 -0.4307
 5195TIP3    H237001   4.836   4.478   4.062 -0.2924  0.5167 -1.0080
 5196TIP3   OH237002   5.218   4.474  12.816  0.0210 -0.4218 -0.0765
 5196TIP3    H137003   5.268   4.503  12.740 -3.5487  0.1616 -2.4804
 5196TIP3    H237004   5.191   4.385  12.794 -0.1989 -0.6382  1.0267
 5197TIP3   OH237005   0.349   4.006  13.260  0.0117  0.2046  0.3063
 5197TIP3    H137006   0.360   4.092  13.299  2.1854  0.4105 -0.6189
 5197TIP3    H237007   0.362   4.020  13.166 -0.1791 -1.0219  0.0817
 5198TIP3   OH237008   0.777   0.095   3.369  0.1713  0.0102 -0.1692
 5198TIP3    H137009   0.814   0.173   3.329 -0.8893 -0.0274 -1.2825
 5198TIP3    H237010   0.834   0.077   3.444  0.8073  1.4652 -0.2701
 5199TIP3   OH237011   0.619   2.014   2.772 -0.0894 -0.0229  0.1144
 5199TIP3    H137012   0.563   2.003   2.850 -0.9299  0.6820 -0.3785
 5199TIP3    H237013   0.558   2.038   2.702  0.7074 -0.3012 -0.6912
 5200TIP3   OH237014   4.043   2.797  16.750 -0.1652  0.3504  0.5172
 5200TIP3    H137015   3.963   2.850  16.753 -0.3466  0.0483  1.3773
 5200TIP3    H237016   4.113   2.862  16.742 -0.3588  0.7846  1.9015
 5201TIP3   OH237017   6.601   4.201  11.833 -0.3503 -0.0843 -0.0232
 5201TIP3    H137018   6.567   4.288  11.809 -1.4993 -0.5736 -0.2260
 5201TIP3    H237019   6.527   4.156  11.873 -0.8298 -2.2003 -3.0027
 5202TIP3   OH237020   3.181   3.768  15.314  0.2806 -0.2533 -0.2221
 5202TIP3    H137021   3.216   3.679  15.306  0.2450 -0.2433 -0.5396
 5202TIP3    H237022   3.094   3.763  15.273  0.6620  0.1407 -1.1163
 5203TIP3   OH237023   0.959   5.468  14.681 -0.2122  0.2263 -0.2692
 5203TIP3    H137024   1.029   5.404  14.691 -1.2246 -0.7161  1.1415
 5203TIP3    H237025   0.952   5.482  14.587  0.8319 -0.8112 -0.5223
 5204TIP3   OH237026   5.866   6.075   4.033  0.4298  0.2679 -0.4298
 5204TIP3    H137027   5.882   5.993   3.987  0.0148 -0.7337  1.1366
 5204TIP3    H237028   5.951   6.120   4.032  0.8795 -0.5630 -0.5899
 5205TIP3   OH237029   6.804   3.702  11.388 -0.0875 -0.0169 -0.3805
 5205TIP3    H137030   6.838   3.646  11.458  0.2657 -0.6508 -1.0469
 5205TIP3    H237031   6.881   3.745  11.351 -0.1304 -0.5533 -1.1197
 5206TIP3   OH237032   4.402   5.782   0.669 -0.3662  0.0388 -0.0391
 5206TIP3    H137033   4.481   5.745   0.630 -1.5395 -2.0068 -0.5947
 5206TIP3    H237034   4.384   5.726   0.745 -1.2746  0.4978  0.1002
 5207TIP3   OH237035   1.651   3.878  17.086 -0.0352 -0.0454  0.5378
 5207TIP3    H137036   1.732   3.828  17.100  0.2518  0.3369  0.2799
 5207TIP3    H237037   1.597   3.859  17.162  0.0699 -0.7473  0.4442
 5208TIP3   OH237038   1.254   1.059  16.439  0.3057  0.2822  0.1030
 5208TIP3    H137039   1.321   1.001  16.403  1.0702  1.2708 -0.1038
 5208TIP3    H237040   1.267   1.054  16.534  1.3084  1.1854  0.0292
 5209TIP3   OH237041   3.657   5.052   1.329 -0.0600  0.1892  0.3181
 5209TIP3    H137042   3.692   4.990   1.393 -1.0192  1.7198  2.4773
 5209TIP3    H237043   3.576   5.012   1.298  0.4370 -0.5936  0.0022
 5210TIP3   OH237044   3.018   6.161  13.087  0.5314  0.4082  0.2355
 5210TIP3    H137045   2.958   6.201  13.150 -1.3569 -1.6247 -0.1444
 5210TIP3    H237046   2.979   6.177  13.002  1.9366  1.2786 -0.2737
 5211TIP3   OH237047   2.137   4.798   2.167 -0.5294  0.1349  0.3110
 5211TIP3    H137048   2.063   4.743   2.196  0.0206 -0.3588  0.8121
 5211TIP3    H237049   2.133   4.874   2.225 -0.5268  0.0112  0.4765
 5212TIP3   OH237050   1.894   4.062  15.562  0.2068 -0.0565  0.0739
 5212TIP3    H137051   1.925   4.151  15.547 -0.2167  0.2817  1.1592
 5212TIP3    H237052   1.957   4.025  15.624  0.6733 -0.6992 -0.7564
 5213TIP3   OH237053   2.644   1.895  14.552 -0.5392 -1.0761 -0.0845
 5213TIP3    H137054   2.659   1.944  14.471 -1.2008  1.9012  1.4512
 5213TIP3    H237055   2.731   1.884  14.590 -0.4106 -0.8349 -0.3069
 5214TIP3   OH237056   1.535   4.897  14.128 -0.8272  0.3551  0.3907
 5214TIP3    H137057   1.468   4.829  14.132  0.0402 -0.5174  0.7423
 5214TIP3    H237058   1.590   4.881  14.205  0.3228  0.4419 -0.3791
 5215TIP3   OH237059   0.480   5.414   4.630  0.1025 -0.3758  0.2672
 5215TIP3    H137060   0.402   5.425   4.575 -1.4357 -1.4465  2.1149
 5215TIP3    H237061   0.508   5.503   4.649 -1.8019  0.1178  1.0340
 5216TIP3   OH237062   1.430   3.054   5.313  0.1291 -0.1257 -0.2080
 5216TIP3    H137063   1.365   2.995   5.276 -2.1272  1.7977  0.4403
 5216TIP3    H237064   1.447   3.117   5.243  0.0898  0.2773  0.1409
 5217TIP3   OH237065   5.675   1.963   5.297 -0.1539  0.3160  0.0292
 5217TIP3    H137066   5.766   1.972   5.272 -0.3054  1.5633 -0.1291
 5217TIP3    H237067   5.654   1.871   5.279  1.4746 -0.3996  1.4781
 5218TIP3   OH237068   5.561   0.828  16.539  0.2364  0.3114 -0.2477
 5218TIP3    H137069   5.648   0.791  16.556 -0.1363 -1.9145 -2.4823
 5218TIP3    H237070   5.536   0.791  16.454 -2.4523  1.7521 -0.1912
 5219TIP3   OH237071   4.993   2.530   1.873 -0.3165 -0.1171  0.6436
 5219TIP3    H137072   5.068   2.580   1.840 -0.1143 -0.8171  0.0048
 5219TIP3    H237073   4.937   2.595   1.914 -0.2349  0.6996 -0.4851
 5220TIP3   OH237074   2.515   5.569  11.385 -0.1842 -0.3918 -0.2285
 5220TIP3    H137075   2.565   5.598  11.308  0.8352 -0.5986  0.3304
 5220TIP3    H237076   2.464   5.494  11.354  0.7905 -0.9437 -0.5397
 5221TIP3   OH237077   2.363   1.114   3.944 -0.9641 -0.3328 -0.1105
 5221TIP3    H137078   2.282   1.161   3.963 -2.5287 -2.7123 -0.4237
 5221TIP3    H237079   2.398   1.092   4.030 -2.6648 -2.3837  0.1519
 5222TIP3   OH237080   3.615   4.740   1.170 -0.6104  0.5061 -0.0935
 5222TIP3    H137081   3.634   4.731   1.264  2.2188  1.0318 -0.5133
 5222TIP3    H237082   3.692   4.785   1.135 -0.4010 -1.8426 -3.0899
 5223TIP3   OH237083   0.379   3.570   6.064 -0.4527 -0.4858 -0.0493
 5223TIP3    H137084   0.440   3.635   6.029 -1.0816  0.6714  0.9277
 5223TIP3    H237085   0.434   3.511   6.115  0.0807 -0.4589 -0.5920
 5224TIP3   OH237086   6.694   1.695  13.589 -0.0712 -0.4885  0.0944
 5224TIP3    H137087   6.601   1.675  13.574 -0.1926 -1.3026  1.6759
 5224TIP3    H237088   6.732   1.611  13.614  1.2341 -0.2681 -1.0456
 5225TIP3   OH237089   4.227   6.099   5.487 -0.0996  0.2771  0.0604
 5225TIP3    H137090   4.139   6.118   5.520 -0.2625  1.3159 -0.9139
 5225TIP3    H237091   4.284   6.112   5.563 -0.9212 -2.2154  1.2141
 5226TIP3   OH237092   4.165   1.092  10.436  0.2495 -0.1663 -0.1223
 5226TIP3    H137093   4.142   1.021  10.496 -1.9647  0.6136  0.0344
 5226TIP3    H237094   4.127   1.170  10.476  2.2138  1.0908 -0.5342
 5227TIP3   OH237095   1.707   2.126  15.122  0.2077  0.1847  0.2551
 5227TIP3    H137096   1.614   2.132  15.104  0.2594  2.1358  0.4350
 5227TIP3    H237097   1.750   2.155  15.041  0.6095  1.0817  0.7795
 5228TIP3   OH237098   2.920   0.331   4.033  0.0846  0.1745 -0.4154
 5228TIP3    H137099   2.994   0.271   4.040 -1.0574 -1.4187 -1.4384
 5228TIP3    H237100   2.870   0.299   3.959 -2.2929  0.4398  0.9846
 5229TIP3   OH237101   2.063   1.507  12.218 -0.7608  0.0285 -0.2000
 5229TIP3    H137102   2.071   1.577  12.282  0.6312 -2.0060  2.0052
 5229TIP3    H237103   2.113   1.538  12.142 -1.3357  1.9215  0.1280
 5230TIP3   OH237104   3.685   4.124   0.263  0.0440  0.4670 -0.1860
 5230TIP3    H137105   3.610   4.071   0.236  1.5208 -1.5764 -0.5330
 5230TIP3    H237106   3.698   4.185   0.191  1.1169 -1.8607 -2.1063
 5231TIP3   OH237107   1.030   3.709   2.653 -0.2491  0.2020 -0.0231
 5231TIP3    H137108   0.943   3.749   2.655 -0.6551 -0.6955  0.7490
 5231TIP3    H237109   1.026   3.638   2.717  1.0161  0.0637 -0.0657
 5232TIP3   OH237110   5.730   0.315  12.312 -0.1751 -0.1019  0.0982
 5232TIP3    H137111   5.766   0.393  12.271 -0.3723  0.5170  1.0725
 5232TIP3    H237112   5.767   0.314  12.400 -0.2308 -1.0677  0.1199
 5233TIP3   OH237113   0.754   5.691  12.677 -0.0212  0.2466  0.2146
 5233TIP3    H137114   0.846   5.667  12.676 -0.2309 -0.6113  0.6932
 5233TIP3    H237115   0.752   5.776  12.721  0.5067  0.1294  0.4667
 5234TIP3   OH237116   2.197   1.522   1.673  0.0559 -0.0404  0.3263
 5234TIP3    H137117   2.283   1.501   1.709 -0.5649 -3.1543  0.2134
 5234TIP3    H237118   2.140   1.531   1.749 -0.2904 -1.9393  0.3221
 5235TIP3   OH237119   0.532   4.299   3.456 -0.1120 -0.1723 -0.1058
 5235TIP3    H137120   0.480   4.290   3.376  1.7451  0.7464 -1.4810
 5235TIP3    H237121   0.544   4.393   3.467 -0.7107 -0.2406  1.5680
 5236TIP3   OH237122   4.678   2.415   1.126  0.2374 -0.5271 -0.5680
 5236TIP3    H137123   4.756   2.430   1.179 -0.3643 -0.0643  0.1984
 5236TIP3    H237124   4.691   2.328   1.089  1.9416  0.2258 -1.8966
 5237TIP3   OH237125   0.500   0.047  13.439 -0.2745  0.6057  0.5703
 5237TIP3    H137126   0.419   0.047  13.489 -2.3992 -1.6706 -2.4507
 5237TIP3    H237127   0.480   0.099  13.361  1.6453  1.0729  0.3342
 5238TIP3   OH237128   1.863   3.434   4.016  0.6700 -0.5383  0.2431
 5238TIP3    H137129   1.881   3.363   4.077  0.8032 -0.2781  0.5094
 5238TIP3    H237130   1.847   3.390   3.932 -0.7999 -0.9923  0.7220
 5239TIP3   OH237131   5.904   6.291   3.616  0.1785 -0.0981 -0.4847
 5239TIP3    H137132   6.000   6.288   3.623  0.5121  2.0320 -2.6627
 5239TIP3    H237133   5.885   6.247   3.534 -0.7930 -0.8613  0.1312
 5240TIP3   OH237134   6.211   3.736   1.375 -0.4518 -0.2959 -0.1964
 5240TIP3    H137135   6.154   3.765   1.304 -0.4661 -0.2964 -0.1852
 5240TIP3    H237136   6.288   3.699   1.331 -1.4959 -2.4958 -0.2835
 5241TIP3   OH237137   1.508   0.696  16.568  0.0142  0.6998 -0.1048
 5241TIP3    H137138   1.421   0.662  16.547  0.2495  0.2683 -0.4017
 5241TIP3    H237139   1.496   0.747  16.648 -0.4122  0.2147  0.1419
 5242TIP3   OH237140   3.782   4.597   5.421 -0.5040 -0.6084  0.3903
 5242TIP3    H137141   3.876   4.612   5.411 -0.6788  1.3466  1.1480
 5242TIP3    H237142   3.761   4.635   5.506 -2.0475 -0.6799  0.0676
 5243TIP3   OH237143   2.951   4.498   5.087  0.1155 -0.1267 -0.1392
 5243TIP3    H137144   3.007   4.447   5.145  0.0530  0.1613  0.1774
 5243TIP3    H237145   3.012   4.552   5.036  0.2149 -0.8529 -0.8153
 5244TIP3   OH237146   6.399   0.657  13.454 -0.2233  0.1592  0.1804
 5244TIP3    H137147   6.375   0.686  13.542 -2.7455  0.7853 -0.6174
 5244TIP3    H237148   6.446   0.575  13.467  0.2287  0.6927  2.1362
 5245TIP3   OH237149   0.307   4.532  15.300 -0.0503 -0.0840 -0.2226
 5245TIP3    H137150   0.369   4.563  15.366  0.2379 -0.8736 -0.1057
 5245TIP3    H237151   0.313   4.437  15.305 -0.0617 -0.1606 -1.3488
 5246TIP3   OH237152   1.811   3.129  11.744 -0.1016  0.1512  0.5124
 5246TIP3    H137153   1.789   3.220  11.726 -1.1347 -0.1188  0.3376
 5246TIP3    H237154   1.901   3.132  11.777  0.7344  0.9707 -1.6909
 5247TIP3   OH237155   0.989   2.407   1.291 -0.1294 -0.5162  0.3776
 5247TIP3    H137156   1.013   2.394   1.383  0.4731 -1.1577  0.1390
 5247TIP3    H237157   1.007   2.323   1.250 -0.8088 -0.3628 -0.2477
 5248TIP3   OH237158   3.280   0.638   4.842 -0.2438  0.2084 -0.0731
 5248TIP3    H137159   3.242   0.613   4.758  1.2117  0.4792 -0.8462
 5248TIP3    H237160   3.206   0.637   4.903 -1.4772  0.6997 -1.4841
 5249TIP3   OH237161   3.279   6.062  10.975 -0.7935  0.2786 -0.5958
 5249TIP3    H137162   3.305   5.970  10.977 -0.0205  0.4687  2.4018
 5249TIP3    H237163   3.186   6.061  10.998 -0.3683  0.2986  1.2456
 5250TIP3   OH237164   1.929   3.144  16.396 -0.2959  0.6307 -0.2380
 5250TIP3    H137165   2.014   3.125  16.434  0.2807  1.4538 -1.0674
 5250TIP3    H237166   1.894   3.058  16.372  0.3231  0.2890  0.0597
 5251TIP3   OH237167   6.364   6.607   5.878 -0.1292 -0.3482 -0.5984
 5251TIP3    H137168   6.452   6.628   5.847  0.3265 -1.3908 -0.0692
 5251TIP3    H237169   6.365   6.632   5.970 -0.6457  0.3638 -0.7817
 5252TIP3   OH237170   2.023   1.411   2.524 -0.1044 -0.1489  0.0258
 5252TIP3    H137171   1.941   1.378   2.487 -0.9804  1.9031  0.0314
 5252TIP3    H237172   2.087   1.401   2.454 -0.7073 -0.3655 -0.5055
 5253TIP3   OH237173   3.791   2.935  12.971 -0.8765  0.7561  0.3571
 5253TIP3    H137174   3.759   2.845  12.971  0.1442  0.3789 -0.5147
 5253TIP3    H237175   3.886   2.927  12.961 -0.9488  1.9595 -2.0258
 5254TIP3   OH237176   1.035   1.690   5.035  1.0380  0.1143 -0.4764
 5254TIP3    H137177   1.072   1.638   5.107 -2.0979 -1.3495  0.2718
 5254TIP3    H237178   1.003   1.624   4.972 -2.3328  0.9759  0.1010
 5255TIP3   OH237179   6.740   5.470   1.953 -0.6700  0.1395 -0.0494
 5255TIP3    H137180   6.696   5.385   1.946  0.1141 -0.1504 -1.9135
 5255TIP3    H237181   6.821   5.459   1.903  0.7565  1.1800  1.9044
 5256TIP3   OH237182   6.146   4.218  11.892  0.1532  0.1583  0.1760
 5256TIP3    H137183   6.073   4.241  11.834  0.4932  0.5606 -0.1040
 5256TIP3    H237184   6.104   4.185  11.971 -0.3390  0.4720  0.0562
 5257TIP3   OH237185   1.093   3.932  13.386  0.2933  0.4419  0.3193
 5257TIP3    H137186   1.117   4.023  13.405 -0.0775  0.3771  1.1326
 5257TIP3    H237187   1.067   3.933  13.294  1.1209  0.9830  0.0787
 5258TIP3   OH237188   1.795   5.460  15.770 -0.0815  0.0506  0.1517
 5258TIP3    H137189   1.741   5.461  15.849  0.1650 -0.1777  0.3212
 5258TIP3    H237190   1.809   5.553  15.750 -1.4648  0.1497 -0.5315
 5259TIP3   OH237191   2.339   0.284   6.387  0.5912 -0.1954 -0.3083
 5259TIP3    H137192   2.419   0.238   6.413  0.5050  0.6568  1.6295
 5259TIP3    H237193   2.313   0.332   6.466 -1.5246 -0.0154 -1.0762
 5260TIP3   OH237194   5.016   4.204   3.941 -0.0923  0.4255  0.1798
 5260TIP3    H137195   4.944   4.165   3.992  0.0487  2.2974  1.9590
 5260TIP3    H237196   5.058   4.264   4.002  1.6780  0.9657 -1.4780
 5261TIP3   OH237197   6.542   0.973  13.657 -0.1586  0.0940  1.1021
 5261TIP3    H137198   6.517   0.881  13.665 -0.8519  0.2462  0.7301
 5261TIP3    H237199   6.569   0.998  13.746 -0.8854 -0.2054  1.4119
 5262TIP3   OH237200   4.548   5.204  13.218 -0.3050 -0.1476  0.4228
 5262TIP3    H137201   4.594   5.146  13.278 -2.4152 -1.1250  1.1745
 5262TIP3    H237202   4.505   5.268  13.274 -1.0588 -0.1387 -0.1495
 5263TIP3   OH237203   6.440   1.711  16.007 -0.0165  0.1069  0.2313
 5263TIP3    H137204   6.372   1.653  15.972  1.5858 -1.2457 -0.8138
 5263TIP3    H237205   6.407   1.739  16.092 -1.6661 -0.8704 -0.0584
 5264TIP3   OH237206   5.075   3.371  16.271 -0.2634 -0.1705  0.3575
 5264TIP3    H137207   4.997   3.422  16.250 -0.5519 -0.1694  1.3693
 5264TIP3    H237208   5.060   3.286  16.231 -0.5482 -0.0062  0.1096
 5265TIP3   OH237209   3.980   3.378  15.989 -0.1162  0.2470  0.6021
 5265TIP3    H137210   3.942   3.463  15.965  1.4786  0.9369  0.3433
 5265TIP3    H237211   3.927   3.314  15.942  1.2694  1.3888 -2.8435
 5266TIP3   OH237212   2.618   0.097  17.100  0.3467 -0.5559  0.2023
 5266TIP3    H137213   2.523   0.096  17.090  0.4850 -2.8926 -1.9969
 5266TIP3    H237214   2.641   0.005  17.115  2.2750 -0.0161  0.8353
 5267TIP3   OH237215   2.615   0.846  16.382  1.1549 -0.3049 -0.0498
 5267TIP3    H137216   2.593   0.919  16.325  0.6864  2.0262  2.8903
 5267TIP3    H237217   2.550   0.779  16.361 -1.4508  1.9354  0.2760
 5268TIP3   OH237218   0.468   2.108  16.358 -0.0802  0.3604  0.4752
 5268TIP3    H137219   0.506   2.088  16.443 -0.8816 -0.0985  0.7353
 5268TIP3    H237220   0.432   2.196  16.368 -1.0912 -0.1012  0.9389
 5269TIP3   OH237221   4.503   3.920  15.814  0.1250 -0.1361 -0.7716
 5269TIP3    H137222   4.588   3.878  15.826 -0.4772 -2.1505 -2.7518
 5269TIP3    H237223   4.520   4.013  15.824  2.4475 -0.5228 -0.5423
 5270TIP3   OH237224   5.876   0.363   0.410 -0.0329  0.0868  0.3059
 5270TIP3    H137225   5.848   0.454   0.416  0.1067  0.1807 -0.3641
 5270TIP3    H237226   5.950   0.365   0.349 -1.1736 -0.7037 -1.1715
 5271TIP3   OH237227   2.020   6.781   1.566 -0.4715 -0.0359  0.3990
 5271TIP3    H137228   1.967   6.753   1.640 -1.2576 -1.2284 -0.5816
 5271TIP3    H237229   2.107   6.796   1.603 -0.2268 -2.8723  1.2039
 5272TIP3   OH237230   6.234   5.770  12.217 -0.3122 -0.2322  0.7158
 5272TIP3    H137231   6.324   5.783  12.189 -0.6155 -0.7033 -0.5680
 5272TIP3    H237232   6.236   5.690  12.270 -0.2040 -1.1329 -0.6058
 5273TIP3   OH237233   3.861   6.635   5.633  0.4630 -0.4141 -0.1320
 5273TIP3    H137234   3.811   6.714   5.614  2.6112  1.5002  1.4925
 5273TIP3    H237235   3.911   6.619   5.553 -0.6500 -0.6825 -0.7850
 5274TIP3   OH237236   6.209   2.192   5.177 -0.6246  0.8160 -0.1443
 5274TIP3    H137237   6.246   2.257   5.237  1.1948  1.5854 -1.9548
 5274TIP3    H237238   6.165   2.244   5.110 -1.3561  0.0590 -0.2592
 5275TIP3   OH237239   1.085   3.019   3.457 -0.4366 -0.1431 -0.0639
 5275TIP3    H137240   1.153   2.960   3.427  0.0656  1.1847 -1.6914
 5275TIP3    H237241   1.027   2.965   3.511  1.5734 -1.4283  0.9160
 5276TIP3   OH237242   3.106   5.698   5.986  0.4625  0.4304  0.0450
 5276TIP3    H137243   3.016   5.687   6.017  0.7039  1.2094  1.0776
 5276TIP3    H237244   3.106   5.659   5.898 -0.5780 -0.6699  0.5012
 5277TIP3   OH237245   1.440   6.330  11.635  0.3955  0.0685 -0.5979
 5277TIP3    H137246   1.526   6.318  11.593 -0.0826 -0.4657 -1.4364
 5277TIP3    H237247   1.397   6.246  11.627  0.1068  0.0829  0.6017
 5278TIP3   OH237248   6.781   1.669  15.736 -0.1517 -0.4957 -0.3526
 5278TIP3    H137249   6.730   1.652  15.657  1.1660 -3.8353 -0.6113
 5278TIP3    H237250   6.754   1.600  15.797  1.9354 -0.5694  0.5404
 5279TIP3   OH237251   4.827   0.946  12.754 -0.2360  0.0769  0.0391
 5279TIP3    H137252   4.828   1.038  12.728 -0.7948  0.5844  1.7208
 5279TIP3    H237253   4.848   0.899  12.674  1.3278  1.7168 -0.5772
 5280TIP3   OH237254   5.984   0.297  15.066 -0.1108  0.0900  0.3064
 5280TIP3    H137255   5.919   0.327  15.130 -0.8435  0.5137 -0.6044
 5280TIP3    H237256   6.065   0.341  15.092 -1.0450  2.6364 -0.7168
 5281TIP3   OH237257   3.627   0.241   1.063  0.4278 -0.3870  0.1249
 5281TIP3    H137258   3.620   0.325   1.017  2.0447  1.2248  2.6091
 5281TIP3    H237259   3.670   0.183   1.000  0.5327  1.0400 -1.1821
 5282TIP3   OH237260   6.490   3.970  13.687  0.1056 -0.3628  0.4458
 5282TIP3    H137261   6.564   4.005  13.736  1.1081  0.1718 -1.3338
 5282TIP3    H237262   6.515   3.879  13.668  0.4726 -0.0943 -0.4094
 5283TIP3   OH237263   2.078   2.229  14.094 -0.3512  0.4080 -0.1655
 5283TIP3    H137264   2.128   2.147  14.095 -0.3361  0.4143 -0.3015
 5283TIP3    H237265   2.008   2.212  14.031 -0.8226  0.2207  0.4028
 5284TIP3   OH237266   1.292   0.791  10.908  0.1615  0.7878  0.0715
 5284TIP3    H137267   1.287   0.698  10.927 -0.6925  0.8352  0.1191
 5284TIP3    H237268   1.385   0.808  10.893  0.2900 -0.1134 -0.1846
 5285TIP3   OH237269   1.888   3.757   2.654 -0.0054 -0.5001  0.9103
 5285TIP3    H137270   1.953   3.816   2.692  1.2208 -1.0991 -0.1868
 5285TIP3    H237271   1.845   3.716   2.729  0.0422  0.7871  1.6657
 5286TIP3   OH237272   3.855   4.328   5.804  0.7151 -0.1496  0.3395
 5286TIP3    H137273   3.941   4.298   5.776  1.2090  1.7626 -0.3524
 5286TIP3    H237274   3.817   4.370   5.726 -0.4161 -0.0522  0.9131
 5287TIP3   OH237275   0.942   6.097   5.583  0.4423 -0.0572 -0.5840
 5287TIP3    H137276   0.865   6.153   5.578  1.0675  0.7471 -2.4988
 5287TIP3    H237277   1.000   6.141   5.645  0.3145  0.6248 -0.9378
 5288TIP3   OH237278   3.661   4.780   1.467 -0.7263 -0.2673 -0.3968
 5288TIP3    H137279   3.568   4.779   1.490 -0.7696  3.3698  0.1019
 5288TIP3    H237280   3.705   4.808   1.547  0.2276  2.4917 -1.7713
 5289TIP3   OH237281   0.814   4.383  16.641 -0.1043 -0.3677  0.1189
 5289TIP3    H137282   0.906   4.410  16.651  0.4157 -1.6847 -0.7736
 5289TIP3    H237283   0.792   4.408  16.551 -0.8338  0.5135  0.5378
 5290TIP3   OH237284   1.144   2.082   2.983 -0.2058 -0.6108  0.0133
 5290TIP3    H137285   1.112   2.065   3.071  0.2847 -1.6490  0.0042
 5290TIP3    H237286   1.155   1.995   2.944  0.3755 -0.1959 -0.7791
 5291TIP3   OH237287   4.705   5.498   2.921  0.3714  0.1622  0.2917
 5291TIP3    H137288   4.721   5.453   3.005 -1.1131 -1.0147 -0.0158
 5291TIP3    H237289   4.635   5.448   2.880 -0.7562  2.2735 -0.5018
 5292TIP3   OH237290   0.988   0.025   1.287  0.2300  0.3922 -0.1877
 5292TIP3    H137291   0.978  -0.032   1.211  1.0700  1.0180 -0.7961
 5292TIP3    H237292   1.081   0.017   1.310 -0.3471 -1.1518  1.9006
 5293TIP3   OH237293   3.332   1.419  15.842  0.3253 -0.1638  0.2184
 5293TIP3    H137294   3.238   1.404  15.834  0.4666 -0.4324 -1.2654
 5293TIP3    H237295   3.339   1.493  15.903 -0.6712 -1.8460  2.5243
 5294TIP3   OH237296   5.219   4.559   2.056 -0.3359 -0.2275  0.0107
 5294TIP3    H137297   5.263   4.476   2.038 -1.3022 -0.6045 -0.6709
 5294TIP3    H237298   5.288   4.625   2.048  0.0680 -0.7786 -1.2734
 5295TIP3   OH237299   5.603   6.503   1.077  0.4539  0.2323 -0.0168
 5295TIP3    H137300   5.548   6.475   1.149 -1.0957  0.7064 -0.9573
 5295TIP3    H237301   5.585   6.597   1.069  1.6160  0.4550 -0.1809
 5296TIP3   OH237302   0.877   0.193  15.677  0.0541  0.0983 -0.1536
 5296TIP3    H137303   0.937   0.265  15.656 -1.1476  1.0247 -0.4749
 5296TIP3    H237304   0.920   0.115  15.639  1.8082  0.4489  0.9797
 5297TIP3   OH237305   4.649   6.138   3.598 -0.3307  0.5572  0.4577
 5297TIP3    H137306   4.676   6.211   3.543  1.1236  0.0703  0.4562
 5297TIP3    H237307   4.682   6.060   3.552  0.4853  0.1056  1.7239
 5298TIP3   OH237308   2.334   3.894   0.618 -0.2778  0.2450 -0.4854
 5298TIP3    H137309   2.307   3.973   0.572  2.9548  0.5654 -2.1010
 5298TIP3    H237310   2.375   3.926   0.698  0.6343  0.2218 -0.9296
 5299TIP3   OH237311   6.336   3.154   2.133 -0.2369 -0.1028 -0.1073
 5299TIP3    H137312   6.392   3.231   2.119 -1.5588  0.9532  0.2459
 5299TIP3    H237313   6.322   3.119   2.045 -0.6067  0.7890 -0.4142
 5300TIP3   OH237314   5.318   5.893   2.448 -0.0491 -0.7495  0.1468
 5300TIP3    H137315   5.382   5.832   2.484  0.2946 -0.0433  0.7656
 5300TIP3    H237316   5.318   5.875   2.354 -1.4806 -3.1085  0.5296
 5301TIP3   OH237317   0.215   1.638   0.534  0.0294 -0.1775 -0.1038
 5301TIP3    H137318   0.273   1.625   0.459 -1.0483 -1.1930 -0.7896
 5301TIP3    H237319   0.127   1.633   0.498 -0.5109  0.9920  0.9794
 5302TIP3   OH237320   1.724   4.508  10.564 -0.4979  0.0225 -0.2004
 5302TIP3    H137321   1.758   4.595  10.586 -0.8780  1.0061 -3.0743
 5302TIP3    H237322   1.799   4.450  10.576  0.0775  0.9070  0.6945
 5303TIP3   OH237323   1.033   6.619   4.364  0.1643 -0.1140  0.2449
 5303TIP3    H137324   0.969   6.674   4.319 -0.6533 -1.7889 -0.7475
 5303TIP3    H237325   0.995   6.603   4.450  0.4003  0.8315  0.5332
 5304TIP3   OH237326   6.641   2.988   4.238  0.4718  0.4612  0.6385
 5304TIP3    H137327   6.598   2.928   4.176 -0.3972  0.7587  0.9317
 5304TIP3    H237328   6.599   3.073   4.222  0.7716  0.7059  1.1226
 5305TIP3   OH237329   1.880   2.227   1.569  0.2528  0.1984 -0.5336
 5305TIP3    H137330   1.923   2.152   1.611 -0.1533  0.3960  0.2391
 5305TIP3    H237331   1.795   2.233   1.612 -0.3605  0.1281 -1.7046
 5306TIP3   OH237332   2.068   2.137  14.356 -0.0588 -0.4602  0.2018
 5306TIP3    H137333   2.163   2.124  14.354  0.2602  1.1329  2.1392
 5306TIP3    H237334   2.052   2.203  14.288  0.2347 -0.6458 -0.0519
 5307TIP3   OH237335   2.013   1.887   3.783 -0.1460 -0.7172  0.0593
 5307TIP3    H137336   2.021   1.980   3.763 -0.9935 -0.0321  2.6102
 5307TIP3    H237337   1.942   1.856   3.727 -0.2091  0.2769 -0.4322
 5308TIP3   OH237338   4.879   6.670  15.231  0.2511  0.2015  0.0790
 5308TIP3    H137339   4.920   6.584  15.247  0.9039  0.5430  0.2812
 5308TIP3    H237340   4.825   6.656  15.153 -0.5114 -0.6775  0.7436
 5309TIP3   OH237341   2.684   1.916   6.420  0.0089 -0.6364  0.0228
 5309TIP3    H137342   2.643   1.997   6.452  0.5698 -0.5624  0.5716
 5309TIP3    H237343   2.657   1.849   6.483  1.2361 -0.4638  0.7686
 5310TIP3   OH237344   0.769   0.249  16.538 -0.0926 -0.2285  0.2181
 5310TIP3    H137345   0.807   0.335  16.521 -0.3342 -0.4527 -1.7154
 5310TIP3    H237346   0.698   0.241  16.474 -1.1029 -1.2520  1.3974
 5311TIP3   OH237347   2.020   0.449   2.355 -0.7086 -0.3393  0.2764
 5311TIP3    H137348   2.016   0.365   2.308  0.1681 -0.1219 -0.2147
 5311TIP3    H237349   2.113   0.459   2.376 -1.0273 -0.2330  1.7069
 5312TIP3   OH237350   2.897   3.462  11.311  0.1841  0.1810 -0.0818
 5312TIP3    H137351   2.983   3.435  11.278  0.8110  1.1803  0.6688
 5312TIP3    H237352   2.857   3.507  11.237  0.6737  0.4676 -0.1829
 5313TIP3   OH237353   5.997   6.016  11.071 -0.0014 -0.9502  0.0879
 5313TIP3    H137354   6.023   6.093  11.122  0.7811 -0.4822 -0.9850
 5313TIP3    H237355   5.903   6.026  11.059  0.1308 -0.0203 -0.2584
 5314TIP3   OH237356   1.811   4.120  14.707 -0.1516 -0.1750  1.0454
 5314TIP3    H137357   1.749   4.048  14.698 -0.6149  0.0451  2.2823
 5314TIP3    H237358   1.757   4.198  14.714  0.3628  0.4209 -1.0003
 5315TIP3   OH237359   2.585   5.981  12.885 -0.3308 -0.4344 -0.1278
 5315TIP3    H137360   2.495   6.008  12.904  0.2286  1.0256  0.6386
 5315TIP3    H237361   2.625   5.972  12.972  1.0368  1.8571 -0.4305
 5316TIP3   OH237362   6.244   6.363   4.639  0.4637  0.1382 -0.1051
 5316TIP3    H137363   6.333   6.329   4.651  0.9804  1.0129 -1.2248
 5316TIP3    H237364   6.189   6.285   4.631  1.2118 -0.4185  0.0545
 5317TIP3   OH237365   2.101   5.135  15.616  0.4552  0.0241  0.4687
 5317TIP3    H137366   2.123   5.083  15.538 -0.4727  0.5010 -0.1361
 5317TIP3    H237367   2.052   5.209  15.581 -0.2766  0.0642  1.5552
 5318TIP3   OH237368   0.495   0.066   1.969  0.2721  0.5254  0.6139
 5318TIP3    H137369   0.472   0.155   1.942 -1.1869  0.2783  0.9521
 5318TIP3    H237370   0.510   0.018   1.888  0.4056  0.9108  0.4115
 5319TIP3   OH237371   0.713   5.772   4.882  0.2392 -0.3463 -0.1038
 5319TIP3    H137372   0.748   5.852   4.844  3.3907 -0.8559  1.4111
 5319TIP3    H237373   0.686   5.797   4.970  0.6866 -0.8025  0.1703
 5320TIP3   OH237374   5.215   3.547  15.762  0.5174 -0.2246  0.2852
 5320TIP3    H137375   5.191   3.544  15.855 -0.9365 -0.0715 -0.0547
 5320TIP3    H237376   5.244   3.637  15.748  0.8443 -0.2763  0.6086
 5321TIP3   OH237377   1.236   6.488  11.933  0.1684  0.0947  0.3596
 5321TIP3    H137378   1.214   6.452  11.847  0.5640  1.5194 -0.3533
 5321TIP3    H237379   1.332   6.480  11.938 -0.0561 -3.9544  2.5016
 5322TIP3   OH237380   4.959   6.386  13.321  0.6968  0.0337 -0.2182
 5322TIP3    H137381   4.955   6.359  13.412  1.1336  1.8988  0.3982
 5322TIP3    H237382   4.896   6.330  13.276  1.6050 -2.0038  0.9102
 5323TIP3   OH237383   0.430   2.794  11.608  0.2654 -0.0863  0.0596
 5323TIP3    H137384   0.516   2.837  11.606 -0.0322  0.5884  0.9375
 5323TIP3    H237385   0.406   2.795  11.700 -1.2447  0.8968 -0.3171
 5324TIP3   OH237386   4.123   3.178   6.179  0.3952 -0.5603  0.4414
 5324TIP3    H137387   4.103   3.090   6.147  1.1930 -0.7007  0.3092
 5324TIP3    H237388   4.050   3.232   6.149  1.5375 -0.4829 -2.4975
 5325TIP3   OH237389   6.784   3.922  14.511 -0.0600  0.0302 -0.1601
 5325TIP3    H137390   6.786   3.959  14.600 -0.2973 -2.8300  1.1438
 5325TIP3    H237391   6.753   3.994  14.456  0.8892  2.1706  1.8932
 5326TIP3   OH237392   2.186   6.202   2.271 -0.1218 -0.5556 -0.6850
 5326TIP3    H137393   2.174   6.131   2.333 -0.5991  0.9639  1.0522
 5326TIP3    H237394   2.156   6.166   2.187 -0.1750 -2.4234  0.0842
 5327TIP3   OH237395   2.148   6.654   5.451 -0.3513 -0.3787  0.0204
 5327TIP3    H137396   2.062   6.695   5.465 -0.1358  1.6099 -3.3961
 5327TIP3    H237397   2.209   6.727   5.447  1.2841 -1.6522  0.6966
 5328TIP3   OH237398   6.025   6.330   2.295 -0.2758 -0.2510  0.2569
 5328TIP3    H137399   5.930   6.346   2.299 -0.5747 -2.0170  1.7065
 5328TIP3    H237400   6.038   6.288   2.210 -1.3417 -2.6433  1.1746
 5329TIP3   OH237401   0.693   1.233   4.051 -0.3174  0.5630  0.3385
 5329TIP3    H137402   0.739   1.188   3.980  0.3074 -2.1847  2.3395
 5329TIP3    H237403   0.601   1.231   4.025 -0.0590 -0.0000 -0.5857
 5330TIP3   OH237404   5.026   5.124   3.845  0.2674 -0.0909  0.7619
 5330TIP3    H137405   5.104   5.179   3.854  2.6842 -3.0614 -0.0371
 5330TIP3    H237406   5.005   5.097   3.934  0.0556  0.8177  0.9941
 5331TIP3   OH237407   2.972   4.227   0.339  0.3006 -0.2691 -0.0491
 5331TIP3    H137408   2.973   4.288   0.413  2.8691  0.9658 -0.9623
 5331TIP3    H237409   2.972   4.140   0.380 -0.7863  0.3302  1.3231
 5332TIP3   OH237410   2.310   3.923  12.595  0.0641 -0.0681 -0.3834
 5332TIP3    H137411   2.335   3.978  12.520  2.1340 -2.0541 -1.2945
 5332TIP3    H237412   2.220   3.897  12.577 -0.1091  1.0188 -1.1930
 5333TIP3   OH237413   3.368   0.291  16.091 -0.0794  0.6431  0.0795
 5333TIP3    H137414   3.310   0.319  16.162 -1.2270 -1.0672 -0.1263
 5333TIP3    H237415   3.381   0.370  16.039 -1.9809  1.1635  0.3223
 5334TIP3   OH237416   2.515   3.936   2.615 -0.3577  0.1973 -0.1150
 5334TIP3    H137417   2.610   3.946   2.614 -0.3714  0.4853  0.7810
 5334TIP3    H237418   2.482   4.025   2.628 -0.6868 -0.1160  1.3561
 5335TIP3   OH237419   4.779   5.757  13.205 -0.1552 -0.1813  0.1930
 5335TIP3    H137420   4.863   5.781  13.166  0.0981  0.9865  1.3725
 5335TIP3    H237421   4.780   5.662  13.208 -0.3864 -0.4120 -2.9612
 5336TIP3   OH237422   3.912   0.963   3.554  0.5164  0.0812  0.2516
 5336TIP3    H137423   3.826   0.970   3.514  1.3162  0.4619 -1.4748
 5336TIP3    H237424   3.955   1.046   3.534  1.0815  0.1583  1.6425
 5337TIP3   OH237425   3.946   2.888  11.732  0.3851  0.0533 -0.0802
 5337TIP3    H137426   3.942   2.840  11.815 -0.1149  2.0830  1.1305
 5337TIP3    H237427   3.930   2.821  11.666 -1.8693 -1.2262  1.5911
 5338TIP3   OH237428   3.044   4.126  15.327  0.6130  0.0637 -0.3192
 5338TIP3    H137429   2.991   4.191  15.279 -0.0856 -0.8362 -0.7964
 5338TIP3    H237430   3.060   4.057  15.263  2.7578  0.4960 -0.3158
 5339TIP3   OH237431   6.030   3.346  14.939 -0.1130 -0.3730 -0.4577
 5339TIP3    H137432   6.066   3.370  15.025  0.2362 -0.1749 -0.6612
 5339TIP3    H237433   5.998   3.257  14.951 -0.8139 -0.0547  0.1168
 5340TIP3   OH237434   4.233   2.338  15.590 -0.2396 -0.0582  0.8334
 5340TIP3    H137435   4.293   2.280  15.637 -0.7418 -0.5248  0.9037
 5340TIP3    H237436   4.215   2.409  15.651 -0.8936 -0.6640  1.3611
 5341TIP3   OH237437   1.597   1.870   0.770 -0.1012  0.0338  0.3444
 5341TIP3    H137438   1.685   1.833   0.766  0.4331  1.3614 -0.8005
 5341TIP3    H237439   1.604   1.944   0.830  0.4393  2.2459 -2.3010
 5342TIP3   OH237440   6.738   0.125  14.744 -0.4937 -0.0624  0.3356
 5342TIP3    H137441   6.800   0.084  14.804 -1.3625 -1.1385  0.5138
 5342TIP3    H237442   6.794   0.168  14.679  0.4478 -1.3591  0.2498
 5343TIP3   OH237443   0.897   1.590   5.764  0.3405 -0.0365 -0.0506
 5343TIP3    H137444   0.818   1.644   5.755  0.8125  0.8144  0.7832
 5343TIP3    H237445   0.912   1.585   5.858  1.8073  0.6000 -0.2290
 5344TIP3   OH237446   0.940   0.851  11.877  0.3976 -0.2595 -0.4540
 5344TIP3    H137447   0.880   0.887  11.943  0.2508  0.1794 -0.8258
 5344TIP3    H237448   0.904   0.880  11.793  2.5985  2.4477 -0.6226
 5345TIP3   OH237449   5.426   1.413   1.241 -0.2700 -0.0572 -0.1285
 5345TIP3    H137450   5.364   1.405   1.168  0.3469 -1.3080 -0.5489
 5345TIP3    H237451   5.509   1.383   1.204  0.1535 -0.2598  0.9639
 5346TIP3   OH237452   3.886   5.102  12.167  0.9194  0.3551  0.5390
 5346TIP3    H137453   3.958   5.151  12.209  0.5529 -0.2620  1.9479
 5346TIP3    H237454   3.875   5.025  12.222 -1.3173  0.7926  0.7778
 5347TIP3   OH237455   1.510   1.634  13.414 -0.2620  0.3646  0.8313
 5347TIP3    H137456   1.471   1.553  13.381  0.9822 -0.2156  0.7231
 5347TIP3    H237457   1.539   1.680  13.335  2.1521 -0.7323  0.9760
 5348TIP3   OH237458   5.438   3.344   2.141  0.5019  0.1657  0.3028
 5348TIP3    H137459   5.400   3.291   2.211  0.9412  0.6938  0.9563
 5348TIP3    H237460   5.365   3.362   2.082  0.2300 -0.6904  0.3599
 5349TIP3   OH237461   1.570   2.031  14.601 -0.1219 -0.3552 -0.2043
 5349TIP3    H137462   1.592   2.075  14.519 -1.2456 -1.0642 -0.9182
 5349TIP3    H237463   1.488   2.070  14.628  1.4318  1.6580  1.9670
 5350TIP3   OH237464   5.093   6.059   0.795 -0.3236 -0.4560  0.5124
 5350TIP3    H137465   5.008   6.027   0.763 -0.3920  0.3208 -0.1197
 5350TIP3    H237466   5.095   6.151   0.768  0.6092 -0.3982  0.7554
 5351TIP3   OH237467   5.780   3.937   1.651 -0.4309 -0.2629  0.4127
 5351TIP3    H137468   5.832   4.016   1.637  1.9582 -1.6436  0.9685
 5351TIP3    H237469   5.694   3.969   1.679  0.6823  2.1173  1.3542
 5352TIP3   OH237470   2.634   2.433  10.336  0.0063 -0.6177 -0.1070
 5352TIP3    H137471   2.621   2.347  10.376 -0.6857  0.1555  1.4630
 5352TIP3    H237472   2.545   2.467  10.324  0.2454  0.9335  1.8791
 5353TIP3   OH237473   2.476   1.204  13.204  0.1802 -0.2845 -0.0741
 5353TIP3    H137474   2.476   1.299  13.194  1.9018 -0.1400  0.9128
 5353TIP3    H237475   2.542   1.173  13.143  0.7626 -0.6745  0.7262
 5354TIP3   OH237476   1.026   1.817   2.357  0.3049 -0.4234 -0.1848
 5354TIP3    H137477   0.955   1.881   2.367  1.1286  0.6427 -0.9123
 5354TIP3    H237478   0.981   1.737   2.331 -0.5808  0.5186 -1.7531
 5355TIP3   OH237479   6.118   3.634   3.623  0.5991 -0.6866 -0.3186
 5355TIP3    H137480   6.077   3.656   3.539 -0.7473  0.3231  0.5707
 5355TIP3    H237481   6.095   3.706   3.681  2.4264 -0.8196  0.6603
 5356TIP3   OH237482   2.263   5.144  12.033  0.5413 -0.2412 -0.5117
 5356TIP3    H137483   2.238   5.056  12.059 -4.0413  0.9922  0.0635
 5356TIP3    H237484   2.234   5.152  11.943  2.7285  0.1673 -1.2399
 5357TIP3   OH237485   2.771   0.105  15.199 -0.0068 -0.5118 -0.0743
 5357TIP3    H137486   2.717   0.184  15.198  0.0651 -0.4464 -1.6719
 5357TIP3    H237487   2.846   0.127  15.254 -1.3245 -0.4448  1.8081
 5358TIP3   OH237488   5.791   4.669   0.253 -0.3713  0.2744  0.0325
 5358TIP3    H137489   5.876   4.625   0.245 -0.9810 -1.0525  0.4079
 5358TIP3    H237490   5.760   4.679   0.163  0.2468  0.9285 -0.1171
 5359TIP3   OH237491   2.066   2.695   5.466 -0.1386 -0.1657  0.0717
 5359TIP3    H137492   2.040   2.770   5.413 -0.0678  0.2311  0.5904
 5359TIP3    H237493   1.993   2.634   5.461 -0.0464 -0.2186 -0.6454
 5360TIP3   OH237494   2.444   4.560  12.949  1.1441  0.3064  0.4712
 5360TIP3    H137495   2.382   4.624  12.914  0.4539 -0.5684  0.0459
 5360TIP3    H237496   2.421   4.553  13.042 -0.2464 -0.9113  0.0740
 5361TIP3   OH237497   6.415   1.616  13.885 -0.7380 -0.6502 -0.2920
 5361TIP3    H137498   6.454   1.618  13.798 -0.5646 -2.7572 -0.3157
 5361TIP3    H237499   6.489   1.622  13.945 -0.6822 -1.0899 -0.3137
 5362TIP3   OH237500   3.880   0.773   2.031 -0.0669  0.3527  0.6063
 5362TIP3    H137501   3.900   0.690   2.074 -1.8356 -0.1351  0.5567
 5362TIP3    H237502   3.790   0.794   2.057 -1.4428 -0.1833 -3.0544
 5363TIP3   OH237503   5.317   6.020   3.413  0.0985 -0.1733  0.2080
 5363TIP3    H137504   5.293   6.097   3.361 -1.2210 -0.4455  0.3586
 5363TIP3    H237505   5.393   6.047   3.464  0.1007  0.7916 -0.2883
 5364TIP3   OH237506   0.360   5.240   1.979  0.1635 -0.2975  0.1592
 5364TIP3    H137507   0.333   5.148   1.980  0.2614 -0.3188  1.0955
 5364TIP3    H237508   0.456   5.236   1.977  0.1974 -0.2229  1.2893
 5365TIP3   OH237509   4.421   1.823  11.923 -0.0224 -0.1052  0.2576
 5365TIP3    H137510   4.334   1.841  11.888 -0.4800  2.0817  2.2766
 5365TIP3    H237511   4.411   1.744  11.974 -1.3454  1.0899  1.9449
 5366TIP3   OH237512   2.112   3.127   3.789  0.4754 -0.2973 -0.1053
 5366TIP3    H137513   2.116   3.102   3.697  0.3833 -0.9686  0.0645
 5366TIP3    H237514   2.178   3.072   3.832  0.0887 -0.4383  0.3229
 5367TIP3   OH237515   0.827   6.239   3.008 -0.3755 -0.3925  0.6976
 5367TIP3    H137516   0.810   6.321   2.961  2.7525  1.1829  2.0527
 5367TIP3    H237517   0.886   6.191   2.950 -0.2756 -0.5983  0.9712
 5368TIP3   OH237518   0.978   6.463  13.012  0.2883 -0.0558 -0.0195
 5368TIP3    H137519   1.035   6.435  12.940 -0.2149  0.9149 -0.8178
 5368TIP3    H237520   0.978   6.559  13.007 -0.6504 -0.0133  0.5707
 5369TIP3   OH237521   0.893   4.799  12.344 -0.0542 -0.0401 -0.1385
 5369TIP3    H137522   0.843   4.876  12.371  0.5736 -0.0737  1.1716
 5369TIP3    H237523   0.830   4.728  12.346 -0.2289  0.1274  0.3485
 5370TIP3   OH237524   5.358   6.558  13.653  0.4398 -0.0568 -0.8051
 5370TIP3    H137525   5.278   6.610  13.644  0.0141 -0.3068  1.0737
 5370TIP3    H237526   5.331   6.469  13.628 -0.2179 -0.3750  0.8943
 5371TIP3   OH237527   5.626   1.937   5.625 -0.2151  0.1469 -0.2314
 5371TIP3    H137528   5.579   1.858   5.599  0.3130 -0.1128 -0.3982
 5371TIP3    H237529   5.600   2.002   5.559  0.0293 -0.1295 -0.6079
 5372TIP3   OH237530   5.895   4.381   3.688  0.3675  0.0953 -0.6311
 5372TIP3    H137531   5.890   4.418   3.600  1.6782  0.6815 -0.4936
 5372TIP3    H237532   5.844   4.301   3.684  0.7091 -0.0772 -2.0382
 5373TIP3   OH237533   2.259   4.091  14.094 -0.0543 -0.5059  0.1663
 5373TIP3    H137534   2.233   4.000  14.112  1.2476 -0.8876  0.2177
 5373TIP3    H237535   2.249   4.100  13.999 -1.2903 -0.3209  0.2932
 5374TIP3   OH237536   4.079   1.678   4.712 -0.7207 -0.3357 -0.0519
 5374TIP3    H137537   4.069   1.584   4.695  0.7358 -0.4421 -0.4297
 5374TIP3    H237538   3.994   1.716   4.687 -2.0017 -1.7484  1.8866
 5375TIP3   OH237539   4.261   0.543   3.813  0.8774  0.4575  0.4529
 5375TIP3    H137540   4.215   0.465   3.844  0.4446  1.0113  1.2216
 5375TIP3    H237541   4.349   0.534   3.848  1.0506 -0.0443 -0.0838
 5376TIP3   OH237542   2.604   1.578   2.326  0.1051  0.1516  0.3017
 5376TIP3    H137543   2.627   1.485   2.320 -0.6461 -0.0440  0.4262
 5376TIP3    H237544   2.629   1.603   2.415  0.8612  0.2340  0.0820
 5377TIP3   OH237545   3.044   5.133  13.633 -0.3774 -0.5563  0.4699
 5377TIP3    H137546   2.994   5.064  13.588  0.3259 -2.0706  1.9085
 5377TIP3    H237547   3.055   5.100  13.722  1.5371  0.6143  0.7139
 5378TIP3   OH237548   4.806   0.529  16.306 -0.1508 -0.0008 -0.1401
 5378TIP3    H137549   4.725   0.579  16.297 -0.7292 -1.0995 -1.3919
 5378TIP3    H237550   4.810   0.476  16.226  1.2983 -0.6983  0.3624
 5379TIP3   OH237551   5.379   1.206   1.436 -0.4958 -0.0956  0.4148
 5379TIP3    H137552   5.449   1.141   1.427 -0.5322 -0.3451  1.7320
 5379TIP3    H237553   5.395   1.269   1.366  0.9037 -0.2723  0.5568
 5380TIP3   OH237554   0.714   1.063   2.466 -0.0320  0.3915  0.2977
 5380TIP3    H137555   0.661   1.142   2.458 -0.0174  0.2854 -1.0165
 5380TIP3    H237556   0.650   0.992   2.472 -0.0442  0.4789  1.4079
 5381TIP3   OH237557   0.353   2.830   3.441 -0.1790 -0.0586  0.3231
 5381TIP3    H137558   0.296   2.791   3.374 -0.1821 -0.7608  0.7277
 5381TIP3    H237559   0.441   2.804   3.416  0.1294  1.9490 -0.9355
 5382TIP3   OH237560   0.686   3.139  12.880  0.0013 -0.3575 -0.2405
 5382TIP3    H137561   0.736   3.059  12.894  0.8890  0.1203 -0.6236
 5382TIP3    H237562   0.679   3.179  12.967  0.3199 -0.4072 -0.1911
 5383TIP3   OH237563   4.928   3.368   3.126  0.5033 -0.1014  0.0297
 5383TIP3    H137564   4.918   3.279   3.158  1.4513  0.2419  1.3567
 5383TIP3    H237565   4.935   3.422   3.205  1.6853  0.9412 -0.7403
 5384TIP3   OH237566   5.820   0.001   3.749  0.4447  0.1608 -0.0076
 5384TIP3    H137567   5.744  -0.057   3.757 -1.3890  2.1248 -1.8670
 5384TIP3    H237568   5.831   0.038   3.836  0.8540 -1.9217  0.8872
 5385TIP3   OH237569   6.012   5.105  15.250 -0.1830  0.3991 -0.0149
 5385TIP3    H137570   5.985   5.023  15.292 -0.4942  0.3306 -0.3421
 5385TIP3    H237571   6.024   5.165  15.323  1.7369 -0.3909  0.3788
 5386TIP3   OH237572   1.699   6.207   2.695 -0.9154 -0.3750  0.1725
 5386TIP3    H137573   1.726   6.281   2.641 -0.9985 -0.0784  0.5303
 5386TIP3    H237574   1.634   6.161   2.643 -0.8655 -0.1954 -0.0505
 5387TIP3   OH237575   2.441   0.273  10.914 -0.6030 -0.3382  0.2057
 5387TIP3    H137576   2.468   0.313  10.831 -1.1797  2.9895  1.4637
 5387TIP3    H237577   2.358   0.229  10.893  0.4428 -1.6482 -1.4286
 5388TIP3   OH237578   0.368   3.507  16.482 -0.1150 -0.7500 -0.4351
 5388TIP3    H137579   0.357   3.478  16.392 -0.3834 -1.6230 -0.1392
 5388TIP3    H237580   0.457   3.541  16.487 -0.1477 -0.5730 -1.0616
 5389TIP3   OH237581   2.803   5.439  11.805  0.0909 -0.0296 -0.0675
 5389TIP3    H137582   2.820   5.346  11.788  2.2282  0.0702  1.1372
 5389TIP3    H237583   2.793   5.478  11.718 -0.4235 -1.3015 -0.6039
 5390TIP3   OH237584   6.051   1.474   0.907 -0.0346 -0.1108  0.0549
 5390TIP3    H137585   6.082   1.555   0.947  1.1724 -0.3914 -0.2804
 5390TIP3    H237586   6.040   1.413   0.981  0.2886 -0.0304  0.1680
 5391TIP3   OH237587   6.703   3.124   5.813 -0.2325  0.8473 -0.3092
 5391TIP3    H137588   6.737   3.101   5.726  0.4293  0.5561  0.0156
 5391TIP3    H237589   6.739   3.056   5.871 -1.1248  0.7184  0.0986
 5392TIP3   OH237590   3.850   0.908  16.725 -0.4224 -0.0653  0.1434
 5392TIP3    H137591   3.913   0.971  16.760  2.4965 -1.3931 -2.2804
 5392TIP3    H237592   3.809   0.953  16.652  0.0427 -0.2222 -0.2194
 5393TIP3   OH237593   2.928   0.048  14.872  0.4128 -0.4727 -0.2220
 5393TIP3    H137594   2.997   0.054  14.938  0.0942  0.7375  0.0241
 5393TIP3    H237595   2.896   0.138  14.863  0.5826 -0.5797 -2.1739
 5394TIP3   OH237596   1.346   3.362   0.636 -0.3831  0.6184 -0.1296
 5394TIP3    H137597   1.288   3.415   0.581 -0.3886 -0.3384 -1.0817
 5394TIP3    H237598   1.433   3.402   0.623 -0.4193  0.5236 -0.6733
 5395TIP3   OH237599   2.405   4.429  10.578 -1.1009 -0.4056 -0.1596
 5395TIP3    H137600   2.377   4.371  10.506 -0.8920 -1.0387  0.2642
 5395TIP3    H237601   2.451   4.500  10.535 -0.1681 -1.2558 -0.5958
 5396TIP3   OH237602   1.367   5.085  16.099  0.0554 -0.3926  0.3624
 5396TIP3    H137603   1.369   5.131  16.016 -0.3553  0.4741  0.8237
 5396TIP3    H237604   1.459   5.068  16.120  0.1236 -1.3305 -0.6441
 5397TIP3   OH237605   1.237   4.047   4.706  0.2467  0.1878  1.0545
 5397TIP3    H137606   1.239   4.023   4.614 -0.8787  1.7378  0.5825
 5397TIP3    H237607   1.288   4.128   4.711 -0.4079  0.5807  1.6226
 5398TIP3   OH237608   6.394   0.672  11.374 -0.5015 -0.1466  0.1192
 5398TIP3    H137609   6.421   0.753  11.330 -0.8410  0.3739  0.8508
 5398TIP3    H237610   6.436   0.602  11.323 -0.9749  0.4263 -1.0852
 5399TIP3   OH237611   4.037   3.818  12.028  0.2572  0.3631 -0.1378
 5399TIP3    H137612   4.102   3.814  12.097  1.1452  1.0261 -0.9088
 5399TIP3    H237613   4.042   3.908  11.995 -0.0742  0.0359 -1.1241
 5400TIP3   OH237614   6.454   0.151  13.529  0.3063 -0.3405 -0.0549
 5400TIP3    H137615   6.386   0.188  13.472  0.7819 -0.0542 -0.4466
 5400TIP3    H237616   6.530   0.141  13.471  0.8311  0.0675  0.5612
 5401TIP3   OH237617   3.172   2.889  13.874 -0.2625 -0.1957  0.2796
 5401TIP3    H137618   3.126   2.809  13.900  0.2965 -0.5891  0.0875
 5401TIP3    H237619   3.102   2.954  13.861 -0.6493 -0.3520  1.4428
 5402TIP3   OH237620   4.374   5.875  13.151  0.2212  0.3021  0.7806
 5402TIP3    H137621   4.423   5.940  13.202 -0.2442  1.3237 -0.0430
 5402TIP3    H237622   4.397   5.791  13.191  1.7710  0.8537  1.1236
 5403TIP3   OH237623   6.736   4.537   3.672 -0.1232 -1.1158  0.4093
 5403TIP3    H137624   6.756   4.446   3.649 -2.1483 -1.3577 -0.6150
 5403TIP3    H237625   6.723   4.581   3.588 -3.2230 -0.9159  0.8931
 5404TIP3   OH237626   5.951   4.142   3.905 -0.0568  0.0428 -0.3088
 5404TIP3    H137627   5.955   4.060   3.955  0.7807 -0.2252 -0.7981
 5404TIP3    H237628   5.901   4.120   3.826  1.8868 -0.5622 -1.4296
 5405TIP3   OH237629   2.218   0.130   2.842  0.3652  0.3096  0.1270
 5405TIP3    H137630   2.272   0.079   2.902 -0.3061  0.3289  0.7673
 5405TIP3    H237631   2.280   0.189   2.798  1.0565 -0.6259 -0.1824
 5406TIP3   OH237632   6.500   6.601   0.350  0.4772 -0.3189 -0.4145
 5406TIP3    H137633   6.539   6.515   0.334 -0.2629 -0.8247  0.4579
 5406TIP3    H237634   6.562   6.662   0.310  0.9773 -1.2496 -1.1119
 5407TIP3   OH237635   6.287   5.363   1.044  0.9112  0.4988  0.0069
 5407TIP3    H137636   6.245   5.321   1.119  1.5502  0.1708  0.1912
 5407TIP3    H237637   6.337   5.435   1.081  0.9544  0.5471 -0.1424
 5408TIP3   OH237638   5.010   6.160  11.727  0.0376 -0.2488 -0.0226
 5408TIP3    H137639   5.035   6.151  11.635  0.4704  2.1045 -0.1950
 5408TIP3    H237640   5.092   6.179  11.773 -0.2746 -0.7167  0.7587
 5409TIP3   OH237641   4.581   0.056  16.457  0.1561 -0.1707  0.0539
 5409TIP3    H137642   4.636   0.133  16.474  3.2540 -2.4616  1.2196
 5409TIP3    H237643   4.598   0.033  16.366 -0.6615  0.3542 -0.2517
 5410TIP3   OH237644   1.084   6.058  14.313 -0.2289 -0.5950  0.7321
 5410TIP3    H137645   1.134   5.982  14.283 -0.4214 -0.4607  0.0481
 5410TIP3    H237646   1.052   6.098  14.232 -1.3467 -0.6226  1.1451
 5411TIP3   OH237647   1.131   2.998  16.639 -0.5271  0.1302  0.0709
 5411TIP3    H137648   1.170   3.085  16.635 -1.5859  0.6806  1.1930
 5411TIP3    H237649   1.196   2.945  16.685  0.3866  0.1464 -1.1494
 5412TIP3   OH237650   3.046   2.137   3.784  0.8315 -0.5181  0.5884
 5412TIP3    H137651   3.107   2.090   3.842  1.7411 -0.3803 -0.2234
 5412TIP3    H237652   3.064   2.229   3.800  2.1058 -0.4615 -0.8853
 5413TIP3   OH237653   0.082   6.222  17.173  0.1210 -0.1469 -0.3924
 5413TIP3    H137654   0.161   6.220  17.119 -0.2183  1.1671 -0.9514
 5413TIP3    H237655   0.027   6.153  17.136  0.5962 -0.4218 -0.6101
 5414TIP3   OH237656   2.874   2.558   1.887  0.5632 -0.4165  0.3062
 5414TIP3    H137657   2.962   2.520   1.892  0.3597 -0.8640  0.4846
 5414TIP3    H237658   2.841   2.553   1.977  0.0102 -1.0669  0.0710
 5415TIP3   OH237659   1.062   6.071   4.337 -0.4126  0.1772 -0.3225
 5415TIP3    H137660   1.051   6.165   4.347 -2.4328  0.0319 -0.6472
 5415TIP3    H237661   1.073   6.038   4.426  0.4774  0.7183 -0.2219
 5416TIP3   OH237662   1.806   5.104   3.511  0.4094 -0.3644  0.6803
 5416TIP3    H137663   1.828   5.020   3.551 -1.0447 -0.6382  0.9528
 5416TIP3    H237664   1.771   5.081   3.425  1.6687  0.1023  0.0114
 5417TIP3   OH237665   2.014   3.433  14.698  0.1295 -0.2686  0.5345
 5417TIP3    H137666   1.997   3.393  14.613 -3.2828  2.5882 -0.3519
 5417TIP3    H237667   1.941   3.405  14.753 -0.3475  1.6870  0.9847
 5418TIP3   OH237668   2.132   1.325  13.849 -0.2238 -0.2257 -0.1283
 5418TIP3    H137669   2.040   1.306  13.870  0.0530  0.3343  1.7599
 5418TIP3    H237670   2.154   1.399  13.905  1.4276 -0.4596 -0.4417
 5419TIP3   OH237671   0.895   3.403  13.519  0.2855 -0.6771 -0.5591
 5419TIP3    H137672   0.854   3.419  13.604  0.1282  0.6455 -0.8608
 5419TIP3    H237673   0.822   3.385  13.460  0.1953  0.5815 -0.8605
 5420TIP3   OH237674   4.341   6.277  13.935  0.1097  0.5845  0.9893
 5420TIP3    H137675   4.245   6.271  13.927  0.1345  0.1663  1.0175
 5420TIP3    H237676   4.368   6.322  13.855 -0.0459  0.1054  0.6624
 5421TIP3   OH237677   5.464   4.878  15.204  0.5755  0.2337 -0.0901
 5421TIP3    H137678   5.384   4.836  15.174  1.1480 -1.3831  0.5518
 5421TIP3    H237679   5.512   4.897  15.124  0.9452 -1.7150 -0.3922
 5422TIP3   OH237680   5.181   1.041  11.523  0.4044 -0.1288 -0.3035
 5422TIP3    H137681   5.236   0.966  11.545 -0.0181 -0.2673  0.3214
 5422TIP3    H237682   5.223   1.115  11.567 -0.2053 -0.3320  0.6432
 5423TIP3   OH237683   5.062   4.448   5.761  0.0993  0.2010 -0.2191
 5423TIP3    H137684   5.013   4.378   5.803  0.2747 -0.0866 -0.4927
 5423TIP3    H237685   5.146   4.450   5.807  0.1995  0.0469 -0.3953
 5424TIP3   OH237686   0.478   1.859  13.714 -0.3998  0.3641 -0.1181
 5424TIP3    H137687   0.529   1.930  13.674  0.2987 -0.1874 -0.2305
 5424TIP3    H237688   0.538   1.820  13.777 -1.3385  0.9272  1.1459
 5425TIP3   OH237689   3.965   3.471   5.796  0.0747 -0.2209  0.1298
 5425TIP3    H137690   3.893   3.487   5.856 -0.7982  0.2348 -1.0067
 5425TIP3    H237691   3.960   3.542   5.732  2.1530  0.4019  0.5710
 5426TIP3   OH237692   0.539   2.646  10.620 -0.2677 -0.0152  0.1787
 5426TIP3    H137693   0.491   2.607  10.547  1.2219 -0.2370 -0.7370
 5426TIP3    H237694   0.599   2.708  10.578  1.5611 -1.0987  1.0533
 5427TIP3   OH237695   4.583   4.582   5.885  0.2795 -0.0054  0.1343
 5427TIP3    H137696   4.678   4.591   5.876  0.0571  1.4396 -1.2332
 5427TIP3    H237697   4.553   4.668   5.913 -0.7443 -0.0306 -0.7936
 5428TIP3   OH237698   6.100   6.802   3.867 -0.3970 -0.8311 -0.1920
 5428TIP3    H137699   6.071   6.800   3.958  0.3510  3.8562  0.3618
 5428TIP3    H237700   6.022   6.828   3.818 -1.0881 -4.3515 -1.2544
 5429TIP3   OH237701   2.961   0.905   5.308  0.1753  0.1599 -0.1582
 5429TIP3    H137702   2.975   0.848   5.384  1.1407 -0.8283 -1.0401
 5429TIP3    H237703   3.033   0.884   5.249  0.0917  1.7435 -0.8697
 5430TIP3   OH237704   4.057   1.711   2.141  0.1713 -0.0388  0.0791
 5430TIP3    H137705   3.961   1.711   2.143  0.1439  2.0801  0.5502
 5430TIP3    H237706   4.080   1.620   2.124 -1.9449 -0.4255 -1.0831
 5431TIP3   OH237707   2.295   1.096   0.195 -0.0913 -0.0472 -0.3656
 5431TIP3    H137708   2.251   1.028   0.144 -2.7211  1.4078 -0.2696
 5431TIP3    H237709   2.307   1.058   0.282  1.2172 -1.3565 -1.0998
 5432TIP3   OH237710   2.176   0.615  15.548 -0.0030  0.2377 -0.1180
 5432TIP3    H137711   2.132   0.542  15.592 -1.1105  0.4950 -0.7640
 5432TIP3    H237712   2.261   0.622  15.592 -0.3570 -0.6686  0.7429
 5433TIP3   OH237713   0.918   0.176   5.115  0.2691  0.5627 -0.3540
 5433TIP3    H137714   0.952   0.263   5.136 -0.0692  0.2996  1.4523
 5433TIP3    H237715   0.940   0.163   5.023 -0.0103  2.7128 -0.7826
 5434TIP3   OH237716   5.750   2.402  13.793  0.3243  0.2806 -0.0895
 5434TIP3    H137717   5.792   2.342  13.731 -0.7482 -0.2216 -0.3589
 5434TIP3    H237718   5.806   2.479  13.793  1.3835 -0.4659 -0.2281
 5435TIP3   OH237719   2.442   5.861   2.087 -0.6467 -0.2133  0.4520
 5435TIP3    H137720   2.352   5.839   2.111 -0.6654 -0.5121  0.1176
 5435TIP3    H237721   2.489   5.862   2.171 -0.9113 -0.2863  0.6041
 5436TIP3   OH237722   2.639   6.695   2.259  0.1851 -0.1037  0.1521
 5436TIP3    H137723   2.647   6.678   2.165  1.9774 -2.3033  0.5990
 5436TIP3    H237724   2.570   6.635   2.288  1.5755 -1.5445  0.6226
 5437TIP3   OH237725   1.230   0.154  16.703 -0.1734 -0.4525  0.4639
 5437TIP3    H137726   1.162   0.129  16.641 -0.3716  0.0883  0.4588
 5437TIP3    H237727   1.183   0.174  16.784  0.0195 -0.4878  0.5872
 5438TIP3   OH237728   5.366   4.298  15.247  0.1081 -0.2108 -0.1184
 5438TIP3    H137729   5.389   4.307  15.339  1.6622 -2.3239 -0.2352
 5438TIP3    H237730   5.292   4.238  15.246  1.7582 -2.3353 -0.3274
 5439TIP3   OH237731   0.556   1.526   0.718 -0.4543 -1.2056 -0.1855
 5439TIP3    H137732   0.594   1.538   0.631  0.3199  0.5870  0.3516
 5439TIP3    H237733   0.514   1.610   0.737  1.6207 -0.5888  2.1944
 5440TIP3   OH237734   6.537   6.413  12.565  0.5355 -0.4330  0.4999
 5440TIP3    H137735   6.507   6.335  12.517 -1.0448  0.2177  0.3814
 5440TIP3    H237736   6.627   6.426  12.535 -0.1134 -0.5547 -1.6394
 5441TIP3   OH237737   3.331   6.089   5.189 -0.0282 -0.5845  0.1017
 5441TIP3    H137738   3.275   6.158   5.225  0.2898 -1.1841  1.8522
 5441TIP3    H237739   3.295   6.008   5.224  1.0806 -1.0990  0.0836
 5442TIP3   OH237740   4.670   2.472  16.441 -0.1544  0.0160 -0.5528
 5442TIP3    H137741   4.638   2.385  16.417  2.6220 -1.5870  1.0336
 5442TIP3    H237742   4.704   2.462  16.530 -1.6089  3.3238  0.5340
 5443TIP3   OH237743   1.309   5.638  14.984  0.1379 -0.4911 -0.4791
 5443TIP3    H137744   1.293   5.562  14.928  1.4080 -1.5369  0.5297
 5443TIP3    H237745   1.291   5.607  15.072 -1.0630  0.9140 -0.1954
 5444TIP3   OH237746   1.801   0.216  15.807 -0.0609  0.2488 -0.2477
 5444TIP3    H137747   1.891   0.245  15.820 -0.2653  0.8196 -0.1035
 5444TIP3    H237748   1.775   0.180  15.892 -0.0759  0.3796 -0.1966
 5445TIP3   OH237749   1.090   2.574  12.277  0.3007 -0.2106 -1.2841
 5445TIP3    H137750   1.109   2.631  12.202 -1.3335  0.2092 -1.4031
 5445TIP3    H237751   1.021   2.619  12.325  1.1501 -0.5815  0.3906
 5446TIP3   OH237752   5.666   4.860  14.265 -0.6036  0.2418 -0.1948
 5446TIP3    H137753   5.682   4.926  14.198  0.8324 -0.1868 -0.3062
 5446TIP3    H237754   5.575   4.832  14.251 -0.8766  1.4107 -0.8176
 5447TIP3   OH237755   2.899   4.175   6.113  0.3871 -0.3246  0.0472
 5447TIP3    H137756   2.972   4.200   6.056  1.3631  4.3183  2.7610
 5447TIP3    H237757   2.927   4.203   6.201 -4.2452  0.9980  1.3823
 5448TIP3   OH237758   2.142   3.581  14.304 -0.0554 -0.6425  0.3454
 5448TIP3    H137759   2.047   3.586  14.296  0.0097  1.6940  0.3047
 5448TIP3    H237760   2.169   3.518  14.236 -1.4674 -0.3003 -0.5744
 5449TIP3   OH237761   0.666   5.903  14.613 -0.3056  0.4787 -0.1659
 5449TIP3    H137762   0.602   5.902  14.542 -0.1720 -0.1081 -0.2792
 5449TIP3    H237763   0.681   5.996  14.629  0.5245  0.6433 -1.6882
 5450TIP3   OH237764   5.952   0.269  12.507  0.1690  0.5369  0.1737
 5450TIP3    H137765   5.940   0.251  12.600 -0.1682 -1.2896 -0.1803
 5450TIP3    H237766   6.003   0.350  12.504  2.8452 -0.9464  1.9982
 5451TIP3   OH237767   1.008   3.828   2.033 -0.1242  0.0872 -0.1254
 5451TIP3    H137768   0.935   3.791   1.982  0.9312  0.1100 -1.7235
 5451TIP3    H237769   1.010   3.776   2.113  0.0481 -2.0350 -1.4305
 5452TIP3   OH237770   5.176   2.572  15.355 -0.0610  0.6020  0.2131
 5452TIP3    H137771   5.133   2.654  15.376 -0.5981  0.7455 -1.3851
 5452TIP3    H237772   5.149   2.551  15.266  0.5913 -0.9732  0.3398
 5453TIP3   OH237773   1.861   3.101  11.266 -0.5900 -0.5903  0.1201
 5453TIP3    H137774   1.812   3.181  11.246 -0.6402 -0.5472  0.4067
 5453TIP3    H237775   1.830   3.075  11.353  0.1812 -0.3440  0.4774
 5454TIP3   OH237776   5.473   0.064  12.487  0.3427  0.3259 -0.1267
 5454TIP3    H137777   5.566   0.067  12.463  0.7213 -0.2224  1.1325
 5454TIP3    H237778   5.473   0.085  12.581 -0.7419 -0.2546  0.0156
 5455TIP3   OH237779   5.171   1.551   5.308  0.4434  0.5108  0.2184
 5455TIP3    H137780   5.253   1.571   5.262  1.6099  1.3126  2.4905
 5455TIP3    H237781   5.145   1.633   5.348  0.5754 -0.5122  2.5564
 5456TIP3   OH237782   5.673   1.130   5.865  0.3271  0.5159  0.0442
 5456TIP3    H137783   5.623   1.187   5.923 -1.4624 -3.1546  2.4759
 5456TIP3    H237784   5.743   1.095   5.921  0.4217 -0.8262 -0.8740
 5457TIP3   OH237785   1.487   3.375  13.634 -0.3386  1.1066  0.6209
 5457TIP3    H137786   1.576   3.410  13.635 -0.6515  1.9343  1.1027
 5457TIP3    H237787   1.486   3.308  13.702 -0.2001  1.4162  0.9307
 5458TIP3   OH237788   3.966   3.898   1.166 -0.1885 -0.2489  0.2450
 5458TIP3    H137789   3.928   3.829   1.112  0.7565 -0.6995  0.1490
 5458TIP3    H237790   3.946   3.979   1.118 -1.1275 -0.4575  0.2630
 5459TIP3   OH237791   0.847   2.967  16.609 -0.6272 -0.6641  0.3636
 5459TIP3    H137792   0.764   2.943  16.649 -0.4107  0.5397  1.6004
 5459TIP3    H237793   0.905   2.987  16.683 -0.0710  1.1787 -0.5078
 5460TIP3   OH237794   0.140   4.376   5.448  0.0897 -0.1085  0.0534
 5460TIP3    H137795   0.164   4.464   5.419 -0.6194  0.0525 -0.0854
 5460TIP3    H237796   0.064   4.391   5.506  0.1484 -0.6039  0.2609
 5461TIP3   OH237797   0.312   0.973  16.326 -0.5837 -0.5212  0.4218
 5461TIP3    H137798   0.315   0.983  16.422 -1.9288  1.0208  0.3537
 5461TIP3    H237799   0.310   1.063  16.293 -0.2596 -1.0338 -1.0653
 5462TIP3   OH237800   2.699   3.262  16.621 -0.6837  0.4763 -0.1145
 5462TIP3    H137801   2.769   3.284  16.683 -0.7453  0.8017 -0.1583
 5462TIP3    H237802   2.621   3.304  16.658 -0.5312  1.4960 -0.9085
 5463TIP3   OH237803   3.893   6.005  14.646 -0.5138 -0.0909 -0.1335
 5463TIP3    H137804   3.861   6.067  14.580 -0.8802  0.8985  0.9315
 5463TIP3    H237805   3.834   5.930  14.639 -0.0231 -0.3842 -1.4961
 5464TIP3   OH237806   2.855   5.652  13.670  0.1716  0.3107  0.1877
 5464TIP3    H137807   2.859   5.566  13.628 -0.4205  0.2955  0.1522
 5464TIP3    H237808   2.884   5.636  13.760  0.7892  0.2149 -0.0264
 5465TIP3   OH237809   3.510   4.195  14.111  0.3316 -0.4653  0.0644
 5465TIP3    H137810   3.516   4.139  14.033  0.8554  1.9249 -1.7355
 5465TIP3    H237811   3.556   4.146  14.179  0.2096 -2.4779 -1.2194
 5466TIP3   OH237812   1.961   3.672   1.495 -0.3330  0.7575  0.3968
 5466TIP3    H137813   2.039   3.642   1.542  0.1522 -0.8055 -1.2891
 5466TIP3    H237814   1.907   3.593   1.486 -1.3060  1.4511  0.0413
 5467TIP3   OH237815   6.212   3.040   3.557  0.7111  0.4606 -0.0490
 5467TIP3    H137816   6.133   2.997   3.525 -0.7822  3.7616 -1.2603
 5467TIP3    H237817   6.185   3.130   3.576  3.6817  1.1260  1.7914
 5468TIP3   OH237818   5.459   3.317   6.104 -0.1206 -0.0543  0.1871
 5468TIP3    H137819   5.386   3.373   6.133 -0.6979 -0.2412 -0.8732
 5468TIP3    H237820   5.534   3.376   6.098 -0.9551  0.8932 -1.9546
 5469TIP3   OH237821   3.837   2.827   5.897 -0.5073  0.6037 -0.2037
 5469TIP3    H137822   3.756   2.777   5.898 -0.6046  0.7397 -0.7113
 5469TIP3    H237823   3.837   2.875   5.980 -0.2187 -0.5308  0.4711
 5470TIP3   OH237824   2.848   5.022   2.780  0.3430  0.0222  0.0730
 5470TIP3    H137825   2.799   4.980   2.850  0.2594 -1.3170 -0.7488
 5470TIP3    H237826   2.786   5.085   2.743 -0.1986 -0.4647  0.1233
 5471TIP3   OH237827   3.360   6.629  15.120  0.3166  0.7259 -0.1347
 5471TIP3    H137828   3.273   6.617  15.083  0.1275 -1.6319  0.9141
 5471TIP3    H237829   3.366   6.723  15.138 -2.2401  0.8537  0.3443
 5472TIP3   OH237830   2.058   5.404  13.917 -0.1726 -0.5385 -0.4593
 5472TIP3    H137831   1.965   5.424  13.907 -0.0810 -0.1436 -0.5165
 5472TIP3    H237832   2.093   5.476  13.970 -0.7600 -2.7927  3.3511
 5473TIP3   OH237833   5.912   3.898  16.351  0.5985  0.1496 -0.2739
 5473TIP3    H137834   5.996   3.927  16.314  0.8544  0.2523  0.3654
 5473TIP3    H237835   5.853   3.972  16.337  0.5877  0.0489 -0.7933
 5474TIP3   OH237836   6.719   4.241   4.549 -0.3689  0.1832 -0.7489
 5474TIP3    H137837   6.673   4.253   4.466 -1.1149 -0.9046 -0.5160
 5474TIP3    H237838   6.655   4.199   4.606  0.2411  0.6031  0.2799
 5475TIP3   OH237839   5.642   6.485   1.607  0.5995  0.4793  0.5786
 5475TIP3    H137840   5.593   6.566   1.594 -0.5481  0.1799  2.6833
 5475TIP3    H237841   5.681   6.494   1.694  1.2764 -0.8371  0.4452
 5476TIP3   OH237842   6.070   5.074   2.237 -0.3508  0.0095  0.0691
 5476TIP3    H137843   6.096   5.137   2.171  1.4182 -0.8306 -0.0968
 5476TIP3    H237844   6.107   4.991   2.208 -0.5974 -0.6347  1.4730
 5477TIP3   OH237845   6.492   4.582   5.923 -0.2246  0.5716 -0.1357
 5477TIP3    H137846   6.505   4.497   5.882 -0.0865  0.4195  0.2233
 5477TIP3    H237847   6.441   4.564   6.001  0.5996  0.6860  0.4476
 5478TIP3   OH237848   5.728   5.597   2.361 -0.4488 -0.0206  0.1597
 5478TIP3    H137849   5.820   5.577   2.380  0.7358  1.7204 -3.0404
 5478TIP3    H237850   5.684   5.512   2.367  1.4539 -1.0165  1.1919
 5479TIP3   OH237851   4.332   2.342  13.914  0.1700 -0.4427  0.4467
 5479TIP3    H137852   4.380   2.299  13.844  1.0258  0.2362  0.6035
 5479TIP3    H237853   4.342   2.435  13.897  1.0171 -0.2461  1.8596
 5480TIP3   OH237854   5.589   2.127  13.951  0.2598  0.0516 -0.1060
 5480TIP3    H137855   5.663   2.067  13.939 -0.3157 -0.8283  0.5853
 5480TIP3    H237856   5.528   2.079  14.008  0.7085  2.1090  2.2687
 5481TIP3   OH237857   2.321   1.552   5.179  0.9870 -0.3458 -0.0935
 5481TIP3    H137858   2.364   1.545   5.264  1.1483 -0.1273 -0.1587
 5481TIP3    H237859   2.321   1.462   5.145  1.2806 -0.3657 -0.0412
 5482TIP3   OH237860   0.075   4.419   0.331  0.6375  0.0174 -0.1869
 5482TIP3    H137861   0.161   4.431   0.290  0.7780 -0.3085  0.0091
 5482TIP3    H237862   0.039   4.507   0.337  0.6268  0.0781 -0.9896
 5483TIP3   OH237863   2.943   6.673   5.333 -0.2805 -0.5118  0.2071
 5483TIP3    H137864   2.934   6.629   5.248 -1.4871 -0.1086  0.1118
 5483TIP3    H237865   3.033   6.654   5.360  0.0515 -0.8254 -1.0556
 5484TIP3   OH237866   5.124   4.002   4.760 -0.4939  0.0095 -0.1161
 5484TIP3    H137867   5.173   4.071   4.715  0.4432 -0.2408  0.4997
 5484TIP3    H237868   5.037   4.005   4.720 -0.2514  1.0551 -0.6082
 5485TIP3   OH237869   5.380   1.574   5.138 -1.1253  0.4446  0.0744
 5485TIP3    H137870   5.378   1.490   5.093 -0.6863  0.7134 -0.4654
 5485TIP3    H237871   5.408   1.637   5.071 -0.7519  0.9022  0.6445
 5486TIP3   OH237872   6.719   3.296   5.029 -0.0290 -0.3439 -0.0362
 5486TIP3    H137873   6.631   3.335   5.033  1.3817  3.0755  1.7556
 5486TIP3    H237874   6.759   3.337   4.953  1.1446  0.9789  1.2494
 5487TIP3   OH237875   2.066   1.989   1.284  0.6857 -0.1776 -0.0250
 5487TIP3    H137876   2.043   1.930   1.355  2.0606  0.9468  1.4112
 5487TIP3    H237877   1.981   2.015   1.247 -0.4085  1.6676  3.2900
 5488TIP3   OH237878   4.157   5.091  13.440  0.0388  0.0105 -0.0866
 5488TIP3    H137879   4.162   5.134  13.355  0.6819 -1.4459 -0.8216
 5488TIP3    H237880   4.078   5.126  13.481 -0.2644  0.7377 -1.2682
 5489TIP3   OH237881   0.635   1.828  15.261  0.8590 -0.0439 -0.0698
 5489TIP3    H137882   0.636   1.732  15.264 -2.0121 -0.1452  0.1741
 5489TIP3    H237883   0.657   1.849  15.171 -0.8905 -1.1212 -0.8125
 5490TIP3   OH237884   1.482   6.412  13.146 -0.1206  0.0195  0.2671
 5490TIP3    H137885   1.529   6.469  13.207  0.1337  0.5739 -0.4228
 5490TIP3    H237886   1.411   6.374  13.197 -0.0474  0.6457  0.8428
 5491TIP3   OH237887   2.281   6.087  11.615  0.0171 -0.5558  0.2761
 5491TIP3    H137888   2.192   6.054  11.605 -0.4401  0.8173 -0.5714
 5491TIP3    H237889   2.333   6.011  11.639 -1.0924 -1.7188 -0.8616
 5492TIP3   OH237890   5.805   6.715  12.485  0.1786 -0.2218  0.4327
 5492TIP3    H137891   5.786   6.743  12.575  1.2085  1.0578  0.2844
 5492TIP3    H237892   5.898   6.691  12.487  0.1901 -0.2446 -0.2854
 5493TIP3   OH237893   0.945   3.702   1.126 -0.6947  0.4831  0.0251
 5493TIP3    H137894   0.912   3.755   1.199 -1.2380  0.2352 -0.0306
 5493TIP3    H237895   0.893   3.731   1.050  0.4145  1.3071 -0.4477
 5494TIP3   OH237896   4.617   6.062  12.389  0.1701 -0.6602  0.1596
 5494TIP3    H137897   4.529   6.054  12.426 -0.0742 -0.8680 -0.4546
 5494TIP3    H237898   4.676   6.042  12.462 -0.2442  0.7321  0.9272
 5495TIP3   OH237899   2.095   4.527  13.544  0.6432 -0.2710  0.6042
 5495TIP3    H137900   2.153   4.521  13.620  2.5054 -1.2762 -0.7970
 5495TIP3    H237901   2.094   4.620  13.521  4.1115 -0.4387 -0.9590
 5496TIP3   OH237902   1.221   0.186  14.210 -0.7694  0.5140  0.1936
 5496TIP3    H137903   1.202   0.104  14.164  2.6940 -0.8146  0.8518
 5496TIP3    H237904   1.137   0.212  14.247 -2.1155 -2.4735 -0.4441
 5497TIP3   OH237905   4.364   4.171  14.194  0.2416  0.6004  0.3281
 5497TIP3    H137906   4.353   4.232  14.121 -0.0919  0.9604  0.6731
 5497TIP3    H237907   4.456   4.178  14.218  0.3842  0.3761 -0.1475
 5498TIP3   OH237908   1.652   3.021  12.159  0.3456  0.1218 -0.4613
 5498TIP3    H137909   1.620   3.105  12.192 -0.6495 -1.1225  2.0410
 5498TIP3    H237910   1.645   3.027  12.064 -0.2553  2.6281 -0.3107
 5499TIP3   OH237911   0.967   5.998  14.778  0.4284 -0.1707 -0.1541
 5499TIP3    H137912   1.031   5.958  14.836  0.5288  0.5507  0.2420
 5499TIP3    H237913   0.926   5.924  14.733  0.7278 -0.7062  0.4382
 5500TIP3   OH237914   0.698   2.768  15.981 -0.2551 -0.0383  0.2765
 5500TIP3    H137915   0.767   2.764  16.048  0.2636 -1.1177 -0.2925
 5500TIP3    H237916   0.694   2.861  15.957 -1.5396  0.6913  2.8659
 5501TIP3   OH237917   3.995   0.460  17.147  1.1074  0.1225  0.0201
 5501TIP3    H137918   3.920   0.499  17.194  1.4565  0.7897  0.0304
 5501TIP3    H237919   3.962   0.375  17.117  0.1180  0.6882 -0.5667
 5502TIP3   OH237920   4.399   1.822   3.237 -0.5621 -0.3053  0.1707
 5502TIP3    H137921   4.307   1.800   3.252 -0.7941  0.7997  0.4618
 5502TIP3    H237922   4.440   1.811   3.323 -0.6814  0.3292  0.3207
 5503TIP3   OH237923   4.444   0.606   4.057  0.2209  0.1558 -0.2950
 5503TIP3    H137924   4.349   0.607   4.058 -0.0165 -2.5628 -3.3137
 5503TIP3    H237925   4.468   0.549   4.131 -0.3943  1.3018  0.8237
 5504TIP3   OH237926   0.005   1.570   1.433 -0.3575 -0.5099 -0.1493
 5504TIP3    H137927   0.089   1.528   1.451 -0.5502 -0.6756  0.3836
 5504TIP3    H237928  -0.006   1.561   1.338  0.5891  0.2084 -0.3497
 5505TIP3   OH237929   2.821   3.566  15.747 -0.1327 -0.5626 -0.1476
 5505TIP3    H137930   2.851   3.493  15.693 -1.8660 -1.1513 -0.3970
 5505TIP3    H237931   2.827   3.533  15.837  0.5160 -0.4498 -0.1468
 5506TIP3   OH237932   2.962   3.851  13.097  0.1045  0.4532  0.1444
 5506TIP3    H137933   2.945   3.904  13.019 -0.0864  0.4584  0.1897
 5506TIP3    H237934   2.906   3.774  13.086  0.3690  0.2672  0.0855
 5507TIP3   OH237935   3.477   2.861   2.879 -0.4278 -0.3676 -0.1437
 5507TIP3    H137936   3.519   2.944   2.857 -1.8709 -0.1979 -2.5708
 5507TIP3    H237937   3.397   2.886   2.926 -1.4968 -0.2708 -1.9586
 5508TIP3   OH237938   1.234   3.432  10.855 -0.0022  0.1162  0.0149
 5508TIP3    H137939   1.330   3.423  10.852  0.2540  0.3667  3.4450
 5508TIP3    H237940   1.201   3.345  10.834  1.3358 -1.6558  4.1071
 5509TIP3   OH237941   0.736   0.840  13.659 -0.0731  0.9107  0.0137
 5509TIP3    H137942   0.821   0.807  13.686 -0.1210  1.6073  1.0732
 5509TIP3    H237943   0.700   0.771  13.603  1.2244  0.6658 -0.5410
 5510TIP3   OH237944   5.038   3.037   2.496 -0.3321  0.0535 -0.2658
 5510TIP3    H137945   5.056   3.092   2.421 -0.9513  0.0607 -0.4133
 5510TIP3    H237946   4.996   2.959   2.460 -1.8842  0.6527  0.1969
 5511TIP3   OH237947   0.472   1.103   2.138  0.3557 -0.1846 -0.2476
 5511TIP3    H137948   0.444   1.110   2.229  0.0210 -0.1623 -0.3508
 5511TIP3    H237949   0.418   1.166   2.091  0.2804 -0.4456 -0.5172
 5512TIP3   OH237950   3.042   2.536   5.013 -0.1241 -0.0543 -0.1942
 5512TIP3    H137951   3.003   2.604   4.958  1.7119  1.0605 -0.2001
 5512TIP3    H237952   3.015   2.454   4.971  0.0638  0.7242 -1.9616
 5513TIP3   OH237953   5.032   4.752   4.377  0.1092  0.0896 -0.7516
 5513TIP3    H137954   5.068   4.805   4.307 -1.2705  3.5153  0.9109
 5513TIP3    H237955   5.057   4.798   4.457 -1.0380 -1.8943  0.8361
 5514TIP3   OH237956   5.709   3.565   3.407  0.5766 -0.1798 -0.5600
 5514TIP3    H137957   5.787   3.572   3.351 -0.4648 -0.4256 -2.0864
 5514TIP3    H237958   5.668   3.651   3.401  1.6498  0.5737  1.7358
 5515TIP3   OH237959   4.748   5.845   4.338 -0.3329 -0.3563  0.2789
 5515TIP3    H137960   4.692   5.880   4.267 -2.4793 -2.4120  0.8254
 5515TIP3    H237961   4.689   5.841   4.414  1.9041  1.7875  2.3068
 5516TIP3   OH237962   6.718   2.075   1.295  0.3222  0.0434  0.4153
 5516TIP3    H137963   6.648   2.140   1.291  0.5600  0.3819  1.3775
 5516TIP3    H237964   6.799   2.126   1.289  0.5466  0.0185  2.4472
 5517TIP3   OH237965   4.289   1.226  12.470  0.1679 -0.1809  0.0257
 5517TIP3    H137966   4.275   1.296  12.534 -2.7962  0.1415 -0.8076
 5517TIP3    H237967   4.360   1.259  12.414  2.1846 -0.0744  2.4669
 5518TIP3   OH237968   0.791   2.348   6.451 -0.2006 -0.2007 -0.0282
 5518TIP3    H137969   0.819   2.339   6.360  0.0799  1.4715 -0.1411
 5518TIP3    H237970   0.717   2.408   6.448 -0.9775 -1.1039  0.7288
 5519TIP3   OH237971   6.457   2.606   5.340 -0.0505  0.3583 -0.4963
 5519TIP3    H137972   6.425   2.517   5.327  2.3089 -0.6139 -0.0747
 5519TIP3    H237973   6.552   2.598   5.341  0.2621  2.9907 -1.1079
 5520TIP3   OH237974   0.674   3.944  15.254  0.9095  0.4408  0.7738
 5520TIP3    H137975   0.592   3.991  15.236 -0.8548 -3.3344 -3.1295
 5520TIP3    H237976   0.741   3.993  15.207  0.4873  2.2950  2.0182
 5521TIP3   OH237977   1.727   2.936   3.411  0.9229 -0.2598 -0.5063
 5521TIP3    H137978   1.780   2.870   3.366  0.2806 -0.4741 -0.9654
 5521TIP3    H237979   1.703   2.998   3.342  2.0061  0.7900  0.0309
 5522TIP3   OH237980   2.979   6.309  12.780  0.3250  0.4466 -0.4413
 5522TIP3    H137981   2.954   6.219  12.799  0.4826  0.7246  1.1707
 5522TIP3    H237982   3.015   6.305  12.691 -1.6289 -0.6763 -1.2529
 5523TIP3   OH237983   6.163   1.011  15.744  0.3021  0.1685  0.4618
 5523TIP3    H137984   6.146   0.929  15.698  2.0920  0.4213 -0.7368
 5523TIP3    H237985   6.100   1.073  15.708  0.2566 -0.1904 -0.0822
 5524TIP3   OH237986   3.428   2.107   2.459  0.8352 -0.7240 -0.6839
 5524TIP3    H137987   3.441   2.018   2.492  1.4728 -1.0067 -1.6254
 5524TIP3    H237988   3.514   2.148   2.467 -0.0491  0.7958  2.3728
 5525TIP3   OH237989   0.980   0.137   4.842 -0.2257 -0.6804  0.2317
 5525TIP3    H137990   0.991   0.134   4.747 -0.4582 -0.0990  0.1849
 5525TIP3    H237991   0.888   0.161   4.854 -0.3794 -1.4381  0.6081
 5526TIP3   OH237992   3.569   3.408   0.854 -0.2142 -0.3734  0.1486
 5526TIP3    H137993   3.664   3.395   0.855 -0.4587 -2.5351  0.0218
 5526TIP3    H237994   3.550   3.432   0.763  0.1154 -1.0494 -0.1128
 5527TIP3   OH237995   0.034   0.886   0.412  0.3791  0.1589  0.3000
 5527TIP3    H137996  -0.009   0.804   0.436  2.0695 -0.8229  0.1311
 5527TIP3    H237997  -0.034   0.952   0.419 -1.9838 -1.6748 -2.7318
 5528TIP3   OH237998   2.271   5.902  13.295 -0.7432 -0.3806  0.0813
 5528TIP3    H137999   2.314   5.878  13.212 -1.6364 -2.7665  0.2248
 5528TIP3    H238000   2.238   5.819  13.329  0.3715  0.3857  3.3262
 5529TIP3   OH238001   0.522   5.632  17.017  0.5644  0.2761  0.2749
 5529TIP3    H138002   0.513   5.668  16.928  0.6002 -0.6522 -0.1210
 5529TIP3    H238003   0.554   5.705  17.069  0.2802  0.9143 -0.4223
 5530TIP3   OH238004   6.188   4.247  12.717  0.1886  0.1088  0.0096
 5530TIP3    H138005   6.209   4.329  12.763  1.2061 -0.5520  0.7778
 5530TIP3    H238006   6.101   4.262  12.681 -0.0610  1.1768  0.9717
 5531TIP3   OH238007   4.329   0.091   4.419 -0.0210  0.0558 -0.6381
 5531TIP3    H138008   4.359   0.172   4.461 -0.8847  0.1637 -0.1948
 5531TIP3    H238009   4.339   0.025   4.487  1.3271 -0.3604 -1.2188
 5532TIP3   OH238010   3.764   6.581  15.751 -0.2195 -0.4190 -0.8067
 5532TIP3    H138011   3.824   6.630  15.694 -1.5714  1.2625 -0.8743
 5532TIP3    H238012   3.784   6.489  15.733  0.5880  0.0649 -2.7082
 5533TIP3   OH238013   4.865   4.161  11.930  0.7091 -0.0728 -0.1004
 5533TIP3    H138014   4.852   4.223  12.001  0.0579 -0.3601  0.0399
 5533TIP3    H238015   4.834   4.208  11.852  0.0700 -0.2614  0.0285
 5534TIP3   OH238016   2.609   6.283  11.891  0.4210 -0.0865 -0.3082
 5534TIP3    H138017   2.555   6.204  11.889 -1.4576  0.8734  3.6471
 5534TIP3    H238018   2.564   6.345  11.835 -0.0884 -0.7052 -0.5887
 5535TIP3   OH238019   3.595   5.402  15.178  0.4216 -0.2874 -0.4943
 5535TIP3    H138020   3.622   5.483  15.220  0.6052 -1.6651  2.2381
 5535TIP3    H238021   3.507   5.421  15.145  0.0703  0.7360  0.9504
 5536TIP3   OH238022   4.637   6.762  16.736  0.2800  0.2513  0.4403
 5536TIP3    H138023   4.644   6.731  16.646 -2.3725 -3.0703  1.1737
 5536TIP3    H238024   4.543   6.754  16.757  0.4062  3.2374  2.7819
 5537TIP3   OH238025   3.284   6.086  12.656 -0.2250 -0.3616 -0.1568
 5537TIP3    H138026   3.273   5.999  12.618  0.5178 -0.7542  0.4820
 5537TIP3    H238027   3.215   6.139  12.617 -1.5842 -1.5875  0.4953
 5538TIP3   OH238028   3.145   3.806   4.088 -0.2135  0.1588 -0.2041
 5538TIP3    H138029   3.091   3.731   4.110  0.4318  0.1749  1.5985
 5538TIP3    H238030   3.104   3.843   4.010 -1.2203 -1.3597 -0.4374
 5539TIP3   OH238031   1.838   2.700   5.297  0.1764 -0.7971  0.3222
 5539TIP3    H138032   1.835   2.617   5.250 -0.2470 -0.4002 -0.3652
 5539TIP3    H238033   1.767   2.752   5.259 -0.7100 -0.7508  1.9533
 5540TIP3   OH238034   2.335   1.105   1.200 -0.2228 -0.3280 -0.1238
 5540TIP3    H138035   2.342   1.073   1.290  0.6295 -1.3704 -0.5339
 5540TIP3    H238036   2.339   1.026   1.146 -0.3604  0.3080 -1.0977
 5541TIP3   OH238037   2.174   1.811   4.011 -0.4171  0.3441 -0.6430
 5541TIP3    H138038   2.156   1.893   4.057  0.8376 -0.3021  1.1081
 5541TIP3    H238039   2.128   1.820   3.928 -1.5075  2.2099  0.0961
 5542TIP3   OH238040   1.621   1.761  14.068  0.4292 -0.1094  0.0538
 5542TIP3    H138041   1.531   1.730  14.061  1.0774 -1.8803 -0.9371
 5542TIP3    H238042   1.667   1.694  14.119  1.4677  0.1152 -0.5387
 5543TIP3   OH238043   5.719   3.691   1.874  0.4119  0.4164  0.5276
 5543TIP3    H138044   5.724   3.717   1.782 -1.5495  2.0155  0.7935
 5543TIP3    H238045   5.792   3.631   1.887  2.4879  2.3676 -1.3511
 5544TIP3   OH238046   6.057   2.483  11.423 -0.6183  0.7993  0.1872
 5544TIP3    H138047   6.053   2.556  11.484  0.4570  2.7595 -1.9549
 5544TIP3    H238048   6.058   2.523  11.337 -0.2509 -1.7771 -1.1118
 5545TIP3   OH238049   6.312   3.955  12.765  0.0546  0.7676  0.2960
 5545TIP3    H138050   6.362   4.011  12.824 -2.1132  0.3571  2.7463
 5545TIP3    H238051   6.258   4.016  12.714 -0.4502  1.0333  1.1312
 5546TIP3   OH238052   6.175   3.447   2.151  0.9431 -0.0642 -0.6426
 5546TIP3    H138053   6.113   3.383   2.185 -0.1006  0.8831 -0.7018
 5546TIP3    H238054   6.258   3.424   2.193  0.1892 -0.3329  0.7696
 5547TIP3   OH238055   4.700   6.019   1.002 -0.8117 -0.1990  0.3469
 5547TIP3    H138056   4.718   6.092   0.944 -1.5635  0.2492  0.6562
 5547TIP3    H238057   4.605   6.010   1.000 -0.8949  0.0749  1.7828
 5548TIP3   OH238058   6.790   2.404   1.843  0.3134  0.7767 -0.0138
 5548TIP3    H138059   6.703   2.415   1.882 -0.3936 -0.2428 -1.2443
 5548TIP3    H238060   6.777   2.341   1.773  2.3852 -0.7452  0.8675
 5549TIP3   OH238061   1.271   5.975   0.120  0.4603  0.4654  0.3950
 5549TIP3    H138062   1.200   5.947   0.177  0.9902 -1.4834  0.1467
 5549TIP3    H238063   1.317   5.895   0.096  3.7459  1.7354  1.7986
 5550TIP3   OH238064   1.095   5.834   5.056 -0.2095 -0.3118 -0.1776
 5550TIP3    H138065   1.052   5.857   5.138 -1.7588 -2.3295 -0.3397
 5550TIP3    H238066   1.073   5.906   4.996 -2.0364 -0.4809  0.2263
 5551TIP3   OH238067   4.609   0.111   3.475 -0.0743 -0.3227 -0.0573
 5551TIP3    H138068   4.539   0.176   3.465 -0.1463 -0.5056 -0.8297
 5551TIP3    H238069   4.585   0.062   3.553  0.9029  1.7031  1.6204
 5552TIP3   OH238070   0.299   5.918  11.708 -0.1498 -0.1849  0.4357
 5552TIP3    H138071   0.376   5.962  11.672 -0.7939  0.0538 -0.7097
 5552TIP3    H238072   0.317   5.824  11.697 -0.0151 -0.1302  0.1875
 5553TIP3   OH238073   4.011   0.441  13.448  0.3017  0.4242 -0.0446
 5553TIP3    H138074   3.960   0.415  13.371 -1.0895  1.0369  0.6365
 5553TIP3    H238075   4.068   0.511  13.416  1.1007 -0.5971 -0.9243
 5554TIP3   OH238076   2.703   5.567   2.346 -0.1830 -0.2653  0.4493
 5554TIP3    H138077   2.753   5.647   2.329 -0.1094 -0.4213 -0.1054
 5554TIP3    H238078   2.684   5.569   2.439 -0.1499  0.3831  0.4460
 5555TIP3   OH238079   1.829   2.786   6.636  0.5185 -0.5087  0.1456
 5555TIP3    H138080   1.913   2.800   6.593  0.7407 -1.7423  0.1372
 5555TIP3    H238081   1.780   2.868   6.622  1.7818  0.3001  0.3396
 5556TIP3   OH238082   4.801   5.371   2.353  0.2048  0.0439  0.0857
 5556TIP3    H138083   4.797   5.315   2.275  1.4274 -0.1905  0.1783
 5556TIP3    H238084   4.771   5.456   2.322 -0.2446 -0.2869 -0.4121
 5557TIP3   OH238085   4.802   0.361  11.400 -0.2463 -0.6491 -0.2182
 5557TIP3    H138086   4.771   0.392  11.315  2.0699 -0.5310 -1.0860
 5557TIP3    H238087   4.877   0.305  11.380 -0.0502 -1.1773  1.7321
 5558TIP3   OH238088   1.208   1.527  16.206 -0.4516 -0.2378 -0.2684
 5558TIP3    H138089   1.288   1.523  16.258 -0.7029 -1.5723  0.0495
 5558TIP3    H238090   1.142   1.483  16.260 -1.2953  0.4434 -0.7227
 5559TIP3   OH238091   3.767   3.207   1.204  0.3142 -1.1109  0.1939
 5559TIP3    H138092   3.847   3.239   1.161 -0.4288  1.2390  0.4222
 5559TIP3    H238093   3.714   3.173   1.132 -0.1671  1.1767 -0.6429
 5560TIP3   OH238094   1.769   5.105   4.348  0.1523 -0.0044 -0.0909
 5560TIP3    H138095   1.678   5.086   4.371 -0.1556 -0.0997 -1.3219
 5560TIP3    H238096   1.810   5.020   4.337  0.0355  0.0318 -0.8494
 5561TIP3   OH238097   2.570   5.060   2.691  0.0527  0.7555  0.2151
 5561TIP3    H138098   2.539   5.099   2.609  1.1025 -0.1148 -0.6191
 5561TIP3    H238099   2.595   4.971   2.667  0.3959  0.4959  1.4869
 5562TIP3   OH238100   0.711   4.778   3.134  0.1024 -0.5024 -0.4408
 5562TIP3    H138101   0.762   4.790   3.214 -1.0168  0.5237  0.1342
 5562TIP3    H238102   0.748   4.698   3.095  1.0981 -0.6589  0.7408
 5563TIP3   OH238103   5.011   3.568   2.967  0.3118 -0.1328  0.7136
 5563TIP3    H138104   4.999   3.484   3.012  1.7774 -1.0389 -0.4961
 5563TIP3    H238105   5.101   3.593   2.988  0.8862 -0.3589 -1.3087
 5564TIP3   OH238106   6.272   0.034  15.864 -0.2161 -0.2067 -0.6291
 5564TIP3    H138107   6.227   0.118  15.874  0.3030  0.0896 -0.7385
 5564TIP3    H238108   6.236  -0.020  15.935  0.4058  0.5394  0.2793
 5565TIP3   OH238109   2.461   2.190   2.242 -0.1052 -0.0302 -0.0392
 5565TIP3    H138110   2.537   2.149   2.202 -0.0623 -0.0390  0.0510
 5565TIP3    H238111   2.491   2.216   2.329 -0.3475 -0.4707  0.1789
 5566TIP3   OH238112   0.679   2.676   2.036 -0.1245  0.9140 -1.0867
 5566TIP3    H138113   0.765   2.674   1.993 -0.0551  2.9967 -1.1692
 5566TIP3    H238114   0.697   2.654   2.127  0.7655  2.7384 -0.7874
 5567TIP3   OH238115   4.215   5.503   3.808 -0.0648 -0.1044  0.6245
 5567TIP3    H138116   4.237   5.410   3.811 -0.2647 -0.1301  1.7033
 5567TIP3    H238117   4.274   5.539   3.742 -0.2202 -1.0464 -0.0592
 5568TIP3   OH238118   6.109   0.616   1.011 -0.2620  0.3306 -0.5197
 5568TIP3    H138119   6.115   0.711   1.013  0.3974  0.2810  0.3640
 5568TIP3    H238120   6.016   0.597   0.998 -0.7538  1.0836  1.6148
 5569TIP3   OH238121   0.174   3.124   1.418  0.5152 -0.1684  1.0202
 5569TIP3    H138122   0.233   3.050   1.436  0.3873 -0.4178  0.4217
 5569TIP3    H238123   0.087   3.090   1.435  0.4076 -0.3445  0.1590
 5570TIP3   OH238124   0.632   5.494  12.486  0.4613  0.3387  0.3426
 5570TIP3    H138125   0.667   5.566  12.539  2.3193 -0.0786 -0.2183
 5570TIP3    H238126   0.710   5.452  12.450 -0.6426 -1.1684 -0.3787
 5571TIP3   OH238127   1.964   3.543  15.846 -0.0308  0.3636 -0.2138
 5571TIP3    H138128   1.942   3.528  15.754 -0.5913  0.7034 -0.1411
 5571TIP3    H238129   1.880   3.550  15.890  0.2344 -0.1298  0.3900
 5572TIP3   OH238130   1.467   4.267  16.706 -0.2904 -0.4515  0.4353
 5572TIP3    H138131   1.525   4.305  16.641 -0.0403 -0.2950  0.7509
 5572TIP3    H238132   1.521   4.257  16.784 -0.4941 -0.9591  0.5187
 5573TIP3   OH238133   1.290   2.351   1.222 -0.3615 -0.1328 -0.2435
 5573TIP3    H138134   1.294   2.258   1.244 -0.3446 -0.1400 -0.2773
 5573TIP3    H238135   1.308   2.396   1.305 -1.0384 -0.1569 -0.0751
 5574TIP3   OH238136   4.604   5.575  10.686 -0.7123  0.1172  0.0412
 5574TIP3    H138137   4.621   5.615  10.601  1.1305  0.2226  0.4162
 5574TIP3    H238138   4.526   5.522  10.673 -0.2805 -0.1131 -1.8148
 5575TIP3   OH238139   6.738   3.705   2.109  0.6208  0.0853  0.2542
 5575TIP3    H138140   6.734   3.720   2.204  1.8532 -0.4450  0.4087
 5575TIP3    H238141   6.763   3.613   2.100 -1.5058 -0.4731 -0.6301
 5576TIP3   OH238142   3.595   2.737   5.766  0.0945  0.1869  0.0720
 5576TIP3    H138143   3.551   2.713   5.848 -1.2249 -0.8732 -0.9144
 5576TIP3    H238144   3.623   2.828   5.780 -2.1722  0.8335  0.8718
 5577TIP3   OH238145   2.173   6.620   2.405  0.0353  0.0766  1.1316
 5577TIP3    H138146   2.175   6.684   2.476 -1.9687 -0.4187  1.6889
 5577TIP3    H238147   2.211   6.541   2.442  1.1822  0.4860  0.8821
 5578TIP3   OH238148   2.270   6.381   2.467  0.4803  0.3206 -0.0400
 5578TIP3    H138149   2.237   6.311   2.412 -2.1207 -0.9766  2.8911
 5578TIP3    H238150   2.335   6.339   2.523  0.3766  0.7348  0.3962
 5579TIP3   OH238151   2.689   5.404   1.842  0.0332  0.1601 -0.1337
 5579TIP3    H138152   2.715   5.327   1.893 -0.5977  1.1576  1.7761
 5579TIP3    H238153   2.693   5.477   1.904 -2.3189  1.1841 -1.0712
 5580TIP3   OH238154   1.295   0.419  11.447  0.5935 -0.0055 -0.1454
 5580TIP3    H138155   1.315   0.503  11.404 -0.6184 -0.0820 -0.9205
 5580TIP3    H238156   1.363   0.360  11.417  0.1207  0.1111 -1.5106
 5581TIP3   OH238157   6.068   0.665   2.398  0.6851 -0.4963 -0.0339
 5581TIP3    H138158   6.005   0.599   2.369  1.9119 -1.6252 -0.2123
 5581TIP3    H238159   6.068   0.730   2.328 -2.8978  1.5138  1.5329
 5582TIP3   OH238160   2.206   4.505   1.879 -0.3136 -0.1726 -0.3260
 5582TIP3    H138161   2.167   4.436   1.933  0.4285  1.1015  2.0136
 5582TIP3    H238162   2.236   4.570   1.943 -0.3506  1.9837 -2.3822
 5583TIP3   OH238163   3.238   3.461   0.871  0.0964 -0.0288  0.2874
 5583TIP3    H138164   3.158   3.408   0.868 -0.5336  0.9058  0.0305
 5583TIP3    H238165   3.301   3.414   0.816 -0.0103 -1.1799  1.1161
 5584TIP3   OH238166   3.616   1.561   6.008  0.3158 -0.2195 -0.3286
 5584TIP3    H138167   3.660   1.627   6.060  0.4855 -0.2986 -0.3731
 5584TIP3    H238168   3.650   1.477   6.041  3.3171 -0.2550 -3.0531
 5585TIP3   OH238169   4.876   4.420  13.748 -0.2121 -0.1739 -0.1564
 5585TIP3    H138170   4.832   4.346  13.705  0.3858 -0.5212 -0.1742
 5585TIP3    H238171   4.890   4.483  13.677  0.7480 -0.7343 -0.4867
 5586TIP3   OH238172   1.635   4.845   3.865 -0.0854 -0.1756 -0.1490
 5586TIP3    H138173   1.708   4.813   3.917 -0.5746 -2.0540 -0.5302
 5586TIP3    H238174   1.604   4.923   3.911  1.3263 -0.1035  0.7197
 5587TIP3   OH238175   0.101   2.297  12.951  0.1597 -0.2038 -0.5378
 5587TIP3    H138176   0.086   2.316  13.043 -0.3762 -1.6436 -0.3071
 5587TIP3    H238177   0.036   2.351  12.905  1.1704  1.3992 -0.1932
 5588TIP3   OH238178   5.326   3.784  13.641  0.3084 -0.3768  0.5539
 5588TIP3    H138179   5.319   3.693  13.611 -0.9875  0.0037 -0.3879
 5588TIP3    H238180   5.418   3.794  13.665  1.0164 -1.2866 -1.5186
 5589TIP3   OH238181   5.829   4.286  11.565 -0.2841 -0.1217  0.2644
 5589TIP3    H138182   5.907   4.248  11.526 -0.4180 -0.5078  0.3668
 5589TIP3    H238183   5.857   4.314  11.653  0.2897  1.6883 -0.4329
 5590TIP3   OH238184   0.339   2.958   4.210  0.4155  0.2841 -0.2627
 5590TIP3    H138185   0.261   3.009   4.185  0.9848  0.8610 -0.9155
 5590TIP3    H238186   0.408   3.023   4.220  0.4870 -0.0604  1.8054
 5591TIP3   OH238187   3.409   5.571  13.885 -0.6752  0.1966 -0.6282
 5591TIP3    H138188   3.369   5.633  13.823  1.1695  2.1752  0.0432
 5591TIP3    H238189   3.503   5.586  13.877 -0.2350 -1.5743  0.5949
 5592TIP3   OH238190   4.995   1.707  12.721 -0.4198  0.1731  0.5253
 5592TIP3    H138191   4.948   1.626  12.702 -1.5344  0.5899  1.3804
 5592TIP3    H238192   5.033   1.693  12.808 -0.9582  0.7159  0.8496
 5593TIP3   OH238193   2.124   1.040  11.496 -0.5655  0.4344 -0.0061
 5593TIP3    H138194   2.064   1.018  11.568  0.6073  1.0326  1.2025
 5593TIP3    H238195   2.203   1.073  11.540  0.5084  0.0410 -1.5582
 5594TIP3   OH238196   3.207   2.349  12.355 -0.0969 -0.3553  0.3051
 5594TIP3    H138197   3.167   2.399  12.284  2.4267  2.4258  0.6305
 5594TIP3    H238198   3.256   2.280  12.311 -1.4875 -0.9664 -0.3492
 5595TIP3   OH238199   2.975   3.122  11.288  0.2661 -0.3303  0.3505
 5595TIP3    H138200   2.932   3.128  11.374  1.0126  0.9416  0.6555
 5595TIP3    H238201   3.008   3.032  11.285  0.3360 -0.3596  1.4494
 5596TIP3   OH238202   5.408   3.344  14.886  0.0308 -0.8811 -0.6608
 5596TIP3    H138203   5.375   3.286  14.817 -2.1997 -1.7214  0.9962
 5596TIP3    H238204   5.435   3.285  14.956 -1.0785  0.0072  0.5559
 5597TIP3   OH238205   6.249   0.498  15.163 -0.1662 -0.1726  0.4970
 5597TIP3    H138206   6.333   0.513  15.119  0.3676 -1.3332  1.0726
 5597TIP3    H238207   6.187   0.553  15.115  0.8315  0.3741 -0.2180
 5598TIP3   OH238208   2.417   4.253  17.027 -0.6419  0.2486  0.3142
 5598TIP3    H138209   2.420   4.162  16.997 -0.8389 -0.3294  1.9573
 5598TIP3    H238210   2.457   4.251  17.113  0.1709  1.9061  0.0153
 5599TIP3   OH238211   5.190   3.283  12.054 -0.0724  0.1766 -1.0754
 5599TIP3    H138212   5.154   3.220  11.992  0.0493 -1.9319  0.8788
 5599TIP3    H238213   5.245   3.231  12.112  0.2381  2.1357  0.4955
 5600TIP3   OH238214   2.459   2.466  15.099  0.0304 -0.3149 -0.6351
 5600TIP3    H138215   2.465   2.370  15.102 -0.1170 -0.3547 -1.3434
 5600TIP3    H238216   2.370   2.486  15.129 -0.2495 -0.4629 -1.3446
 5601TIP3   OH238217   3.148   1.843  12.104 -0.0407 -0.1461  0.0235
 5601TIP3    H138218   3.156   1.869  12.012 -3.2448  3.6538  0.5800
 5601TIP3    H238219   3.113   1.920  12.148  0.4428 -2.1116  4.3274
 5602TIP3   OH238220   1.995   5.251  14.300 -0.1201 -0.5204  0.3949
 5602TIP3    H138221   1.978   5.244  14.394 -0.6931 -1.1383  0.2563
 5602TIP3    H238222   1.930   5.314  14.269 -0.1425 -0.5591  0.3627
 5603TIP3   OH238223   5.474   4.681   2.312  0.1564 -0.0920 -0.1035
 5603TIP3    H138224   5.458   4.734   2.233 -0.2760  1.1932  0.8203
 5603TIP3    H238225   5.433   4.597   2.292 -0.4727  0.4090 -1.0254
 5604TIP3   OH238226   2.660   2.989  14.775 -0.2360 -0.4461  0.5199
 5604TIP3    H138227   2.722   3.052  14.813 -0.3853  0.1816 -0.2751
 5604TIP3    H238228   2.597   2.972  14.845  0.7900 -1.0632  1.3347
 5605TIP3   OH238229   5.658   3.411   2.280  0.0425  0.3046 -0.0246
 5605TIP3    H138230   5.615   3.412   2.365 -0.8423 -3.2833 -0.2638
 5605TIP3    H238231   5.590   3.384   2.219  1.5607 -1.3012 -1.1188
 5606TIP3   OH238232   5.940   3.907  14.055 -0.0321  0.1797  0.1792
 5606TIP3    H138233   5.853   3.936  14.082 -0.5733 -1.8394  0.7706
 5606TIP3    H238234   5.948   3.937  13.964 -2.1614 -1.2613 -0.5368
 5607TIP3   OH238235   3.861   1.249  14.640 -0.0374 -0.8220 -0.1115
 5607TIP3    H138236   3.878   1.166  14.685  0.1806  0.4856  2.3657
 5607TIP3    H238237   3.767   1.264  14.653  0.2518  0.1352  0.9894
 5608TIP3   OH238238   4.004   0.184   1.032 -0.4364 -0.4531 -0.0831
 5608TIP3    H138239   3.956   0.138   1.101  0.4469 -0.7510  0.3471
 5608TIP3    H238240   4.030   0.267   1.074 -0.3070 -0.4276 -0.2169
 5609TIP3   OH238241   0.550   1.916  13.015 -0.0281  0.6214  0.0847
 5609TIP3    H138242   0.604   1.983  13.057 -1.7569  1.6639  0.8021
 5609TIP3    H238243   0.596   1.894  12.935  2.8268 -0.5861  1.9064
 5610TIP3   OH238244   3.727   1.328   6.120  0.1126 -0.1445 -0.0847
 5610TIP3    H138245   3.776   1.313   6.201  0.0957 -0.8003 -0.1867
 5610TIP3    H238246   3.727   1.242   6.076 -1.2283 -0.1907 -0.0315
 5611TIP3   OH238247   0.746   0.866  15.087 -0.3898  0.1787 -0.8201
 5611TIP3    H138248   0.765   0.827  15.001 -0.9951 -0.7276 -0.5584
 5611TIP3    H238249   0.729   0.791  15.144  2.2778  0.6062  0.7119
 5612TIP3   OH238250   6.308   5.141  12.446  0.0173  0.2460  0.0137
 5612TIP3    H138251   6.220   5.133  12.483 -0.0749  0.4832 -0.1515
 5612TIP3    H238252   6.366   5.141  12.522 -0.2445  1.8354  0.2450
 5613TIP3   OH238253   4.742   3.780   0.531 -0.2865  0.3465 -0.2397
 5613TIP3    H138254   4.752   3.873   0.512 -1.7638  0.5362 -0.1921
 5613TIP3    H238255   4.791   3.736   0.462  1.0124  1.1515  0.1335
 5614TIP3   OH238256   1.220   6.416  13.545 -0.1945  0.7179  0.0241
 5614TIP3    H138257   1.273   6.346  13.508 -0.8442  0.2527 -0.0526
 5614TIP3    H238258   1.214   6.481  13.475 -0.4860  0.3528 -0.2996
 5615TIP3   OH238259   5.241   3.766   3.975  0.2580 -0.1911  0.0111
 5615TIP3    H138260   5.227   3.756   3.880  2.0464 -0.0588 -0.3049
 5615TIP3    H238261   5.280   3.682   4.002 -1.8178 -0.9080  1.0156
 5616TIP3   OH238262   2.586   3.710   6.052 -0.0345  0.7224 -0.2349
 5616TIP3    H138263   2.680   3.724   6.043 -0.0906  0.8317 -0.6821
 5616TIP3    H238264   2.561   3.661   5.974 -0.1797 -0.1797  0.3735
 5617TIP3   OH238265   5.172   0.501  13.445 -0.0553  0.1418 -0.0499
 5617TIP3    H138266   5.116   0.542  13.379  0.0389  0.5969  0.1517
 5617TIP3    H238267   5.246   0.561  13.454  0.6040 -0.5807 -0.5051
 5618TIP3   OH238268   0.404   6.808   0.939 -0.2078  0.0065 -0.6405
 5618TIP3    H138269   0.386   6.723   0.978 -0.2649  0.2660 -0.0883
 5618TIP3    H238270   0.414   6.791   0.846 -0.7105 -0.5309 -0.5978
 5619TIP3   OH238271   3.664   6.460   4.690 -0.3912  0.4710  0.2505
 5619TIP3    H138272   3.755   6.457   4.718 -0.0987  1.9294 -0.4274
 5619TIP3    H238273   3.663   6.415   4.606 -0.5938 -0.8043  0.9140
 5620TIP3   OH238274   5.855   2.180  13.639  0.3640  0.0649 -0.1235
 5620TIP3    H138275   5.810   2.108  13.595 -0.6592 -0.1039  1.1275
 5620TIP3    H238276   5.933   2.138  13.678 -0.8271 -0.6808  1.5885
 5621TIP3   OH238277   3.316   4.345  12.826  0.6116  0.3432 -0.1241
 5621TIP3    H138278   3.325   4.254  12.797  0.3177 -0.4405  2.0130
 5621TIP3    H238279   3.222   4.357  12.838  0.6619  0.8724 -0.2568
 5622TIP3   OH238280   4.926   3.890  10.534  0.5812  0.1011  0.0702
 5622TIP3    H138281   4.884   3.962  10.582 -1.9194 -1.4986  0.5262
 5622TIP3    H238282   4.972   3.840  10.602  2.2552  1.1513 -0.2348
 5623TIP3   OH238283   3.512   0.607  13.569  0.6190  0.3694 -0.0111
 5623TIP3    H138284   3.551   0.569  13.648  0.9641  1.7599  0.5119
 5623TIP3    H238285   3.420   0.580  13.573  0.4362  1.0885  1.3187
 5624TIP3   OH238286   6.648   1.360   3.786 -0.1399 -0.0403 -0.3346
 5624TIP3    H138287   6.665   1.268   3.766 -0.6805 -0.4010  0.7851
 5624TIP3    H238288   6.601   1.392   3.709  0.9588 -0.4094 -1.1865
 5625TIP3   OH238289   3.453   6.717   5.595 -0.8690  0.6630  0.1350
 5625TIP3    H138290   3.391   6.788   5.578 -1.1123  0.4563  0.1484
 5625TIP3    H238291   3.436   6.691   5.685 -1.2126  0.1704 -0.0674
 5626TIP3   OH238292   4.558   2.738  16.329  0.1606 -0.4766  0.2251
 5626TIP3    H138293   4.590   2.686  16.255 -0.5885 -1.2135  0.3902
 5626TIP3    H238294   4.553   2.675  16.401  0.0954  0.0405  0.6727
 5627TIP3   OH238295   1.137   1.867   2.671 -0.2241  0.0307 -0.3446
 5627TIP3    H138296   1.048   1.901   2.664  0.1166  0.9450 -0.3102
 5627TIP3    H238297   1.131   1.778   2.635 -0.8744  0.5587 -1.6027
 5628TIP3   OH238298   5.119   4.287  13.353 -0.2038 -0.0879  0.5671
 5628TIP3    H138299   5.048   4.348  13.372 -0.7159 -0.0344 -1.3234
 5628TIP3    H238300   5.144   4.306  13.263 -0.0065 -2.2795  0.0829
 5629TIP3   OH238301   2.489   6.270   2.612  0.0795  0.4261  0.3746
 5629TIP3    H138302   2.470   6.188   2.656  0.1087  0.0190 -0.3467
 5629TIP3    H238303   2.570   6.253   2.563 -0.2446  0.6768 -0.2684
 5630TIP3   OH238304   3.708   6.484   5.004  0.3445  0.0497 -0.6271
 5630TIP3    H138305   3.772   6.507   5.070 -0.1800  0.0681 -0.1181
 5630TIP3    H238306   3.760   6.454   4.929  0.9292 -1.0220  0.1757
 5631TIP3   OH238307   6.487   3.648   2.024  0.5843  0.3694 -0.5781
 5631TIP3    H138308   6.476   3.616   2.113  0.0893  0.1132 -0.7316
 5631TIP3    H238309   6.575   3.687   2.024 -0.3538  2.6634  0.7197
 5632TIP3   OH238310   0.432   6.247   6.590 -0.7368  0.2442  0.3687
 5632TIP3    H138311   0.338   6.234   6.599 -0.7824  0.4233  0.1663
 5632TIP3    H238312   0.461   6.179   6.529 -1.0856  1.4524 -1.2253
 5633TIP3   OH238313   2.888   3.812  16.081  0.0391 -0.2854  0.3703
 5633TIP3    H138314   2.949   3.846  16.147  0.6823  0.0713 -0.3861
 5633TIP3    H238315   2.945   3.772  16.015 -0.6499 -3.5257  1.4994
 5634TIP3   OH238316   6.108   4.682   0.425 -0.3000  0.4342 -0.1163
 5634TIP3    H138317   6.069   4.670   0.512  0.6122  1.2559  0.4266
 5634TIP3    H238318   6.087   4.773   0.402  1.2937  0.9304  0.2229
 5635TIP3   OH238319   1.364   6.784  11.349  0.4390  0.1542  0.2836
 5635TIP3    H138320   1.300   6.789  11.278 -0.7764  0.5699  1.3476
 5635TIP3    H238321   1.409   6.869  11.347 -0.4592  0.6547  0.7639
 5636TIP3   OH238322   5.246   3.161  13.181  0.0843 -0.2555  0.2127
 5636TIP3    H138323   5.260   3.250  13.213 -2.6118  0.1811  0.3867
 5636TIP3    H238324   5.151   3.152  13.173  0.0832 -3.7135  1.9081
 5637TIP3   OH238325   4.713   5.802   2.896  0.5057 -0.2163 -0.1016
 5637TIP3    H138326   4.759   5.722   2.870  0.4309 -0.2490 -0.1331
 5637TIP3    H238327   4.761   5.872   2.853  0.2463 -0.2878 -0.5190
 5638TIP3   OH238328   0.213   5.750   5.601  0.2164  0.2228 -0.3288
 5638TIP3    H138329   0.271   5.800   5.658 -0.9528  1.1561  0.0895
 5638TIP3    H238330   0.244   5.660   5.608 -0.9021 -0.0294  3.1800
 5639TIP3   OH238331   3.002   0.431   5.178 -0.3551  0.3382  0.6730
 5639TIP3    H138332   3.072   0.426   5.243 -1.2683  1.0123  1.7219
 5639TIP3    H238333   3.008   0.348   5.130  1.3974  0.5405  0.4850
 5640TIP3   OH238334   4.515   1.500  14.515  0.3698  0.0699 -0.0464
 5640TIP3    H138335   4.522   1.425  14.573 -0.3611  0.0886  0.0802
 5640TIP3    H238336   4.469   1.566  14.567  2.0718  1.0677  0.2798
 5641TIP3   OH238337   3.585   2.681   4.099 -0.5244 -0.0516  0.6936
 5641TIP3    H138338   3.631   2.628   4.034 -3.5360 -1.2161 -0.6868
 5641TIP3    H238339   3.647   2.691   4.171  2.0907 -0.8025 -1.3057
 5642TIP3   OH238340   6.073   3.899  13.340  0.1035  0.4928  0.4308
 5642TIP3    H138341   6.043   3.878  13.428 -2.3060  0.5797 -0.2870
 5642TIP3    H238342   6.021   3.842  13.283  1.0707  0.9543 -0.9794
 5643TIP3   OH238343   3.661   3.889   0.836 -0.2900  0.6727 -0.3015
 5643TIP3    H138344   3.592   3.855   0.893 -0.6312  1.4060 -0.2744
 5643TIP3    H238345   3.705   3.810   0.803 -0.5763  0.2257  0.3668
 5644TIP3   OH238346   5.425   0.803   3.476  0.0089  0.1708  0.1316
 5644TIP3    H138347   5.472   0.741   3.533 -0.6102  0.5464  1.0834
 5644TIP3    H238348   5.389   0.868   3.537  1.0307  1.7471 -0.8656
 5645TIP3   OH238349   0.986   0.005  12.262 -0.6900  0.0154  0.5365
 5645TIP3    H138350   0.966   0.090  12.300  0.1347  0.6805 -0.4852
 5645TIP3    H238351   1.036   0.024  12.183 -1.7656 -1.3535 -0.5366
 5646TIP3   OH238352   0.373   4.761  16.154  0.2658 -0.2193 -0.0828
 5646TIP3    H138353   0.386   4.795  16.243 -0.2438  0.4726 -0.2574
 5646TIP3    H238354   0.454   4.780  16.108 -0.5596  2.3600 -0.6515
 5647TIP3   OH238355   0.879   4.944  14.059  0.1363  0.4405  0.4329
 5647TIP3    H138356   0.811   4.916  13.998  0.9931 -2.6488  0.7356
 5647TIP3    H238357   0.842   4.928  14.145  1.2937 -1.5885  0.5987
 5648TIP3   OH238358   3.010   4.649   2.217 -0.3107 -0.0580  0.4535
 5648TIP3    H138359   2.977   4.636   2.306  2.4387 -0.0634  1.5734
 5648TIP3    H238360   2.970   4.579   2.166 -0.0301 -1.6076  2.2633
 5649TIP3   OH238361   1.532   2.697   4.746  0.0196  0.4045  0.1351
 5649TIP3    H138362   1.518   2.758   4.819 -0.1800  1.8111 -1.0347
 5649TIP3    H238363   1.616   2.723   4.709  0.3595 -0.6277  0.1351
 5650TIP3   OH238364   3.955   5.256   4.089  0.5352  0.5338 -0.1408
 5650TIP3    H138365   3.992   5.203   4.018 -2.1946 -0.6897 -0.7682
 5650TIP3    H238366   3.958   5.199   4.166 -2.4915 -0.7665 -0.8371
 5651TIP3   OH238367   0.010   1.412  14.887  0.0950  0.2225  0.0694
 5651TIP3    H138368   0.043   1.457  14.808  0.4141 -1.9075 -1.0919
 5651TIP3    H238369  -0.079   1.445  14.898 -0.2713 -0.0129 -1.7304
 5652TIP3   OH238370   3.410   3.213  17.173 -0.3867 -0.2119  0.3840
 5652TIP3    H138371   3.421   3.264  17.253  0.8076 -0.7367  0.5775
 5652TIP3    H238372   3.434   3.123  17.198  0.7530 -0.2490 -0.7149
 5653TIP3   OH238373   4.180   3.220  15.726 -0.5980  0.1347 -0.1367
 5653TIP3    H138374   4.210   3.172  15.649 -0.7894 -2.5422  1.3143
 5653TIP3    H238375   4.084   3.217  15.720 -0.6360 -1.1433  0.7472
 5654TIP3   OH238376   3.915   3.315  13.737 -0.3936 -0.5765  0.0606
 5654TIP3    H138377   3.946   3.401  13.764 -0.9928 -0.5520  0.6963
 5654TIP3    H238378   3.994   3.267  13.713  0.1210 -0.4470  1.4357
 5655TIP3   OH238379   1.948   0.094  16.300 -0.5422  0.0617  0.5179
 5655TIP3    H138380   1.910   0.081  16.213  1.5885 -0.4663 -0.3939
 5655TIP3    H238381   1.977   0.007  16.327 -0.1411  0.4077  1.2435
 5656TIP3   OH238382   1.928   4.342  12.778 -0.0740 -0.4482 -0.2579
 5656TIP3    H138383   1.918   4.319  12.685 -1.2955 -1.2247  0.0495
 5656TIP3    H238384   1.847   4.311  12.819 -0.2558  1.2970  0.7974
 5657TIP3   OH238385   5.533   1.160   5.156 -0.4835 -0.0425 -0.4144
 5657TIP3    H138386   5.530   1.074   5.199 -0.5838 -0.1332 -0.6014
 5657TIP3    H238387   5.589   1.213   5.213 -0.4536 -0.2198 -0.2764
 5658TIP3   OH238388   1.532   2.463   4.163 -0.0911 -0.9760 -0.3371
 5658TIP3    H138389   1.568   2.375   4.151  0.8753 -0.9490  1.8120
 5658TIP3    H238390   1.446   2.449   4.204  0.3632 -0.9395  0.6592
 5659TIP3   OH238391   0.803   0.248  15.946 -0.4647  0.7350  0.1093
 5659TIP3    H138392   0.848   0.242  15.862 -0.6676  4.3502 -0.4396
 5659TIP3    H238393   0.716   0.211  15.929  0.6087 -1.8855 -0.1469
 5660TIP3   OH238394   4.733   6.620  15.989  0.3987 -0.8850  0.4592
 5660TIP3    H138395   4.717   6.527  15.977 -1.1231 -0.6699  0.6677
 5660TIP3    H238396   4.784   6.645  15.912 -0.1758 -1.6593 -0.1917
 5661TIP3   OH238397   4.302   1.158  13.914  0.0799  0.6750 -0.7658
 5661TIP3    H138398   4.291   1.248  13.943  1.1849  1.1812 -1.8001
 5661TIP3    H238399   4.259   1.155  13.828 -0.6990 -0.0281 -0.3701
 5662TIP3   OH238400   4.391   3.149  15.199  0.0104 -0.4920  0.3839
 5662TIP3    H138401   4.461   3.113  15.254  1.1344  1.4550  0.3250
 5662TIP3    H238402   4.432   3.222  15.153 -1.8530  0.1760 -0.3217
 5663TIP3   OH238403   0.217   4.765   3.925 -0.5535  0.1546  0.0336
 5663TIP3    H138404   0.166   4.731   3.999  0.5533 -0.7082  0.4213
 5663TIP3    H238405   0.252   4.848   3.956  2.0864 -1.3980  1.5274
 5664TIP3   OH238406   5.482   3.343  15.887 -0.3866  0.3481 -0.3737
 5664TIP3    H138407   5.392   3.317  15.865 -0.9695 -0.1523  2.3067
 5664TIP3    H238408   5.473   3.433  15.918 -0.6490 -0.7297  3.1147
 5665TIP3   OH238409   2.275   6.190  14.700  0.1809 -0.0412  0.5813
 5665TIP3    H138410   2.188   6.158  14.678 -0.2316  0.9919  0.6506
 5665TIP3    H238411   2.262   6.240  14.781  1.3128 -2.0802  2.1243
 5666TIP3   OH238412   2.758   4.695   2.681 -0.3713 -0.2004  0.0860
 5666TIP3    H138413   2.764   4.742   2.764 -0.1331 -0.0324 -0.0262
 5666TIP3    H238414   2.715   4.757   2.622  0.2250 -0.0036 -0.1490
 5667TIP3   OH238415   3.380   1.249   0.045  0.0182  0.7614 -0.4821
 5667TIP3    H138416   3.301   1.272   0.093  0.1626  2.0454 -0.8258
 5667TIP3    H238417   3.349   1.223  -0.042 -0.2950 -2.1185  0.3920
 5668TIP3   OH238418   1.936   1.258   0.366  0.4836  0.7265  0.2555
 5668TIP3    H138419   2.024   1.279   0.334  0.6643  0.3304  0.4909
 5668TIP3    H238420   1.883   1.251   0.287  0.6662  0.9466  0.1103
 5669TIP3   OH238421   1.652   3.822  12.722  0.1228  0.1029  0.1301
 5669TIP3    H138422   1.678   3.800  12.632  0.1833 -0.7788  0.3526
 5669TIP3    H238423   1.625   3.739  12.759 -0.6371  0.5992  0.6933
 5670TIP3   OH238424   1.631   1.795   6.373  0.3378  0.5830 -0.1818
 5670TIP3    H138425   1.722   1.820   6.358 -0.1234  1.6404 -1.3906
 5670TIP3    H238426   1.579   1.866   6.335 -1.0036  0.0161  0.4925
 5671TIP3   OH238427   0.025   6.446   2.210 -0.1869 -0.3714  0.4550
 5671TIP3    H138428   0.018   6.539   2.190 -0.9768 -0.1998  1.4437
 5671TIP3    H238429   0.033   6.404   2.125  0.0862  0.5921 -0.0062
 5672TIP3   OH238430   0.723   5.733  11.790  0.0779 -0.1625  0.3703
 5672TIP3    H138431   0.747   5.757  11.701  1.1366 -0.8470  0.4563
 5672TIP3    H238432   0.785   5.781  11.845 -2.5862  2.8854  0.9820
 5673TIP3   OH238433   4.713   1.339  14.659 -0.1666  0.2383 -0.2709
 5673TIP3    H138434   4.693   1.374  14.746  1.5549  1.5752 -0.3423
 5673TIP3    H238435   4.738   1.248  14.675 -1.5551 -0.0469  0.3841
 5674TIP3   OH238436   4.700   3.519  12.625  0.1252  0.3052  0.1373
 5674TIP3    H138437   4.791   3.500  12.603  0.3202 -0.0865  1.1970
 5674TIP3    H238438   4.689   3.486  12.714 -1.3373 -0.5384 -0.3140
 5675TIP3   OH238439   4.175   4.618  15.005  0.9045  0.4371  0.2550
 5675TIP3    H138440   4.261   4.627  15.047  1.4144 -2.9320  0.2123
 5675TIP3    H238441   4.195   4.615  14.911  0.9399 -1.3784  0.2865
 5676TIP3   OH238442   2.167   0.953   1.906  0.0783  0.3039 -1.0189
 5676TIP3    H138443   2.078   0.990   1.907 -0.2077 -0.3395 -1.6694
 5676TIP3    H238444   2.170   0.901   1.825  0.1329 -1.8741  0.3013
 5677TIP3   OH238445   1.262   4.034   4.417  0.0643 -0.1383  0.1363
 5677TIP3    H138446   1.351   4.039   4.383  0.0764 -0.1206  0.1708
 5677TIP3    H238447   1.230   3.948   4.389  0.7530 -0.9594  1.7516
 5678TIP3   OH238448   1.021   5.020   3.445  0.3958  0.0527 -0.2970
 5678TIP3    H138449   1.102   5.061   3.476 -0.3458  1.0974  0.2908
 5678TIP3    H238450   0.981   5.086   3.388 -0.8151  0.1738  0.6612
 5679TIP3   OH238451   6.606   2.184   1.031  0.0996  0.1851  0.0111
 5679TIP3    H138452   6.620   2.261   0.976 -2.6040 -1.5982 -3.5706
 5679TIP3    H238453   6.526   2.203   1.079  1.4080  0.9303  2.0683
 5680TIP3   OH238454   4.807   2.045  17.082  0.1055 -0.1096 -0.2817
 5680TIP3    H138455   4.808   2.078  17.172 -0.1410  0.5705 -0.5199
 5680TIP3    H238456   4.832   1.953  17.090 -0.3943 -0.1879  0.5373
 5681TIP3   OH238457   4.435   3.543   0.772  0.3142  0.4743  0.0103
 5681TIP3    H138458   4.480   3.487   0.835 -1.1024  0.8832  1.4567
 5681TIP3    H238459   4.488   3.623   0.768 -0.5345  1.2472  2.2352
 5682TIP3   OH238460   1.245   3.775  11.683 -0.5340 -0.0643  0.3407
 5682TIP3    H138461   1.304   3.809  11.751  2.0135 -1.9831 -0.7390
 5682TIP3    H238462   1.271   3.821  11.603 -2.1585  0.7342  0.2241
 5683TIP3   OH238463   0.734   3.587   2.640  0.3847  0.0536 -0.1087
 5683TIP3    H138464   0.668   3.587   2.710 -0.1919 -0.3396 -0.6367
 5683TIP3    H238465   0.695   3.640   2.571  0.6874 -0.0562 -0.3660
 5684TIP3   OH238466   1.788   5.864   0.140  0.2805  0.2069  0.0730
 5684TIP3    H138467   1.834   5.916   0.205 -0.4757  0.8259  0.1206
 5684TIP3    H238468   1.858   5.823   0.089  0.9068  1.5128 -0.1692
 5685TIP3   OH238469   3.682   3.912  15.927  0.5137 -0.4347  0.5471
 5685TIP3    H138470   3.670   3.931  15.834 -0.0506  0.7107  0.8429
 5685TIP3    H238471   3.773   3.936  15.945 -0.1020  1.8998  0.8549
 5686TIP3   OH238472   0.112   3.143  14.129  0.2271  0.2900 -0.1940
 5686TIP3    H138473   0.024   3.168  14.158 -0.0547 -0.6330 -0.2075
 5686TIP3    H238474   0.099   3.100  14.045  0.8745  1.5124 -0.9491
 5687TIP3   OH238475   4.656   2.530  12.128  0.6522 -0.1928  0.2585
 5687TIP3    H138476   4.739   2.484  12.115  0.6882 -0.5213  1.4663
 5687TIP3    H238477   4.615   2.484  12.202  0.1939  1.0373  0.7983
 5688TIP3   OH238478   5.517   2.472   4.110  0.0758  0.1738 -0.2926
 5688TIP3    H138479   5.514   2.466   4.205 -0.4312  1.4495 -0.2110
 5688TIP3    H238480   5.433   2.435   4.080 -1.0289  2.3321 -0.0541
 5689TIP3   OH238481   2.219   2.416   6.205 -0.1782  0.6549  0.1958
 5689TIP3    H138482   2.204   2.334   6.251  0.3929 -0.1370 -0.9688
 5689TIP3    H238483   2.294   2.456   6.250 -0.4101  0.4993  0.7176
 5690TIP3   OH238484   5.806   5.014  14.800  0.2906  0.0385  0.2010
 5690TIP3    H138485   5.823   4.920  14.794  0.0221  0.0145 -0.2699
 5690TIP3    H238486   5.870   5.053  14.740 -0.7092  0.0149 -0.9319
 5691TIP3   OH238487   3.169   3.106   2.804 -0.2940 -0.0983  0.0708
 5691TIP3    H138488   3.173   3.011   2.792  1.8402 -0.0307 -0.2157
 5691TIP3    H238489   3.098   3.135   2.746 -0.5161 -1.4438 -0.3547
 5692TIP3   OH238490   0.886   2.479  10.954  0.2371 -0.1845 -0.3111
 5692TIP3    H138491   0.828   2.487  11.029 -1.2318 -0.6081 -1.3480
 5692TIP3    H238492   0.943   2.405  10.975  0.5538  0.3613  0.8081
 5693TIP3   OH238493   5.567   5.820   0.031  0.6746 -0.2580  0.5441
 5693TIP3    H138494   5.662   5.825   0.031  0.7303 -0.7484 -1.0012
 5693TIP3    H238495   5.547   5.735  -0.010 -0.4176  0.9359 -1.5898
 5694TIP3   OH238496   4.922   2.156  12.591 -0.3768  0.2909 -0.3249
 5694TIP3    H138497   4.978   2.078  12.593 -1.9989 -0.9163 -0.3943
 5694TIP3    H238498   4.896   2.164  12.499  0.9419  1.8167 -0.6088
 5695TIP3   OH238499   6.549   4.075   4.698 -0.1010  0.0624  0.2855
 5695TIP3    H138500   6.585   4.056   4.785 -2.8972 -1.4072  1.2652
 5695TIP3    H238501   6.464   4.031   4.698  0.0535 -0.5116 -3.4795
 5696TIP3   OH238502   3.154   2.552   1.893  0.1978  0.0963 -0.2175
 5696TIP3    H138503   3.202   2.633   1.908 -0.9828  1.3005 -2.4454
 5696TIP3    H238504   3.159   2.538   1.799  0.3159 -2.4323  0.0911
 5697TIP3   OH238505   2.187   1.898   3.321 -0.0037 -1.7932  0.1904
 5697TIP3    H138506   2.247   1.962   3.283  0.0143 -0.8088  1.7904
 5697TIP3    H238507   2.236   1.861   3.395 -1.1347 -1.4081  1.1493
 5698TIP3   OH238508   3.651   0.071  11.005 -0.1598 -0.6379  0.0207
 5698TIP3    H138509   3.644   0.164  11.028  2.3344  0.2644 -2.3673
 5698TIP3    H238510   3.566   0.050  10.965 -0.6014  0.7289  0.1689
 5699TIP3   OH238511   6.011   1.563  11.285 -0.5234  0.8988 -0.6874
 5699TIP3    H138512   6.040   1.504  11.354 -1.4600  0.8368 -0.3289
 5699TIP3    H238513   6.081   1.560  11.219 -0.5452 -0.6092 -0.6771
 5700TIP3   OH238514   4.065   2.625   0.377 -0.2498 -0.6557  0.0496
 5700TIP3    H138515   4.078   2.584   0.463 -0.8798  0.5470  0.7569
 5700TIP3    H238516   3.971   2.638   0.370 -0.0188  2.0238  0.5912
 5701TIP3   OH238517   0.177   0.551   5.927 -0.0397 -0.5337 -0.2879
 5701TIP3    H138518   0.225   0.629   5.954 -0.0086 -0.3042 -0.9890
 5701TIP3    H238519   0.188   0.490   6.000  1.9989 -0.7986 -0.7486
 5702TIP3   OH238520   3.881   0.883   1.354 -0.2764 -0.0820 -0.1915
 5702TIP3    H138521   3.806   0.882   1.294 -0.0015 -0.1759 -0.5378
 5702TIP3    H238522   3.879   0.969   1.394  0.5572  0.6377 -1.6326
 5703TIP3   OH238523   5.135   4.896   4.920  0.5055  0.3761  0.0918
 5703TIP3    H138524   5.173   4.982   4.940  2.0506 -0.2666  0.0269
 5703TIP3    H238525   5.050   4.916   4.879  1.6363  1.9175 -1.6315
 5704TIP3   OH238526   5.198   6.592   0.379  0.2661  0.2710 -0.4530
 5704TIP3    H138527   5.145   6.598   0.459 -0.7734 -0.9979 -1.0061
 5704TIP3    H238528   5.288   6.584   0.411 -0.3621 -4.1201  0.8768
 5705TIP3   OH238529   2.866   3.004   3.482 -0.3822  0.0736 -0.1663
 5705TIP3    H138530   2.845   2.959   3.400  0.7034  1.9964 -1.5881
 5705TIP3    H238531   2.899   2.935   3.540 -1.4913 -1.3822 -1.2138
 5706TIP3   OH238532   5.265   2.404   4.421  0.1837  0.0399  0.5106
 5706TIP3    H138533   5.282   2.311   4.409 -0.9488 -0.1962  0.6576
 5706TIP3    H238534   5.170   2.413   4.412  0.1476  0.9991  1.6192
 5707TIP3   OH238535   6.543   5.897   1.400  0.0304 -0.3880  0.3497
 5707TIP3    H138536   6.630   5.857   1.408  0.0995  0.0515  2.4786
 5707TIP3    H238537   6.482   5.829   1.428 -0.0941  0.0556  1.1798
 5708TIP3   OH238538   3.479   5.174   5.085 -0.6512 -0.0322 -0.1563
 5708TIP3    H138539   3.460   5.181   5.178 -0.8538 -3.2724  0.1452
 5708TIP3    H238540   3.574   5.173   5.079 -0.6360 -1.3698  0.1997
 5709TIP3   OH238541   1.622   2.934  14.700 -0.4935 -0.0742  0.2118
 5709TIP3    H138542   1.606   2.871  14.770  0.8984 -0.6519  0.0374
 5709TIP3    H238543   1.536   2.974  14.684 -1.5369 -2.1982  0.0623
 5710TIP3   OH238544   4.867   3.128   0.058 -0.4006 -0.2547  0.5259
 5710TIP3    H138545   4.837   3.218   0.049 -1.1068 -0.5872 -0.8039
 5710TIP3    H238546   4.872   3.095  -0.032  0.9430 -1.2005  0.9110
 5711TIP3   OH238547   0.564   6.519   5.211  0.5119 -0.3758 -0.4204
 5711TIP3    H138548   0.576   6.470   5.129 -0.9992  0.6133 -1.2756
 5711TIP3    H238549   0.483   6.484   5.248  0.9212 -0.4601  0.4122
 5712TIP3   OH238550   0.833   2.484   3.165  0.1217 -0.2420 -0.1085
 5712TIP3    H138551   0.893   2.436   3.109 -0.4277  0.4120 -1.2943
 5712TIP3    H238552   0.746   2.462   3.131 -0.2568 -0.2895  0.8638
 5713TIP3   OH238553   2.421   5.047  12.377  0.5683 -0.3938  0.8156
 5713TIP3    H138554   2.399   5.080  12.464 -0.8109  1.5802 -0.2108
 5713TIP3    H238555   2.471   5.117  12.336  1.5452 -1.4593  0.1243
 5714TIP3   OH238556   3.907   6.756  11.513  0.5159  0.1741 -0.2387
 5714TIP3    H138557   3.874   6.754  11.423  0.2462 -0.9953 -0.1276
 5714TIP3    H238558   3.831   6.737  11.568  0.6137  1.1774  0.2702
 5715TIP3   OH238559   4.842   5.796  11.570 -0.0522 -0.8308 -0.0014
 5715TIP3    H138560   4.924   5.835  11.541  0.7198 -2.1829  0.2772
 5715TIP3    H238561   4.863   5.704  11.585 -1.6924 -1.2835 -0.2263
 5716TIP3   OH238562   0.531   2.954   5.141 -0.4439  0.5974 -0.2097
 5716TIP3    H138563   0.444   2.924   5.116  0.6805 -1.4491 -2.0564
 5716TIP3    H238564   0.587   2.876   5.132  1.4626  1.6133  1.7160
 5717TIP3   OH238565   2.677   0.433  15.476  0.3179 -0.4923  0.4167
 5717TIP3    H138566   2.621   0.382  15.535  0.0663  0.1265  0.7197
 5717TIP3    H238567   2.618   0.461  15.406  0.4156 -0.4681  0.3443
 5718TIP3   OH238568   2.450   0.018  16.079  0.0945 -0.2371 -0.1344
 5718TIP3    H138569   2.379  -0.011  16.136 -0.0788  0.1654 -0.1449
 5718TIP3    H238570   2.530  -0.008  16.125 -0.0549 -0.4904 -0.0172
 5719TIP3   OH238571   5.062   1.422   3.547 -0.2653 -0.4932 -0.1911
 5719TIP3    H138572   5.074   1.473   3.467  1.2619 -1.1730 -0.4307
 5719TIP3    H238573   5.119   1.345   3.536 -1.0573 -1.2945  0.9664
 5720TIP3   OH238574   4.496   4.624  15.061  0.2189  0.4271  0.0851
 5720TIP3    H138575   4.538   4.594  15.142 -0.0143  0.6294  0.2831
 5720TIP3    H238576   4.480   4.717  15.076  0.2929  0.4935 -0.2463
 5721TIP3   OH238577   1.987   5.639   2.528  0.1174  0.1009 -0.5386
 5721TIP3    H138578   2.079   5.656   2.508  0.2804  2.3373  1.6082
 5721TIP3    H238579   1.939   5.675   2.454  0.9025  0.1004 -1.0626
 5722TIP3   OH238580   6.264   2.425  16.562  0.5490  0.3109  0.1336
 5722TIP3    H138581   6.273   2.515  16.593 -1.1205 -0.0024  1.7255
 5722TIP3    H238582   6.183   2.426  16.510 -0.2469 -0.5005  1.3004
 5723TIP3   OH238583   6.264   1.129   1.144  0.1025 -0.3622 -0.2420
 5723TIP3    H138584   6.316   1.062   1.189 -0.0224 -0.3285 -0.0436
 5723TIP3    H238585   6.327   1.197   1.121  0.4022 -0.9765 -1.2972
 5724TIP3   OH238586   5.660   2.718  12.497 -0.2231 -0.0492  0.0749
 5724TIP3    H138587   5.732   2.694  12.555 -0.5478 -1.3744 -0.0562
 5724TIP3    H238588   5.700   2.721  12.410  0.2457  1.8589  0.3057
 5725TIP3   OH238589   0.653   2.055   3.909 -0.6468 -0.8173  0.2069
 5725TIP3    H138590   0.578   2.058   3.849 -1.1203 -0.1349  0.8031
 5725TIP3    H238591   0.729   2.069   3.853 -0.9660 -1.4902 -0.4087
 5726TIP3   OH238592   1.629   1.184  14.447  0.0653  0.2049 -0.4308
 5726TIP3    H138593   1.626   1.188  14.543 -0.9358  1.5742 -0.4856
 5726TIP3    H238594   1.635   1.091  14.427 -0.9483 -0.1886  0.9596
 5727TIP3   OH238595   3.439   5.020   3.199  0.2372  0.2503  0.2170
 5727TIP3    H138596   3.422   5.113   3.183 -0.9276  0.3313  1.6450
 5727TIP3    H238597   3.514   5.019   3.259  0.3294  0.2694  0.1008
 5728TIP3   OH238598   4.726   3.675  11.917  0.1233  0.0780 -0.0684
 5728TIP3    H138599   4.754   3.675  11.826  2.0987  0.0881  0.4932
 5728TIP3    H238600   4.719   3.583  11.941  1.4115  0.0500  0.2596
 5729TIP3   OH238601   5.950   1.064   6.318 -0.3116  0.0170 -0.5083
 5729TIP3    H138602   6.007   0.990   6.340 -1.0331 -0.1461  0.9523
 5729TIP3    H238603   5.862   1.027   6.316 -0.6323  0.7396 -0.2177
 5730TIP3   OH238604   1.642   6.169  11.935 -0.0618  0.1754  0.2411
 5730TIP3    H138605   1.553   6.197  11.956  0.3913  1.5073  0.4928
 5730TIP3    H238606   1.643   6.160  11.840 -0.6661 -0.5807  0.3042
 5731TIP3   OH238607   0.589   3.357  13.064  0.2407 -0.1921 -0.5495
 5731TIP3    H138608   0.616   3.423  13.001  1.8563 -1.1714 -0.9413
 5731TIP3    H238609   0.530   3.300  13.014 -1.6704  1.2523 -0.0358
 5732TIP3   OH238610   5.059   3.406   1.796  0.5822  0.2671  0.4835
 5732TIP3    H138611   5.017   3.490   1.816 -2.1127 -0.9445  0.3627
 5732TIP3    H238612   5.094   3.417   1.708 -2.6489  0.3466 -0.9274
 5733TIP3   OH238613   3.676   3.251  14.885 -0.3052  0.0664  0.0512
 5733TIP3    H138614   3.668   3.344  14.864  1.2737  0.5073  1.2301
 5733TIP3    H238615   3.741   3.218  14.823  0.1291  0.0716  0.4950
 5734TIP3   OH238616   3.608   5.817   3.738 -0.2252  0.0314 -0.0777
 5734TIP3    H138617   3.591   5.877   3.666 -0.2780 -0.0437 -0.1281
 5734TIP3    H238618   3.632   5.734   3.695 -1.4358 -0.3703 -0.0218
 5735TIP3   OH238619   3.359   3.217  12.122  0.1235 -0.3269  0.1643
 5735TIP3    H138620   3.265   3.197  12.128 -0.2429  1.4999  1.2262
 5735TIP3    H238621   3.364   3.312  12.126  1.8465 -0.1076 -3.3000
 5736TIP3   OH238622   2.859   0.418  15.928 -0.4920  0.3656  0.3313
 5736TIP3    H138623   2.954   0.411  15.939 -0.7007 -1.1296  1.4522
 5736TIP3    H238624   2.849   0.474  15.851  1.2694  1.3594  0.7540
 5737TIP3   OH238625   1.595   4.901  16.347  0.4178 -0.1630  0.0048
 5737TIP3    H138626   1.626   4.893  16.437 -0.0613 -1.7302  0.0664
 5737TIP3    H238627   1.585   4.810  16.317 -2.2119  0.2314 -0.6394
 5738TIP3   OH238628   0.207   3.923  15.530  0.5290  0.4676 -0.0625
 5738TIP3    H138629   0.264   3.873  15.472  0.3605 -0.2995  0.4219
 5738TIP3    H238630   0.258   3.932  15.611  0.1780  0.2311  0.1884
 5739TIP3   OH238631   6.081   1.200   5.363  0.3984 -0.3004  0.1579
 5739TIP3    H138632   6.092   1.291   5.334  1.7788  0.2983  2.3402
 5739TIP3    H238633   6.170   1.165   5.367  0.1912 -0.6928  2.4102
 5740TIP3   OH238634   0.746   1.365  14.591  0.3542 -0.2550 -0.2821
 5740TIP3    H138635   0.819   1.342  14.649  0.2547 -1.5800 -0.6468
 5740TIP3    H238636   0.668   1.343  14.642  0.2663 -1.5186 -0.9347
 5741TIP3   OH238637   2.101   6.340  12.273  0.0970  0.7716  0.4294
 5741TIP3    H138638   2.126   6.252  12.242  0.5679  1.0021  0.1371
 5741TIP3    H238639   2.129   6.398  12.202  1.5976  1.3720  1.4569
 5742TIP3   OH238640   3.411   4.872  11.890 -0.0720 -0.0412  0.5564
 5742TIP3    H138641   3.347   4.825  11.836  0.0226  1.0191 -0.5121
 5742TIP3    H238642   3.384   4.963  11.886  2.0861  0.6173 -0.8184
 5743TIP3   OH238643   3.690   3.620   5.298  0.1444  0.1800 -0.2123
 5743TIP3    H138644   3.771   3.671   5.296  0.2599  0.0265  0.4782
 5743TIP3    H238645   3.679   3.590   5.208 -0.3207  2.0244 -0.8111
 5744TIP3   OH238646   4.094   5.792   1.764  0.8432  0.3248 -0.2454
 5744TIP3    H138647   4.014   5.789   1.711  0.9940 -5.5144 -0.7675
 5744TIP3    H238648   4.065   5.824   1.849 -1.7882 -0.4427 -0.7674
 5745TIP3   OH238649   2.614   6.636  12.067  0.0134  0.1285 -0.0842
 5745TIP3    H138650   2.677   6.568  12.044  1.4411  1.6812 -0.9943
 5745TIP3    H238651   2.631   6.653  12.160 -0.2495 -0.6296  0.1109
 5746TIP3   OH238652   3.157   2.892   5.880 -0.1685 -0.2500  0.2062
 5746TIP3    H138653   3.190   2.803   5.876  1.7558  0.4054  0.4199
 5746TIP3    H238654   3.186   2.926   5.964 -2.5860  0.0012  1.0277
 5747TIP3   OH238655   6.332   0.674   0.579 -0.2538 -0.0894 -0.0976
 5747TIP3    H138656   6.248   0.632   0.599 -0.3241 -0.0896 -0.3920
 5747TIP3    H238657   6.361   0.632   0.498 -1.0811  1.4845 -1.2763
 5748TIP3   OH238658   2.798   4.165   2.188 -0.0213  0.4061 -0.0705
 5748TIP3    H138659   2.767   4.078   2.212 -0.3889  0.5528 -0.0053
 5748TIP3    H238660   2.740   4.225   2.235 -0.6240  0.6983 -1.1692
 5749TIP3   OH238661   1.546   4.114  13.579  0.2119 -0.1820  0.2515
 5749TIP3    H138662   1.607   4.135  13.650  0.7023 -0.1366 -0.1707
 5749TIP3    H238663   1.562   4.182  13.514  1.4311 -1.4997 -0.9066
 5750TIP3   OH238664   3.992   1.541  10.712 -0.0785  0.6684 -0.0867
 5750TIP3    H138665   3.940   1.514  10.637  1.5335 -0.2292 -0.9314
 5750TIP3    H238666   3.991   1.637  10.709 -1.0113  0.6546 -0.5238
 5751TIP3   OH238667   3.748   2.371   0.589  0.3744 -0.3512  0.6840
 5751TIP3    H138668   3.756   2.466   0.599  2.1869 -0.3667 -0.1952
 5751TIP3    H238669   3.656   2.357   0.568 -0.1932  1.0821  2.0083
 5752TIP3   OH238670   2.076   5.403   1.040  0.3924  0.7215 -0.5492
 5752TIP3    H138671   2.100   5.317   1.006 -0.4572 -0.1548  0.9850
 5752TIP3    H238672   1.992   5.389   1.083  1.2857  1.8150  1.6599
 5753TIP3   OH238673   3.346   0.371   5.064  0.0870  0.0628 -0.1397
 5753TIP3    H138674   3.299   0.406   5.140 -1.3920  0.8869 -1.3442
 5753TIP3    H238675   3.277   0.359   4.998  1.3739 -0.1774 -1.4920
 5754TIP3   OH238676   5.858   5.393   1.225 -0.7026  0.0798 -0.4240
 5754TIP3    H138677   5.925   5.384   1.293  0.2656  0.0318 -1.3543
 5754TIP3    H238678   5.804   5.315   1.233 -2.2771  1.3003  2.0085
 5755TIP3   OH238679   5.222   6.805   1.475  0.2148  0.9870  0.3511
 5755TIP3    H138680   5.194   6.730   1.423  2.0737  0.9019 -0.5992
 5755TIP3    H238681   5.167   6.801   1.553 -0.3061 -0.8586 -0.0485
 5756TIP3   OH238682   2.510   2.456   0.456 -0.2541 -0.8006  0.1688
 5756TIP3    H138683   2.572   2.388   0.484 -0.3849 -0.1725  2.1164
 5756TIP3    H238684   2.478   2.495   0.537  1.8712  3.4899 -0.7507
 5757TIP3   OH238685   1.049   5.204   4.368  0.2951 -0.7401  0.2832
 5757TIP3    H138686   1.095   5.120   4.366 -0.2290 -1.0614  0.9892
 5757TIP3    H238687   1.005   5.205   4.453  1.5072  0.9246  0.9434
 5758TIP3   OH238688   1.333   1.331   1.270 -0.2814 -0.0268  0.2389
 5758TIP3    H138689   1.269   1.313   1.201  1.8708 -0.4627 -1.7636
 5758TIP3    H238690   1.399   1.387   1.228 -0.5880  2.6706  2.9446
 5759TIP3   OH238691   6.142   6.191   2.026  0.0630 -0.0337  0.0340
 5759TIP3    H138692   6.155   6.236   1.943  1.1903 -0.8637 -0.2638
 5759TIP3    H238693   6.230   6.167   2.055 -0.3709 -0.4405  1.0804
 5760TIP3   OH238694   2.693   0.329  12.489 -0.0373  0.0773 -0.5692
 5760TIP3    H138695   2.639   0.256  12.519  0.7070 -0.7888 -1.3150
 5760TIP3    H238696   2.783   0.303  12.508  0.1321  2.0492  1.8487
 5761TIP3   OH238697   2.904   1.388   1.338  0.0133 -0.6128  0.1826
 5761TIP3    H138698   2.921   1.414   1.429  2.6683  1.4482 -0.7582
 5761TIP3    H238699   2.843   1.454   1.305  0.0632 -0.5963  0.1233
 5762TIP3   OH238700   0.343   5.481  14.128 -0.1374  0.0356 -0.2819
 5762TIP3    H138701   0.265   5.469  14.182  0.2606  1.3834  0.6467
 5762TIP3    H238702   0.327   5.564  14.083  1.8708  1.7722  1.9869
 5763TIP3   OH238703   2.383   1.392   0.400  0.1448  0.1977 -0.3279
 5763TIP3    H138704   2.402   1.310   0.445 -2.2259 -0.3484 -0.1738
 5763TIP3    H238705   2.438   1.457   0.444  1.8098 -1.2222 -0.2285
 5764TIP3   OH238706   4.704   5.560  13.511 -0.1837  0.3192  0.2036
 5764TIP3    H138707   4.739   5.541  13.598  1.2750  1.1855 -0.1626
 5764TIP3    H238708   4.628   5.502  13.502  0.9219 -1.3503  1.1950
 5765TIP3   OH238709   1.799   5.882   0.515 -0.3225 -0.0765 -0.5053
 5765TIP3    H138710   1.832   5.941   0.447  2.3572 -0.3372  0.4140
 5765TIP3    H238711   1.872   5.874   0.577 -1.8245 -1.6590  1.2034
 5766TIP3   OH238712   2.452   3.962  11.456  0.4123 -0.7534  0.5480
 5766TIP3    H138713   2.385   3.923  11.512  1.0641  1.0369  2.6944
 5766TIP3    H238714   2.535   3.932  11.492  0.8568  0.6739  0.7869
 5767TIP3   OH238715   5.097   5.462   2.908 -0.1309 -0.1686 -0.3008
 5767TIP3    H138716   5.164   5.422   2.964 -0.9492  0.5319  1.2352
 5767TIP3    H238717   5.062   5.389   2.857  0.2357 -0.9559  0.5361
 5768TIP3   OH238718   2.401   0.007  11.698  0.2826  0.0708  0.2037
 5768TIP3    H138719   2.382   0.099  11.712  0.7171  0.2660 -0.4575
 5768TIP3    H238720   2.474   0.006  11.636  0.5477 -0.7049  0.5085
 5769TIP3   OH238721   1.015   3.638   2.248  0.7815 -0.1141 -0.0296
 5769TIP3    H138722   0.964   3.584   2.187  0.7405  1.6185 -1.5988
 5769TIP3    H238723   0.984   3.611   2.335  0.1741 -1.9891 -0.7867
 5770TIP3   OH238724   0.245   5.713  16.872  0.5515  0.0013  0.0570
 5770TIP3    H138725   0.229   5.710  16.966 -0.8267  0.8549 -0.1204
 5770TIP3    H238726   0.288   5.798  16.858  0.5664 -0.0333 -0.1059
 5771TIP3   OH238727   1.896   1.467  14.898 -0.2723  0.4916 -0.3021
 5771TIP3    H138728   1.896   1.548  14.847  0.2814  2.6165  2.7519
 5771TIP3    H238729   1.811   1.467  14.942  0.7876  1.0120  1.8809
 5772TIP3   OH238730   5.237   6.733   5.930  0.5195  0.0781 -0.2751
 5772TIP3    H138731   5.211   6.670   5.863 -0.4648  1.7834 -1.5782
 5772TIP3    H238732   5.203   6.696   6.012 -1.8869 -0.1491 -1.2849
 5773TIP3   OH238733   3.725   3.012  14.368  0.0821  0.1929  0.0464
 5773TIP3    H138734   3.793   2.985  14.307  0.0115 -1.2094  0.5388
 5773TIP3    H238735   3.643   2.982  14.328 -0.1562  1.0112 -0.0882
 5774TIP3   OH238736   1.452   2.012   1.635  0.2342 -0.3088  0.3698
 5774TIP3    H138737   1.502   1.980   1.560 -0.5531 -1.0794  0.1531
 5774TIP3    H238738   1.361   1.988   1.615 -0.0315 -0.1913  1.4008
 5775TIP3   OH238739   1.002   0.653   1.620  0.0221  0.0007 -0.2510
 5775TIP3    H138740   0.925   0.623   1.571 -0.5800  1.0025  0.0466
 5775TIP3    H238741   0.991   0.614   1.707  0.5911 -0.9862 -0.5988
 5776TIP3   OH238742   3.608   2.683   3.297 -0.3693  0.0953  0.1905
 5776TIP3    H138743   3.584   2.595   3.269 -0.5413  0.0987  0.3253
 5776TIP3    H238744   3.695   2.696   3.261 -0.2430 -0.2232  0.3708
 5777TIP3   OH238745   6.602   6.136   4.419  0.6194 -0.3614  0.0564
 5777TIP3    H138746   6.550   6.204   4.460  0.0632  0.0414 -1.2461
 5777TIP3    H238747   6.625   6.172   4.333  1.2463 -1.3720 -0.2197
 5778TIP3   OH238748   4.418   3.225  17.133  0.4507 -0.1827 -0.0018
 5778TIP3    H138749   4.340   3.187  17.091  1.3118  1.4648 -3.5054
 5778TIP3    H238750   4.488   3.211  17.069  2.8480 -0.6111  2.5430
 5779TIP3   OH238751   4.506   1.110   5.086  0.2665  0.1943 -0.2116
 5779TIP3    H138752   4.597   1.133   5.108  1.0476 -0.8791 -2.1132
 5779TIP3    H238753   4.467   1.087   5.170  1.4299  1.6912  0.7988
 5780TIP3   OH238754   0.197   6.565   3.406 -0.5266 -0.5386 -0.4252
 5780TIP3    H138755   0.256   6.492   3.387  1.0448  0.3308  0.8845
 5780TIP3    H238756   0.198   6.619   3.327 -0.3994 -1.0563 -0.7824
 5781TIP3   OH238757   4.301   4.992  16.408 -0.5460  0.6957  0.3353
 5781TIP3    H138758   4.304   4.897  16.402  0.4336  0.6866  0.6903
 5781TIP3    H238759   4.381   5.015  16.456 -0.3711  1.7405 -0.4110
 5782TIP3   OH238760   6.300   0.499  12.551  0.0303 -0.7544  0.0146
 5782TIP3    H138761   6.313   0.592  12.568 -0.6451 -0.7122  0.3449
 5782TIP3    H238762   6.206   0.491  12.532  0.4745 -0.9915 -2.4810
 5783TIP3   OH238763   2.058   3.604  13.582  0.3898 -0.3779  0.3727
 5783TIP3    H138764   2.090   3.542  13.648 -0.9969  0.9753  2.4317
 5783TIP3    H238765   2.135   3.653  13.556  0.6327  0.8468  3.0492
 5784TIP3   OH238766   6.116   3.559   1.117  0.4338 -0.2239  0.1835
 5784TIP3    H138767   6.073   3.643   1.132  0.3667 -0.2561  0.1685
 5784TIP3    H238768   6.157   3.568   1.030  0.2620 -0.2761  0.0960
 5785TIP3   OH238769   5.840   5.931  15.408  0.7509  0.1333  0.5122
 5785TIP3    H138770   5.789   5.908  15.331  1.8842 -0.9774  0.0436
 5785TIP3    H238771   5.825   5.858  15.469  2.4346 -0.7281 -0.0062
 5786TIP3   OH238772   0.028   3.841   5.128  0.1862  0.2771 -0.2455
 5786TIP3    H138773   0.033   3.918   5.184  0.2235 -1.4520  2.3224
 5786TIP3    H238774   0.112   3.797   5.139 -0.6929 -1.3626  0.3551
 5787TIP3   OH238775   4.494   5.705  13.343  0.5291 -0.8795  0.3539
 5787TIP3    H138776   4.474   5.614  13.367  2.0220 -1.5500 -0.8072
 5787TIP3    H238777   4.585   5.717  13.370  0.1278  0.5354  1.1545
 5788TIP3   OH238778   6.554   2.090   4.944  0.3625  0.0372 -0.3450
 5788TIP3    H138779   6.518   2.057   5.026 -0.5970  0.7539 -0.4639
 5788TIP3    H238780   6.572   2.012   4.893 -3.2855 -0.3826 -1.2212
 5789TIP3   OH238781   1.424   5.704  11.609  0.5161 -0.0708 -0.4658
 5789TIP3    H138782   1.372   5.693  11.529  0.9530  0.7667 -0.8801
 5789TIP3    H238783   1.376   5.654  11.675  0.0213 -0.5914 -1.1931
 5790TIP3   OH238784   4.141   4.181   5.017  0.1926 -0.1856 -0.0999
 5790TIP3    H138785   4.086   4.226   4.953  1.8277  0.9507 -0.7658
 5790TIP3    H238786   4.214   4.147   4.966  0.6750 -0.7307  0.9184
 5791TIP3   OH238787   2.519   1.556  13.874 -0.4253  0.2099 -0.2743
 5791TIP3    H138788   2.538   1.484  13.813  2.5836  0.8748 -0.2626
 5791TIP3    H238789   2.524   1.635  13.820 -0.0262  0.6490  0.3961
 5792TIP3   OH238790   2.364   5.561   0.902 -0.1561  0.4127  0.2729
 5792TIP3    H138791   2.285   5.597   0.860  0.3548  1.6780  0.3474
 5792TIP3    H238792   2.419   5.533   0.830 -0.4092  0.0897  0.2006
 5793TIP3   OH238793   1.721   2.243  13.086 -0.0113  0.4662  0.1184
 5793TIP3    H138794   1.796   2.293  13.117 -0.2223  0.0190  1.4048
 5793TIP3    H238795   1.658   2.247  13.158 -0.7178 -0.2029 -0.4473
 5794TIP3   OH238796   2.595   2.342  15.948 -0.7110 -0.4831 -0.7597
 5794TIP3    H138797   2.672   2.390  15.978 -1.0531 -0.0094 -0.6365
 5794TIP3    H238798   2.618   2.250  15.963 -0.1040 -0.3596 -0.8870
 5795TIP3   OH238799   4.214   5.235   0.670 -0.4369 -0.5656 -0.1723
 5795TIP3    H138800   4.148   5.278   0.724 -0.0239  1.0277 -0.8714
 5795TIP3    H238801   4.167   5.206   0.592 -0.6898 -1.2756  0.2370
 5796TIP3   OH238802   1.275   1.014  10.703 -0.4402  0.2170 -0.2239
 5796TIP3    H138803   1.258   1.102  10.736 -0.2324  0.2632 -0.2365
 5796TIP3    H238804   1.190   0.970  10.706 -0.2535 -0.0753  1.2485
 5797TIP3   OH238805   2.569   5.965  13.324 -0.5795 -0.1362  0.1776
 5797TIP3    H138806   2.479   5.972  13.357  0.0131  0.8743  1.6990
 5797TIP3    H238807   2.601   5.882  13.359 -0.2661  0.4853  1.4161
 5798TIP3   OH238808   1.102   4.249  11.947  0.0839  0.0152  0.2106
 5798TIP3    H138809   1.021   4.223  11.903  0.8182  0.4753 -1.4650
 5798TIP3    H238810   1.172   4.207  11.896  1.0139  1.3530  0.3298
 5799TIP3   OH238811   0.722   2.889  14.567  0.7570 -0.3254  1.0838
 5799TIP3    H138812   0.714   2.977  14.532  4.7506 -0.1818  0.0496
 5799TIP3    H238813   0.814   2.881  14.591  0.1975 -3.6897  2.7039
 5800TIP3   OH238814   2.253   3.672   4.488  0.1381 -0.1106  0.1026
 5800TIP3    H138815   2.296   3.586   4.490  1.0511  0.3394  0.6330
 5800TIP3    H238816   2.175   3.662   4.542  0.0637 -0.6964 -0.1095
 5801TIP3   OH238817   3.967   0.483   3.206 -0.5435 -0.0472  0.1993
 5801TIP3    H138818   3.976   0.397   3.248 -0.1997  0.2563  0.7589
 5801TIP3    H238819   3.982   0.466   3.113 -1.4896 -0.7615  0.1598
 5802TIP3   OH238820   3.016   6.457  15.455 -0.1890  0.3289  0.3081
 5802TIP3    H138821   3.073   6.431  15.528 -0.0190  0.9892  0.4218
 5802TIP3    H238822   3.076   6.473  15.383 -0.3658 -0.4092 -0.0093
 5803TIP3   OH238823   5.051   4.498  10.565 -0.4450 -0.4498 -0.4077
 5803TIP3    H138824   4.977   4.474  10.621  0.3497 -0.3274  0.7198
 5803TIP3    H238825   5.083   4.414  10.531  0.5454 -0.8086  1.2624
 5804TIP3   OH238826   3.859   1.977  16.104 -0.0150  0.5933 -0.0263
 5804TIP3    H138827   3.935   1.929  16.072 -0.8278 -0.0420 -1.0817
 5804TIP3    H238828   3.863   2.061  16.059  0.7202  1.0517  0.8633
 5805TIP3   OH238829   5.202   0.839   1.335 -0.6960  0.3599 -0.0570
 5805TIP3    H138830   5.136   0.871   1.274 -1.8175 -1.3469  0.1787
 5805TIP3    H238831   5.281   0.887   1.312 -1.0105 -0.3650 -3.0485
 5806TIP3   OH238832   1.319   6.352  13.790  0.4395  0.2634  0.0381
 5806TIP3    H138833   1.308   6.379  13.699  0.4175  0.1644  0.0117
 5806TIP3    H238834   1.259   6.279  13.801  0.8529 -0.0868 -0.0199
 5807TIP3   OH238835   4.959   4.610   1.683  0.1965 -0.7058  0.3533
 5807TIP3    H138836   4.924   4.535   1.634 -1.0549 -0.6441  1.1141
 5807TIP3    H238837   4.908   4.684   1.652  1.1775 -0.2102 -0.1199
 5808TIP3   OH238838   4.249   4.693  16.361  0.2895 -0.4038  0.3058
 5808TIP3    H138839   4.266   4.670  16.452  2.0472 -0.5428 -0.0125
 5808TIP3    H238840   4.239   4.608  16.317 -0.3248 -0.3443  0.3308
 5809TIP3   OH238841   5.390   1.917   6.478 -0.0556 -0.3419  0.2143
 5809TIP3    H138842   5.395   1.860   6.555  0.6245  0.8324  1.0870
 5809TIP3    H238843   5.409   2.005   6.513 -1.2624  0.4542 -1.0336
 5810TIP3   OH238844   1.063   4.775   6.138  0.2317 -0.0421  0.4253
 5810TIP3    H138845   1.050   4.721   6.060 -0.0944 -0.5870  0.8440
 5810TIP3    H238846   1.153   4.755   6.166 -0.1656 -1.0487  1.0646
 5811TIP3   OH238847   3.222   4.006   0.095  0.3102 -0.6346 -0.5046
 5811TIP3    H138848   3.145   4.061   0.080  0.5684  0.3984  1.6239
 5811TIP3    H238849   3.188   3.918   0.106 -0.4734 -0.3331 -0.4975
 5812TIP3   OH238850   0.389   2.838   4.841  0.1058  0.1350  0.2327
 5812TIP3    H138851   0.478   2.809   4.824 -0.2441 -0.2681 -1.0315
 5812TIP3    H238852   0.341   2.819   4.760 -0.5322  2.8172 -0.1168
 5813TIP3   OH238853   5.187   5.083  13.450  0.1348 -0.4673 -0.3524
 5813TIP3    H138854   5.249   5.034  13.505 -1.2487  0.7402  2.5278
 5813TIP3    H238855   5.241   5.148  13.406  1.1804 -0.5548  0.7350
 5814TIP3   OH238856   5.489   4.062  11.555  0.3202  0.3645  0.3164
 5814TIP3    H138857   5.400   4.087  11.528 -0.4865 -0.9903  1.5879
 5814TIP3    H238858   5.482   4.048  11.649  1.5794 -1.0076  0.2237
 5815TIP3   OH238859   0.427   0.528  14.554  0.5046 -0.0847 -0.1694
 5815TIP3    H138860   0.501   0.567  14.507 -1.0418  0.7072 -2.1022
 5815TIP3    H238861   0.376   0.603  14.585 -0.4398 -0.5746 -0.4949
 5816TIP3   OH238862   0.625   5.859   2.674 -0.0330 -0.6670 -0.4817
 5816TIP3    H138863   0.590   5.810   2.600  0.0780  0.3837 -1.2625
 5816TIP3    H238864   0.632   5.949   2.642 -1.5706  0.1725  1.3423
 5817TIP3   OH238865   2.509   6.661  12.824  0.8123  0.2961  0.5114
 5817TIP3    H138866   2.430   6.607  12.825  0.4458  0.7699 -0.6279
 5817TIP3    H238867   2.579   6.600  12.800  0.6436  0.0383  0.6689
 5818TIP3   OH238868   6.682   4.283  14.025 -0.6775 -0.0792  0.0977
 5818TIP3    H138869   6.683   4.272  13.930 -1.7266 -2.9490  0.3303
 5818TIP3    H238870   6.765   4.246  14.054 -0.9945 -0.5825  0.3813
 5819TIP3   OH238871   5.677   0.198   0.343 -0.4205 -0.2010 -0.6269
 5819TIP3    H138872   5.711   0.116   0.308  0.1716 -0.1653 -0.1409
 5819TIP3    H238873   5.754   0.250   0.364 -0.7697 -0.0730  0.3835
 5820TIP3   OH238874   1.501   4.379   0.381  0.2633  0.3064 -0.6400
 5820TIP3    H138875   1.500   4.340   0.294  0.5271 -2.1553  0.3675
 5820TIP3    H238876   1.592   4.372   0.410  0.1170  0.8085 -0.0279
 5821TIP3   OH238877   6.436   1.578  13.554 -0.5048  0.0203 -0.3292
 5821TIP3    H138878   6.414   1.488  13.576 -1.4439 -0.0013 -1.2678
 5821TIP3    H238879   6.352   1.623  13.547 -0.0316  1.1479  0.7632
 5822TIP3   OH238880   0.925   4.495  10.872 -0.2489 -0.1911 -0.5687
 5822TIP3    H138881   0.985   4.563  10.842 -1.4366  1.3497  0.3896
 5822TIP3    H238882   0.980   4.419  10.886  1.2579  0.7783 -0.9872
 5823TIP3   OH238883   5.320   2.718  16.875 -0.2399 -0.2722 -0.2971
 5823TIP3    H138884   5.227   2.709  16.855  0.0183 -2.8352 -0.6749
 5823TIP3    H238885   5.324   2.788  16.940 -2.5466 -0.6878  0.3819
 5824TIP3   OH238886   4.207   2.942   4.804  0.0217  0.0645  0.4411
 5824TIP3    H138887   4.237   2.903   4.887 -0.9662  0.9085  1.2271
 5824TIP3    H238888   4.222   3.036   4.815 -1.0076  0.2802  0.0472
 5825TIP3   OH238889   4.642   3.550   2.425  0.3755  0.2993  0.1333
 5825TIP3    H138890   4.684   3.474   2.386 -1.4779 -1.5714  1.5636
 5825TIP3    H238891   4.549   3.536   2.411  0.0278  3.3559 -1.2935
 5826TIP3   OH238892   4.898   2.885   3.317  0.5162  0.0140 -0.2225
 5826TIP3    H138893   4.881   2.904   3.225 -0.4612  1.8942  0.2990
 5826TIP3    H238894   4.989   2.855   3.320  0.4383 -0.4687 -1.8240
 5827TIP3   OH238895   4.268   6.385  15.574  0.3545  0.4143 -0.2274
 5827TIP3    H138896   4.242   6.428  15.655  1.3660 -0.6744  0.7077
 5827TIP3    H238897   4.189   6.339  15.545  0.7529 -1.7507  1.8567
 5828TIP3   OH238898   4.064   1.374   0.933 -0.4078 -0.4051 -0.2502
 5828TIP3    H138899   4.127   1.396   1.002 -1.0647  1.7773 -0.2787
 5828TIP3    H238900   4.073   1.280   0.922  3.2792 -0.1594 -0.6450
 5829TIP3   OH238901   3.444   0.178   4.809  0.1347  0.0878  0.0346
 5829TIP3    H138902   3.483   0.090   4.809  1.0341  0.4514 -1.3681
 5829TIP3    H238903   3.364   0.167   4.757  1.3509  0.5032 -2.0178
 5830TIP3   OH238904   2.786   6.774   4.154 -0.4487 -0.1722  0.3399
 5830TIP3    H138905   2.838   6.785   4.234 -0.7727  0.5251  0.4653
 5830TIP3    H238906   2.742   6.859   4.143 -0.4837 -0.3009 -0.5251
 5831TIP3   OH238907   6.430   5.079  12.687  0.0754  0.1672  0.2219
 5831TIP3    H138908   6.494   5.143  12.717 -1.2661  1.3447  0.7050
 5831TIP3    H238909   6.481   5.001  12.667  1.8170  1.5214 -0.8325
 5832TIP3   OH238910   2.728   5.203   4.343  0.2809 -0.5780 -0.3665
 5832TIP3    H138911   2.813   5.211   4.386 -0.4848  0.7726  0.9904
 5832TIP3    H238912   2.744   5.228   4.252  1.5936 -1.7963 -0.5125
 5833TIP3   OH238913   0.592   3.392   5.339 -0.3281 -0.3109 -0.1929
 5833TIP3    H138914   0.507   3.429   5.363  0.1685  1.0787 -0.4874
 5833TIP3    H238915   0.594   3.307   5.383 -0.7343  0.7937  2.1503
 5834TIP3   OH238916   3.046   1.730  10.436 -0.8909  0.0893 -0.0354
 5834TIP3    H138917   3.112   1.795  10.411  0.5657 -1.4012 -0.2344
 5834TIP3    H238918   2.979   1.781  10.482  1.5443  1.3680  2.4021
 5835TIP3   OH238919   6.417   0.357  11.677  0.1697 -0.1221  0.3333
 5835TIP3    H138920   6.502   0.367  11.634  0.7480 -1.9471  0.9725
 5835TIP3    H238921   6.437   0.316  11.762 -1.4986 -3.4317 -0.6808
 5836TIP3   OH238922   1.863   5.987  16.171 -0.2072 -0.3455 -0.6131
 5836TIP3    H138923   1.916   5.920  16.214  2.7789 -0.2858 -3.7415
 5836TIP3    H238924   1.782   5.942  16.145 -0.2506 -1.4250  1.2495
 5837TIP3   OH238925   2.282   0.830   3.035  0.2874  0.0442  0.1485
 5837TIP3    H138926   2.231   0.864   3.108 -1.7272 -1.1544 -0.6305
 5837TIP3    H238927   2.217   0.799   2.972  1.8833 -3.6409  0.0384
 5838TIP3   OH238928   2.778   1.205  15.472  0.0388 -0.0718 -0.2470
 5838TIP3    H138929   2.819   1.284  15.507  1.8848 -1.7239  1.6466
 5838TIP3    H238930   2.787   1.212  15.377  0.0309  2.0103 -0.1208
 5839TIP3   OH238931   5.921   6.243  12.150 -0.5317  0.3708 -0.0538
 5839TIP3    H138932   5.904   6.225  12.242  0.8917 -0.7832  0.0246
 5839TIP3    H238933   5.922   6.339  12.143  1.9327  0.5421  1.6848
 5840TIP3   OH238934   2.445   4.412  12.714  0.6231 -0.5722 -0.3489
 5840TIP3    H138935   2.447   4.459  12.797  1.9796  1.0120 -1.2219
 5840TIP3    H238936   2.354   4.421  12.684  0.9663  2.2828 -0.8358
 5841TIP3   OH238937   3.067   5.925   4.539 -0.1953  0.1978 -0.2208
 5841TIP3    H138938   3.121   5.995   4.576 -1.9366  1.2761  0.3986
 5841TIP3    H238939   3.063   5.859   4.609 -0.0045  0.3031 -0.1093
 5842TIP3   OH238940   1.434   2.083  14.279  0.9358  0.0377 -0.1415
 5842TIP3    H138941   1.368   2.082  14.348  0.1082  0.1976 -0.9087
 5842TIP3    H238942   1.390   2.124  14.205  1.3999 -1.2502 -1.1624
 5843TIP3   OH238943   2.329   3.892  11.686 -0.6180  0.2646 -0.7690
 5843TIP3    H138944   2.352   3.825  11.751  2.5298  1.0464 -0.8856
 5843TIP3    H238945   2.291   3.963  11.738 -0.4702 -0.1216 -0.1178
 5844TIP3   OH238946   0.440   4.268   3.188 -0.4876  0.2594 -0.2792
 5844TIP3    H138947   0.345   4.265   3.200 -0.4702 -0.2892 -0.2407
 5844TIP3    H238948   0.452   4.323   3.111 -0.7608  1.3936  0.4682
 5845TIP3   OH238949   2.777   5.524  15.156  0.2203  0.6168 -0.0176
 5845TIP3    H138950   2.753   5.464  15.086  3.5795  0.0458 -0.8756
 5845TIP3    H238951   2.695   5.564  15.183 -2.4200 -4.5317  0.9008
 5846TIP3   OH238952   0.221   1.658   1.804 -0.0211  0.1678  0.6827
 5846TIP3    H138953   0.241   1.697   1.719 -0.5325  1.3232  1.0695
 5846TIP3    H238954   0.160   1.587   1.785  2.6729 -2.1023 -0.3032
 5847TIP3   OH238955   5.611   0.767  11.386  0.1832 -0.0685  0.4283
 5847TIP3    H138956   5.680   0.817  11.429  0.6033  0.7896 -1.1402
 5847TIP3    H238957   5.635   0.769  11.293 -3.2160  2.5053 -0.6151
 5848TIP3   OH238958   0.960   6.085   0.452 -0.2637  0.4661 -0.0928
 5848TIP3    H138959   0.874   6.095   0.492  0.1320 -2.0920  1.6564
 5848TIP3    H238960   1.020   6.077   0.527  1.4735  1.6774 -1.2652
 5849TIP3   OH238961   6.576   3.070   0.987 -0.5539  0.1328 -0.8152
 5849TIP3    H138962   6.580   3.156   1.028 -0.2094 -0.0178 -0.5299
 5849TIP3    H238963   6.595   3.085   0.895  0.6025  0.2176 -0.5708
 5850TIP3   OH238964   2.818   2.948   5.834 -0.2130  0.4614  0.4807
 5850TIP3    H138965   2.732   2.966   5.796  0.1288  1.1293  0.0160
 5850TIP3    H238966   2.801   2.937   5.927 -1.2806 -2.5495  0.0645
 5851TIP3   OH238967   6.267   3.419   1.902  0.5119  0.2974  0.1153
 5851TIP3    H138968   6.216   3.446   1.978 -1.9361  0.5988 -1.5182
 5851TIP3    H238969   6.255   3.324   1.898  0.2316  0.3402 -0.1365
 5852TIP3   OH238970   1.535   3.781   1.513  0.2563 -0.0230  0.1803
 5852TIP3    H138971   1.478   3.852   1.542 -1.0696 -1.1061  0.3145
 5852TIP3    H238972   1.588   3.759   1.590 -1.6623 -1.3717  1.1836
 5853TIP3   OH238973   0.627   0.117  11.316 -0.0197 -0.2670  0.3921
 5853TIP3    H138974   0.541   0.074  11.313  0.1382 -0.5462 -0.6147
 5853TIP3    H238975   0.645   0.127  11.409 -1.2651  0.0468  0.6239
 5854TIP3   OH238976   0.605   4.207  16.287  0.3361 -0.3191 -0.3649
 5854TIP3    H138977   0.611   4.130  16.230 -1.1888  0.7547 -2.0968
 5854TIP3    H238978   0.512   4.215  16.306  0.1411  2.1934 -1.9347
 5855TIP3   OH238979   6.606   3.457  16.631 -0.3749  0.4929 -0.1737
 5855TIP3    H138980   6.606   3.513  16.553 -1.6291 -1.3708 -1.6139
 5855TIP3    H238981   6.548   3.502  16.693  0.9917  2.2283 -0.0946
 5856TIP3   OH238982   4.121   6.578  10.563 -0.5326  0.4791 -0.0495
 5856TIP3    H138983   4.161   6.634  10.498  2.4076  1.8962  2.6928
 5856TIP3    H238984   4.151   6.490  10.541 -2.1787  0.3907 -2.2657
 5857TIP3   OH238985   3.158   3.250  12.403 -0.5224 -0.0395 -0.1743
 5857TIP3    H138986   3.244   3.288  12.422 -0.2749 -0.7132  0.0954
 5857TIP3    H238987   3.171   3.156  12.416 -1.2159 -0.1773 -0.4661
 5858TIP3   OH238988   6.097   0.802  14.122  0.5329 -0.7566 -0.7113
 5858TIP3    H138989   6.073   0.852  14.200  0.1341 -0.9018 -0.7428
 5858TIP3    H238990   6.072   0.858  14.049  0.2948 -0.9047 -0.7434
 5859TIP3   OH238991   5.079   4.817  11.681 -0.1167  0.5994 -0.1793
 5859TIP3    H138992   5.174   4.816  11.671  0.1306  1.3783  1.6889
 5859TIP3    H238993   5.065   4.815  11.775 -1.9806  0.0282 -0.4345
 5860TIP3   OH238994   6.407   3.332  15.740  0.0312  0.1522  0.3034
 5860TIP3    H138995   6.355   3.289  15.673  1.1903  2.3396 -2.1396
 5860TIP3    H238996   6.344   3.386  15.789 -0.3590  1.1855 -1.2834
 5861TIP3   OH238997   2.758   0.574   0.467  0.5782 -0.0244 -0.2615
 5861TIP3    H138998   2.800   0.494   0.434  0.0259  0.2001 -1.6074
 5861TIP3    H238999   2.792   0.643   0.410 -1.4450  0.1820 -1.3351
 5862TIP3   OH239000   4.412   2.289   2.329 -0.0391 -0.5449  0.3872
 5862TIP3    H139001   4.484   2.321   2.275  1.1533 -2.1858  0.9415
 5862TIP3    H239002   4.350   2.362   2.332  0.8896  0.3792 -1.3296
 5863TIP3   OH239003   1.066   1.411  15.446 -0.4609  0.1757  0.1894
 5863TIP3    H139004   1.027   1.325  15.465 -0.3441  0.1691  0.4057
 5863TIP3    H239005   1.077   1.451  15.533 -0.6842  0.4826  0.0755
 5864TIP3   OH239006   0.050   6.025   4.183 -0.2058  0.0783 -0.4454
 5864TIP3    H139007   0.037   5.935   4.213 -2.2082  0.3052 -0.5013
 5864TIP3    H239008   0.113   6.063   4.245 -0.9120 -0.7489  0.8079
 5865TIP3   OH239009   5.120   2.605  12.102 -0.1430  0.3193 -0.2709
 5865TIP3    H139010   5.116   2.628  12.195 -0.4064  1.1584 -0.4816
 5865TIP3    H239011   5.128   2.689  12.057 -0.7525 -0.0274 -1.0472
 5866TIP3   OH239012   5.489   1.175   2.826  0.0678 -0.1930  0.4250
 5866TIP3    H139013   5.560   1.157   2.765 -1.5403 -0.6313 -1.4198
 5866TIP3    H239014   5.471   1.091   2.867  2.7917  0.5527  3.5435
 5867TIP3   OH239015   1.469   6.447  17.091 -0.4140  0.1180  0.2794
 5867TIP3    H139016   1.520   6.373  17.124 -0.8941  0.5199  2.0144
 5867TIP3    H239017   1.518   6.524  17.119 -1.9604  0.5165  2.0958
 5868TIP3   OH239018   3.703   4.248   4.287 -0.5988  0.3159  0.2667
 5868TIP3    H139019   3.775   4.221   4.230 -1.0963 -0.3044 -0.0890
 5868TIP3    H239020   3.745   4.285   4.364  0.1234  3.3727 -1.4491
 5869TIP3   OH239021   5.490   5.879  16.189 -0.2793  0.0925  0.6675
 5869TIP3    H139022   5.400   5.896  16.217  0.3470  1.2999  2.1134
 5869TIP3    H239023   5.544   5.905  16.264  1.3800  0.9149 -0.7409
 5870TIP3   OH239024   4.728   2.488  11.856  0.0469  0.4352  0.1003
 5870TIP3    H139025   4.685   2.522  11.935 -1.2400  0.1858 -0.4731
 5870TIP3    H239026   4.758   2.401  11.881 -0.4599  0.3100  0.2883
 5871TIP3   OH239027   1.876   2.487  14.939 -0.4979  0.0106 -0.1843
 5871TIP3    H139028   1.901   2.515  15.027 -1.7795 -0.3217  0.3047
 5871TIP3    H239029   1.781   2.496  14.937 -0.5981 -1.0532 -1.1646
 5872TIP3   OH239030   2.080   1.023   1.338  0.0401  0.0784  0.3858
 5872TIP3    H139031   2.147   1.025   1.407 -1.3659  2.8436  1.8547
 5872TIP3    H239032   2.080   1.112   1.303 -1.6478 -0.3512 -0.8223
 5873TIP3   OH239033   0.920   1.465  14.054  0.1183  0.1765 -0.3216
 5873TIP3    H139034   0.871   1.437  14.132 -1.0134  0.6953 -0.8279
 5873TIP3    H239035   1.007   1.426  14.066 -0.5510 -1.1973  0.3648
 5874TIP3   OH239036   0.329   4.732  16.950  0.1440  0.1301 -0.3418
 5874TIP3    H139037   0.327   4.745  17.045  0.0530  0.4281 -0.3830
 5874TIP3    H239038   0.309   4.818  16.914  1.3016  0.2892 -0.6503
 5875TIP3   OH239039   6.074   0.415   1.191  0.2165 -0.3843  0.2260
 5875TIP3    H139040   6.005   0.432   1.256 -0.5917  0.9586 -0.9344
 5875TIP3    H239041   6.067   0.487   1.129  2.5826 -0.2945 -0.0304
 5876TIP3   OH239042   3.942   4.154  14.339  0.0297  0.4672 -0.1323
 5876TIP3    H139043   3.961   4.246  14.319 -1.2956  0.8339  0.2102
 5876TIP3    H239044   3.930   4.151  14.434 -1.1927  0.2186 -0.2677
 5877TIP3   OH239045   4.030   5.131  16.366 -0.3347  0.6055 -0.0340
 5877TIP3    H139046   4.083   5.053  16.347  1.9473  2.0521  0.0076
 5877TIP3    H239047   3.953   5.122  16.310 -1.3289 -2.7600  1.6058
 5878TIP3   OH239048   3.283   0.749  11.562 -0.7809 -0.1602 -0.3504
 5878TIP3    H139049   3.356   0.734  11.622 -0.8178 -0.1767 -0.3100
 5878TIP3    H239050   3.269   0.665  11.519 -0.7123 -0.1313 -0.4299
 5879TIP3   OH239051   3.532   1.090   1.159 -0.4309  0.5662  0.7611
 5879TIP3    H139052   3.454   1.137   1.131  0.1704  0.4408 -1.2637
 5879TIP3    H239053   3.604   1.151   1.146  0.0860 -0.1137  0.3572
 5880TIP3   OH239054   4.605   4.221  14.312 -0.0908  0.0645 -0.3127
 5880TIP3    H139055   4.649   4.241  14.394 -0.2384 -0.6040 -0.0646
 5880TIP3    H239056   4.623   4.128  14.297 -1.8967 -0.3968  0.1079
 5881TIP3   OH239057   6.377   1.732   2.597 -0.0378  0.6966 -0.0589
 5881TIP3    H139058   6.429   1.685   2.662  0.4686  2.4468  0.8745
 5881TIP3    H239059   6.442   1.763   2.533 -0.5229 -0.9481 -1.4117
 5882TIP3   OH239060   2.932   3.602  13.700 -0.0834 -0.1209 -0.3319
 5882TIP3    H139061   2.998   3.670  13.685  0.4158 -1.0868 -3.2012
 5882TIP3    H239062   2.849   3.647  13.683 -0.0623  0.6224  1.3800
 5883TIP3   OH239063   3.818   0.298   2.870  0.4790 -0.9316  0.5188
 5883TIP3    H139064   3.757   0.280   2.942 -0.6154  3.2971  0.8939
 5883TIP3    H239065   3.895   0.334   2.914  0.0010  1.2117 -0.2783
 5884TIP3   OH239066   0.992   4.875   1.367  0.3072  0.0447 -0.2252
 5884TIP3    H139067   0.988   4.920   1.452  0.5658 -0.6005  0.1365
 5884TIP3    H239068   1.083   4.850   1.358  0.0483 -0.9931 -0.1038
 5885TIP3   OH239069   4.218   6.039  12.455 -0.8554  0.2185 -0.5494
 5885TIP3    H139070   4.181   6.123  12.429  0.1315  0.7790 -0.2002
 5885TIP3    H239071   4.281   6.060  12.524 -1.3345 -0.9210  0.2808
 5886TIP3   OH239072   6.415   5.015   1.196 -0.3988  0.3989 -0.0116
 5886TIP3    H139073   6.506   4.997   1.220 -0.6205 -1.4532 -0.3898
 5886TIP3    H239074   6.419   5.045   1.105 -0.2655 -1.6226 -0.7335
 5887TIP3   OH239075   3.336   2.933   5.137  0.7078 -0.3144 -0.1042
 5887TIP3    H139076   3.410   2.942   5.197  2.1258 -0.1950 -1.8221
 5887TIP3    H239077   3.323   2.839   5.129  0.1452 -0.3316  0.7647
 5888TIP3   OH239078   2.612   3.357   4.396  0.4981  0.0056 -0.9051
 5888TIP3    H139079   2.630   3.447   4.421  0.5505 -0.3419  0.3688
 5888TIP3    H239080   2.660   3.344   4.314  2.6215  0.3640  0.2246
 5889TIP3   OH239081   5.972   5.093   4.241 -0.5294 -0.2902 -0.1571
 5889TIP3    H139082   5.990   5.000   4.256  1.9219  0.3126  1.2808
 5889TIP3    H239083   5.903   5.115   4.302 -0.8605 -1.0793 -0.2412
 5890TIP3   OH239084   4.456   5.743  12.835  0.1906 -0.9217 -0.0089
 5890TIP3    H139085   4.416   5.760  12.921  0.3896  1.2091 -0.2857
 5890TIP3    H239086   4.394   5.685  12.791  0.0370 -1.9964  1.5139
 5891TIP3   OH239087   0.917   4.861   6.376 -0.0226 -0.3035  0.4443
 5891TIP3    H139088   0.966   4.824   6.303 -0.7108  0.8766 -0.6610
 5891TIP3    H239089   0.878   4.786   6.420 -0.1012 -0.9981 -0.7778
 5892TIP3   OH239090   5.883   3.866   4.111  0.1478  0.0174  0.1538
 5892TIP3    H139091   5.795   3.844   4.079  0.9273  0.0066 -2.1195
 5892TIP3    H239092   5.867   3.911   4.194 -2.3963  4.0147 -2.1518
 5893TIP3   OH239093   3.782   0.009  16.733 -0.7988  0.1458  0.1825
 5893TIP3    H139094   3.778   0.047  16.645  1.2346 -1.0113 -0.4627
 5893TIP3    H239095   3.740  -0.076  16.725  1.3185 -0.9193 -0.2797
 5894TIP3   OH239096   6.688   4.555  14.481  0.1078 -0.2163 -0.3935
 5894TIP3    H139097   6.600   4.553  14.444 -0.5508  0.0953  1.0933
 5894TIP3    H239098   6.714   4.463  14.487  0.1928 -0.2766 -1.5109
 5895TIP3   OH239099   1.259   5.119   3.499 -0.4348 -0.1528 -0.0029
 5895TIP3    H139100   1.342   5.086   3.531 -0.3929  0.0894  0.1434
 5895TIP3    H239101   1.277   5.149   3.410 -0.7048 -1.4397 -0.5120
 5896TIP3   OH239102   1.169   3.615  16.219 -0.4013 -0.5447  0.7421
 5896TIP3    H139103   1.135   3.528  16.199  1.5949 -0.9548 -1.2901
 5896TIP3    H239104   1.096   3.661  16.260 -2.1065 -2.5334  0.0949
 5897TIP3   OH239105   0.166   2.237   1.225 -0.7193 -0.0703 -0.4274
 5897TIP3    H139106   0.122   2.322   1.220  1.3312  1.1327  0.4275
 5897TIP3    H239107   0.258   2.259   1.243 -0.5440 -2.5224  2.4939
 5898TIP3   OH239108   5.966   2.641  14.068  0.8548  0.5073 -0.0927
 5898TIP3    H139109   5.936   2.550  14.068  1.2911  0.3569  0.4446
 5898TIP3    H239110   6.027   2.646  13.995  0.4593  0.5018 -0.4308
 5899TIP3   OH239111   0.548   1.030  12.050  1.0822 -0.0782 -0.4782
 5899TIP3    H139112   0.612   0.966  12.083  1.0081  0.6241  1.1215
 5899TIP3    H239113   0.474   1.023  12.111  0.7084  0.9130 -0.8045
 5900TIP3   OH239114   5.186   3.887  11.543 -0.3819  0.2128  0.0947
 5900TIP3    H139115   5.136   3.855  11.468  0.1321  2.6075 -1.3845
 5900TIP3    H239116   5.138   3.965  11.571  0.5299  0.4687  0.9875
 5901TIP3   OH239117   1.356   2.339  16.349  0.1127  0.1255  0.0082
 5901TIP3    H139118   1.342   2.317  16.442 -1.9910 -0.4509 -0.4034
 5901TIP3    H239119   1.310   2.422  16.337  0.0737  0.0168 -0.6098
 5902TIP3   OH239120   3.435   1.500  12.235 -0.0288  0.2560 -0.2382
 5902TIP3    H139121   3.382   1.577  12.256  0.6306  0.7373 -0.3107
 5902TIP3    H239122   3.523   1.524  12.262 -0.0684 -1.0608  1.1961
 5903TIP3   OH239123   0.431   3.258  11.176  0.0907  0.3198  0.1577
 5903TIP3    H139124   0.400   3.177  11.135 -0.1527 -0.8449  2.5103
 5903TIP3    H239125   0.482   3.229  11.251 -0.2451  2.3659  1.2333
 5904TIP3   OH239126   6.169   6.344  15.774  0.7909 -0.4880 -0.4769
 5904TIP3    H139127   6.222   6.386  15.842  1.3012 -0.8444 -0.6479
 5904TIP3    H239128   6.125   6.417  15.730  0.8075 -0.2217 -0.0601
 5905TIP3   OH239129   5.767   1.842   4.547  0.1965 -0.6656 -1.0457
 5905TIP3    H139130   5.833   1.896   4.590  0.3937 -0.5661 -1.4657
 5905TIP3    H239131   5.685   1.890   4.559 -0.0747 -1.4857  0.7303
 5906TIP3   OH239132   6.759   2.782   3.186  0.3229  0.1049 -0.1357
 5906TIP3    H139133   6.726   2.743   3.106  1.6019 -2.2767  0.3854
 5906TIP3    H239134   6.681   2.803   3.238 -0.4445 -0.6698 -0.9624
 5907TIP3   OH239135   3.590   2.120  14.656 -0.1459  0.5000 -0.0699
 5907TIP3    H139136   3.599   2.100  14.563 -1.9007 -0.3339 -0.1180
 5907TIP3    H239137   3.613   2.212  14.664 -2.4244  1.3062 -1.8074
 5908TIP3   OH239138   2.525   2.916   4.105 -0.1372  0.2063  0.2743
 5908TIP3    H139139   2.596   2.935   4.166 -0.5916  0.1065  0.8479
 5908TIP3    H239140   2.563   2.928   4.018  1.1144 -1.7263  0.5043
 5909TIP3   OH239141   0.238   0.239   0.917  0.3313 -0.2296 -0.7600
 5909TIP3    H139142   0.165   0.239   0.855  0.8963 -1.2783 -1.4584
 5909TIP3    H239143   0.310   0.198   0.870  1.1376  0.0318  0.1975
 5910TIP3   OH239144   1.287   1.289   2.573 -0.0517  0.3354 -0.3514
 5910TIP3    H139145   1.327   1.285   2.660  1.1166 -0.5060 -0.8895
 5910TIP3    H239146   1.216   1.225   2.577 -0.2121  0.5371  0.0854
 5911TIP3   OH239147   6.101   6.090  14.755 -0.2281 -0.1422  0.2015
 5911TIP3    H139148   6.080   5.999  14.738 -1.1756  0.4630 -2.2696
 5911TIP3    H239149   6.191   6.101  14.723  0.6707 -0.5916  2.3504
 5912TIP3   OH239150   0.287   0.957   3.157  0.6067 -0.7509 -0.4199
 5912TIP3    H139151   0.208   1.001   3.126  0.5443 -1.0233 -0.6484
 5912TIP3    H239152   0.337   1.026   3.200 -0.0703 -0.7120  0.3301
 5913TIP3   OH239153   1.779   2.144   5.171  0.6880 -0.1487 -0.3131
 5913TIP3    H139154   1.704   2.159   5.229 -0.1629  0.4832 -1.5290
 5913TIP3    H239155   1.752   2.181   5.088  2.5433  0.4845 -0.6670
 5914TIP3   OH239156   0.262   5.047  15.586  0.1919 -0.4967  0.2829
 5914TIP3    H139157   0.173   5.043  15.552  0.2582  1.1655 -0.1260
 5914TIP3    H239158   0.317   5.011  15.516  0.2866  2.5327 -1.3661
 5915TIP3   OH239159   5.605   3.439   5.327  0.3397  0.0659  0.2902
 5915TIP3    H139160   5.633   3.421   5.417 -0.0279 -0.6766  0.2656
 5915TIP3    H239161   5.670   3.501   5.293  2.4331 -2.1377 -0.0122
 5916TIP3   OH239162   3.772   3.781   2.971  0.1207  0.0355 -0.0051
 5916TIP3    H139163   3.823   3.817   3.043 -1.1970 -1.2965  1.6725
 5916TIP3    H239164   3.700   3.842   2.959  0.3491  0.2658 -0.2124
 5917TIP3   OH239165   1.785   6.437   5.053  0.1273  0.4766 -0.3301
 5917TIP3    H139166   1.818   6.456   5.141  1.0804  0.2257 -0.6216
 5917TIP3    H239167   1.799   6.519   5.005  1.5638 -0.0147 -0.8031
 5918TIP3   OH239168   6.466   6.721   6.115 -0.3082 -0.2995 -0.3429
 5918TIP3    H139169   6.471   6.773   6.195  0.5063  0.2591 -0.7304
 5918TIP3    H239170   6.543   6.665   6.118 -1.3949 -1.8291  0.2671
 5919TIP3   OH239171   6.059   3.817  16.017  0.0709  0.1945 -0.2169
 5919TIP3    H139172   6.109   3.838  16.096 -0.3080 -1.7995  0.6298
 5919TIP3    H239173   6.124   3.821  15.946  0.7872  0.4245  0.4371
 5920TIP3   OH239174   3.085   2.471  11.458 -0.4321  0.4034 -0.5972
 5920TIP3    H139175   3.049   2.447  11.373  0.8790 -1.1405 -0.7771
 5920TIP3    H239176   3.029   2.425  11.521 -1.3828  1.5204 -0.5956
 5921TIP3   OH239177   2.581   1.432  11.479 -0.0054 -0.8893 -0.4079
 5921TIP3    H139178   2.491   1.407  11.461  0.5696 -1.9882 -2.0100
 5921TIP3    H239179   2.578   1.528  11.488 -1.1804 -0.8148 -1.3510
 5922TIP3   OH239180   4.573   6.325   0.222  0.9223 -0.3263  0.5752
 5922TIP3    H139181   4.553   6.390   0.154 -0.8861 -0.3311  1.0337
 5922TIP3    H239182   4.660   6.292   0.199 -0.1048 -1.2922 -2.5280
 5923TIP3   OH239183   5.356   6.554   2.462 -0.3133  0.7008 -0.3106
 5923TIP3    H139184   5.437   6.518   2.496 -1.0778 -0.1330  0.6982
 5923TIP3    H239185   5.382   6.605   2.386  1.0948  0.0737 -0.2727
 5924TIP3   OH239186   6.490   0.489  14.454  0.4073  0.2649  0.3961
 5924TIP3    H139187   6.513   0.443  14.373 -1.1601  0.6269 -0.2880
 5924TIP3    H239188   6.515   0.429  14.524  1.7263 -0.0845 -0.3358
 5925TIP3   OH239189   6.158   0.281  13.045 -0.0838  0.3530  0.1042
 5925TIP3    H139190   6.096   0.307  13.113  0.3743 -0.7414  0.9715
 5925TIP3    H239191   6.172   0.187  13.058 -0.2429  0.0229 -1.7294
 5926TIP3   OH239192   3.161   3.601  13.440 -0.7123  0.3162 -0.0569
 5926TIP3    H139193   3.186   3.600  13.533  2.3091 -0.2320 -0.7955
 5926TIP3    H239194   3.129   3.512  13.423  2.1045 -0.7246 -0.3030
 5927TIP3   OH239195   1.683   2.554   6.290 -0.5409 -0.1197 -0.2499
 5927TIP3    H139196   1.698   2.577   6.382  0.6455  0.9254 -0.6756
 5927TIP3    H239197   1.589   2.541   6.284 -0.7114  0.3840  0.9917
 5928TIP3   OH239198   3.854   3.631   6.675 -0.2106  0.2572 -0.4109
 5928TIP3    H139199   3.783   3.654   6.615 -1.3923 -0.5223  0.6333
 5928TIP3    H239200   3.827   3.546   6.712  0.9900  0.2174  0.4220
 5929TIP3   OH239201   6.079   4.542  11.053 -0.0389  0.3617  0.5602
 5929TIP3    H139202   6.172   4.560  11.067  0.3360 -1.2757  0.3595
 5929TIP3    H239203   6.073   4.517  10.961 -0.4932 -0.5925  0.8420
 5930TIP3   OH239204   5.775   6.748   6.543 -0.2015 -0.4619 -0.1483
 5930TIP3    H139205   5.747   6.748   6.452 -0.4295  1.6327 -0.1440
 5930TIP3    H239206   5.701   6.711   6.592 -0.6994 -0.1979 -0.6890
 5931TIP3   OH239207   6.214   6.193   4.895  0.3738  0.4282 -0.1906
 5931TIP3    H139208   6.194   6.215   4.803  1.9379 -0.3311 -0.7458
 5931TIP3    H239209   6.308   6.176   4.895  0.0144 -1.8225  1.1010
 5932TIP3   OH239210   1.917   5.789   1.036 -0.0459 -0.2636  0.5772
 5932TIP3    H139211   1.832   5.826   1.058  0.0729 -0.4433  1.3928
 5932TIP3    H239212   1.979   5.839   1.089  0.1007 -1.6961  1.8461
 5933TIP3   OH239213   2.242   6.686   4.300  0.4508 -0.4518 -0.4398
 5933TIP3    H139214   2.147   6.695   4.310  0.6102 -1.1347  3.9997
 5933TIP3    H239215   2.272   6.774   4.275 -1.2550 -0.0808 -1.3037
 5934TIP3   OH239216   1.934   4.463   2.079  0.0764  0.3293 -0.0443
 5934TIP3    H139217   1.896   4.384   2.042 -0.3085  0.3732  0.2447
 5934TIP3    H239218   1.965   4.437   2.166 -0.3299  0.5687  0.1729
 5935TIP3   OH239219   5.513   3.093  14.493  1.1321  0.3894 -0.3289
 5935TIP3    H139220   5.591   3.148  14.500  1.2149  0.2677 -0.2921
 5935TIP3    H239221   5.446   3.140  14.543  0.7747  1.2125 -1.5317
 5936TIP3   OH239222   6.615   1.090   0.608  0.2100 -0.7835  0.1303
 5936TIP3    H139223   6.531   1.115   0.647  0.6019 -0.6084  0.8751
 5936TIP3    H239224   6.654   1.173   0.581  0.2843 -0.8328  0.0851
 5937TIP3   OH239225   2.144   6.481   4.072 -0.3829 -0.1231  0.6527
 5937TIP3    H139226   2.164   6.390   4.050 -0.6499  0.0196 -0.2224
 5937TIP3    H239227   2.215   6.507   4.131 -0.2876 -0.8820  0.8885
 5938TIP3   OH239228   1.845   2.835   1.458 -0.0580  0.4208 -0.7121
 5938TIP3    H139229   1.917   2.772   1.461 -1.3367 -1.0717  1.2689
 5938TIP3    H239230   1.888   2.919   1.443  2.0188 -0.5017 -0.3679
 5939TIP3   OH239231   5.012   6.633  15.475 -0.4226 -0.6786  0.3231
 5939TIP3    H139232   4.945   6.673  15.421 -1.0809 -0.2529  1.4115
 5939TIP3    H239233   5.080   6.604  15.414 -1.5126 -0.9639 -0.7769
 5940TIP3   OH239234   3.883   5.418   5.323 -0.1360 -0.2446  0.0260
 5940TIP3    H139235   3.846   5.354   5.384  0.3758 -1.2810 -0.7151
 5940TIP3    H239236   3.966   5.380   5.295 -0.3973  0.1472 -1.3841
 5941TIP3   OH239237   4.832   1.930   2.987 -0.3573  0.5750 -0.5504
 5941TIP3    H139238   4.869   1.891   3.067 -2.5567 -1.9611 -0.6226
 5941TIP3    H239239   4.775   2.000   3.018 -1.0628 -0.2761  0.1186
 5942TIP3   OH239240   5.015   0.862   3.190  0.2065 -0.3973  0.0508
 5942TIP3    H139241   4.959   0.849   3.267  1.0665  0.3245  0.8134
 5942TIP3    H239242   5.101   0.831   3.217  0.6751  0.4840 -0.4000
 5943TIP3   OH239243   1.389   4.174   3.028  0.2800 -0.0623 -0.2067
 5943TIP3    H139244   1.305   4.163   3.071 -0.0320  0.2346 -0.7270
 5943TIP3    H239245   1.415   4.264   3.048 -0.0296  0.1885 -0.9111
 5944TIP3   OH239246   5.480   2.350  13.702  0.0197  0.0916 -0.2616
 5944TIP3    H139247   5.556   2.374  13.754 -0.8627 -0.0571  1.1289
 5944TIP3    H239248   5.463   2.259  13.724  0.0724 -0.2129 -1.3994
 5945TIP3   OH239249   3.063   4.791  15.618 -0.7354  0.0463  0.2923
 5945TIP3    H139250   3.067   4.839  15.536 -2.3584  1.7887  1.1487
 5945TIP3    H239251   3.051   4.700  15.592  1.6781  0.1323 -1.3838
 5946TIP3   OH239252   6.595   2.986  13.614 -0.3443 -0.8017  0.1647
 5946TIP3    H139253   6.545   2.995  13.696  0.2555 -1.7920  0.6569
 5946TIP3    H239254   6.677   2.943  13.641  0.3257 -0.1412 -0.7931
 5947TIP3   OH239255   3.770   5.381  15.563  0.2015  0.2536 -0.3297
 5947TIP3    H139256   3.809   5.348  15.644 -1.2220  1.6505  0.9894
 5947TIP3    H239257   3.692   5.327  15.551 -0.3520  0.9648  0.0249
 5948TIP3   OH239258   1.451   4.339  14.132 -0.2385  0.1700 -0.2646
 5948TIP3    H139259   1.439   4.247  14.155 -2.1358  0.4412  0.0135
 5948TIP3    H239260   1.441   4.385  14.215 -0.1668  0.6834 -0.5407
 5949TIP3   OH239261   2.695   2.330   5.803  0.0951 -0.2140 -0.0187
 5949TIP3    H139262   2.705   2.324   5.708  0.3926 -0.5358  0.0309
 5949TIP3    H239263   2.676   2.422   5.820 -1.0798 -0.3496 -0.4973
 5950TIP3   OH239264   4.474   1.805   0.104 -0.1676 -0.1116  0.2330
 5950TIP3    H139265   4.442   1.790   0.193 -0.4647 -1.6438 -0.1005
 5950TIP3    H239266   4.400   1.844   0.058  0.0468  0.8651  0.6856
 5951TIP3   OH239267   2.826   5.794   0.979 -0.5615  0.2301  0.6420
 5951TIP3    H139268   2.787   5.856   1.040 -1.7654  0.0268  0.1167
 5951TIP3    H239269   2.799   5.708   1.011  0.9653 -0.0368  1.2773
 5952TIP3   OH239270   5.543   1.046  15.768  0.0984  0.1982 -0.5767
 5952TIP3    H139271   5.498   1.125  15.737 -2.6782  0.1499  2.7012
 5952TIP3    H239272   5.596   1.076  15.842  0.1202 -0.7962 -0.1754
 5953TIP3   OH239273   5.777   6.273  15.458 -0.1803 -0.2173  0.0379
 5953TIP3    H139274   5.787   6.206  15.391 -1.0009 -0.6735  0.3486
 5953TIP3    H239275   5.719   6.338  15.418  0.2093  0.0616 -0.0815
 5954TIP3   OH239276   6.090   0.508   0.609  0.7301 -0.2972 -0.4835
 5954TIP3    H139277   6.009   0.461   0.631 -0.7525 -0.2829 -4.9374
 5954TIP3    H239278   6.149   0.440   0.576  1.5595  0.0426  0.2655
 5955TIP3   OH239279   4.267   3.373   0.346  0.4338  0.0665 -0.1591
 5955TIP3    H139280   4.266   3.373   0.251  1.1705  0.7466 -0.1795
 5955TIP3    H239281   4.281   3.464   0.370  0.0338 -0.0662  0.6083
 5956TIP3   OH239282   2.972   3.447   4.914  0.6856 -0.1429  0.5399
 5956TIP3    H139283   2.909   3.518   4.929  1.8536  1.2030 -0.6018
 5956TIP3    H239284   3.057   3.489   4.920  1.4644 -1.7334  1.0624
 5957TIP3   OH239285   0.008   1.399  13.965  0.2585  0.1161 -0.2832
 5957TIP3    H139286   0.015   1.485  14.007 -2.3293 -0.1925  0.9518
 5957TIP3    H239287   0.074   1.346  14.009 -0.7593  0.4555  1.7802
 5958TIP3   OH239288   3.920   2.127  17.123  0.5030 -0.4423  0.1096
 5958TIP3    H139289   3.920   2.087  17.210  0.5176 -0.5367  0.0663
 5958TIP3    H239290   3.962   2.062  17.067  1.2297 -0.0413  0.1867
 5959TIP3   OH239291   3.929   6.104   1.420 -0.4103  0.1856  0.5910
 5959TIP3    H139292   3.882   6.036   1.371 -0.0984 -0.8465  1.6732
 5959TIP3    H239293   3.861   6.156   1.461 -0.6547  0.6139 -0.3297
 5960TIP3   OH239294   6.184   5.971   0.781  0.1776  0.2720  0.9463
 5960TIP3    H139295   6.145   5.906   0.839 -0.2793 -0.6618 -0.3499
 5960TIP3    H239296   6.111   6.026   0.753  0.8012  2.5643  3.4025
 5961TIP3   OH239297   0.547   0.986   5.193 -0.3261 -0.2864  0.0840
 5961TIP3    H139298   0.455   0.980   5.218 -0.8825 -1.1314 -1.9725
 5961TIP3    H239299   0.584   0.901   5.216 -0.7332 -0.9064 -1.4512
 5962TIP3   OH239300   5.179   6.703   5.012  0.5185 -0.2502  0.6123
 5962TIP3    H139301   5.270   6.733   5.020  0.7778 -0.8365 -0.0026
 5962TIP3    H239302   5.137   6.769   4.957  0.6106 -0.0516  0.7792
 5963TIP3   OH239303   6.204   1.299   3.544 -0.1303 -0.1899  0.0978
 5963TIP3    H139304   6.189   1.372   3.484 -0.6109 -0.3593  0.0102
 5963TIP3    H239305   6.297   1.279   3.534 -0.0723  0.1890 -0.1315
 5964TIP3   OH239306   1.639   4.306  14.774  0.2216  0.4607 -0.2481
 5964TIP3    H139307   1.679   4.389  14.800 -0.1019  0.8551 -0.9950
 5964TIP3    H239308   1.555   4.330  14.736 -0.0909 -0.2521 -0.0408
 5965TIP3   OH239309   4.668   1.521  13.752  0.4409 -0.3478  0.6885
 5965TIP3    H139310   4.711   1.592  13.798  1.8402 -0.9098  0.2973
 5965TIP3    H239311   4.708   1.442  13.787 -0.3786 -0.9064  0.4012
 5966TIP3   OH239312   6.483   6.391  15.633  0.1793  0.2471  0.1139
 5966TIP3    H139313   6.543   6.451  15.589 -0.8602 -0.1967 -2.0539
 5966TIP3    H239314   6.413   6.448  15.666  0.5770  0.5041  0.5313
 5967TIP3   OH239315   3.093   2.884  11.295 -0.2690 -0.2774  0.1626
 5967TIP3    H139316   3.035   2.847  11.228 -1.3906  0.0157  0.9515
 5967TIP3    H239317   3.073   2.835  11.375 -0.3547  0.7034  0.7503
 5968TIP3   OH239318   2.104   2.180  12.380  0.3759 -0.3915  0.4328
 5968TIP3    H139319   2.104   2.269  12.413 -1.6825 -0.2158  0.0734
 5968TIP3    H239320   2.159   2.131  12.442  0.8418  0.9482  1.1036
 5969TIP3   OH239321   6.296   2.592   0.947  0.1477  0.0858  0.1436
 5969TIP3    H139322   6.332   2.565   0.862  1.9685 -0.4180  1.0391
 5969TIP3    H239323   6.228   2.528   0.965  0.2195 -0.2169 -0.6147
 5970TIP3   OH239324   0.241   4.603   5.035 -0.1234  0.0615  0.6238
 5970TIP3    H139325   0.322   4.579   4.991 -0.2067 -0.6088  0.8289
 5970TIP3    H239326   0.189   4.647   4.967  0.7520  1.2781  0.7209
 5971TIP3   OH239327   5.896   2.035   0.277 -0.0770  0.1483 -0.4949
 5971TIP3    H139328   5.921   2.125   0.257 -0.6266  0.6465  0.9490
 5971TIP3    H239329   5.910   1.987   0.195  0.2102  1.5418 -1.2840
 5972TIP3   OH239330   2.479   0.865  10.344 -0.0120  0.8171 -0.3733
 5972TIP3    H139331   2.461   0.781  10.303  0.2381  0.1208  0.8975
 5972TIP3    H239332   2.446   0.930  10.282 -2.9554 -0.2621 -0.0857
 5973TIP3   OH239333   3.663   0.699  15.048  0.3360 -0.2019 -0.0841
 5973TIP3    H139334   3.712   0.700  15.130  1.3406  0.4310 -0.6854
 5973TIP3    H239335   3.578   0.662  15.072  0.9809 -1.0213  1.0318
 5974TIP3   OH239336   2.552   3.028   6.314 -0.0802  0.1951 -0.6281
 5974TIP3    H139337   2.539   2.969   6.388 -2.8415  0.8698 -0.4620
 5974TIP3    H239338   2.631   3.078   6.337 -0.1418 -0.4870  1.2276
 5975TIP3   OH239339   1.222   1.316   5.198 -0.3625  0.0916 -0.0416
 5975TIP3    H139340   1.304   1.280   5.231 -0.2679  1.4431  1.3206
 5975TIP3    H239341   1.153   1.265   5.241 -0.2327 -0.0820 -0.0423
 5976TIP3   OH239342   0.077   4.693  13.197 -0.3535  0.3019 -0.0391
 5976TIP3    H139343   0.110   4.747  13.268 -2.0909  1.0728  0.2264
 5976TIP3    H239344   0.052   4.611  13.238  0.0585  0.1838 -0.0253
 5977TIP3   OH239345   0.752   6.464   1.822 -0.1508  0.1473  0.4179
 5977TIP3    H139346   0.676   6.407   1.835 -0.6039  0.1587 -1.7501
 5977TIP3    H239347   0.808   6.447   1.898 -1.7170 -0.8234  1.4184
 5978TIP3   OH239348   6.100   4.285   0.193 -0.2168 -0.1898 -0.7668
 5978TIP3    H139349   6.007   4.261   0.198 -0.1262 -0.2677  1.2690
 5978TIP3    H239350   6.143   4.203   0.168 -0.4605 -0.8527  0.8667
 5979TIP3   OH239351   4.976   4.533   3.623 -0.6117 -0.6736 -0.2319
 5979TIP3    H139352   5.021   4.472   3.565  1.5840 -0.3556  1.0240
 5979TIP3    H239353   4.977   4.616   3.575  0.3608 -0.6222 -0.1381
 5980TIP3   OH239354   1.599   4.695   1.576 -0.0942 -0.1232 -0.3337
 5980TIP3    H139355   1.688   4.700   1.610  0.1937 -2.7429 -0.4466
 5980TIP3    H239356   1.609   4.694   1.481 -0.4097  1.1793 -0.3987
 5981TIP3   OH239357   5.239   3.351  15.569 -0.0838  0.5128 -0.4441
 5981TIP3    H139358   5.166   3.296  15.597 -0.3289  1.4000  0.7280
 5981TIP3    H239359   5.253   3.411  15.642  1.2331  0.9510 -1.0307
 5982TIP3   OH239360   4.020   0.660   2.647  0.2042 -0.2690  0.0221
 5982TIP3    H139361   4.080   0.585   2.644  1.0477  0.3642  0.4520
 5982TIP3    H239362   4.074   0.734   2.620 -0.4869  0.2634  0.0819
 5983TIP3   OH239363   0.530   3.760  14.880 -0.0830  0.0721 -0.1513
 5983TIP3    H139364   0.476   3.743  14.803 -0.7884  0.8052  0.1593
 5983TIP3    H239365   0.612   3.795  14.845 -1.0991  2.2436 -0.5534
 5984TIP3   OH239366   1.787   1.996  14.141 -0.3194 -0.0327  0.1761
 5984TIP3    H139367   1.754   1.927  14.083 -2.6680  1.4603 -0.4205
 5984TIP3    H239368   1.828   2.059  14.082 -0.0144  0.0545  0.4799
 5985TIP3   OH239369   2.180   3.331   1.077  0.3352 -0.0967  0.5986
 5985TIP3    H139370   2.142   3.248   1.047 -0.1562  0.1218  0.6068
 5985TIP3    H239371   2.273   3.310   1.093  0.5027 -0.3325 -0.6012
 5986TIP3   OH239372   5.997   1.805  12.783 -0.2429 -0.1207  0.4920
 5986TIP3    H139373   6.064   1.874  12.781 -0.9849  0.6337 -1.7361
 5986TIP3    H239374   5.925   1.844  12.833 -0.3549  0.4415 -0.0919
 5987TIP3   OH239375   5.329   1.795   4.828  0.1104 -0.6687 -0.1335
 5987TIP3    H139376   5.286   1.812   4.912  0.6169  0.0671 -0.0088
 5987TIP3    H239377   5.412   1.754   4.852  0.7395  0.5132 -0.1884
 5988TIP3   OH239378   0.759   0.182   1.849  0.5229  0.1654 -0.0691
 5988TIP3    H139379   0.797   0.214   1.931  0.2964 -1.2022  0.5970
 5988TIP3    H239380   0.667   0.208   1.853  0.6660  0.7102 -0.2249
 5989TIP3   OH239381   1.564   0.864   3.288  0.2600 -0.0024 -0.1672
 5989TIP3    H139382   1.570   0.955   3.318 -0.9918  0.0689 -0.1081
 5989TIP3    H239383   1.654   0.831   3.294  0.4957  0.8095  1.1283
 5990TIP3   OH239384   5.286   3.389   0.768 -0.0746 -0.2788 -0.1128
 5990TIP3    H139385   5.345   3.338   0.712  2.2812  2.0088  0.0918
 5990TIP3    H239386   5.251   3.457   0.710  2.0257  1.8264  0.9105
 5991TIP3   OH239387   1.014   2.347  15.899 -0.4913 -0.1995 -0.1694
 5991TIP3    H139388   1.076   2.316  15.965  1.7226 -0.0370 -2.0689
 5991TIP3    H239389   0.958   2.272  15.880 -1.1231 -0.2771  1.7415
 5992TIP3   OH239390   5.969   4.290   0.603  0.7409 -0.2573 -0.0764
 5992TIP3    H139391   6.009   4.213   0.561 -1.3991 -0.4832 -1.8645
 5992TIP3    H239392   6.026   4.363   0.577  0.8220 -0.7533 -1.3938
 5993TIP3   OH239393   4.623   1.583  11.291 -0.3562 -0.3237 -0.1055
 5993TIP3    H139394   4.565   1.605  11.363  1.1049  1.1873  0.7031
 5993TIP3    H239395   4.576   1.612  11.212 -2.1076 -2.3053  0.1398
 5994TIP3   OH239396   1.954   5.900   0.751 -0.2805  0.2761 -0.3130
 5994TIP3    H139397   2.035   5.944   0.777  1.2310 -1.2119 -2.1709
 5994TIP3    H239398   1.921   5.861   0.832  2.2308 -1.1226  0.1266
 5995TIP3   OH239399   0.463   0.673  16.452  0.4624 -0.4410 -0.1423
 5995TIP3    H139400   0.423   0.612  16.390  0.5902 -1.2016  0.5111
 5995TIP3    H239401   0.557   0.665  16.437  0.4725 -0.3074 -0.1506
 5996TIP3   OH239402   0.138   6.703   0.965 -0.1334  0.3870  0.7603
 5996TIP3    H139403   0.159   6.695   0.872  0.3228 -0.4792  0.9246
 5996TIP3    H239404   0.210   6.754   1.002  1.1916 -1.5945  1.1097
 5997TIP3   OH239405   5.022   4.127   1.226 -0.5100  0.0027 -0.0253
 5997TIP3    H139406   5.098   4.088   1.269 -0.4565  0.7372  0.5605
 5997TIP3    H239407   5.054   4.156   1.141  0.3350  1.9252  0.8976
 5998TIP3   OH239408   6.555   0.585   2.253 -0.0981  0.0156 -0.2949
 5998TIP3    H139409   6.606   0.504   2.246 -1.1185 -0.6070 -0.8385
 5998TIP3    H239410   6.603   0.648   2.199  0.5852 -0.2916 -0.0608
 5999TIP3   OH239411   1.643   5.323   1.877 -0.3598  0.3786  0.2000
 5999TIP3    H139412   1.688   5.397   1.835  0.5173  0.7353  1.6762
 5999TIP3    H239413   1.682   5.246   1.837  2.2150  0.6553  1.9225
 6000TIP3   OH239414   4.890   4.722  17.036  0.0764  0.2740 -0.6315
 6000TIP3    H139415   4.827   4.667  16.990 -0.7573  1.4146 -0.8907
 6000TIP3    H239416   4.844   4.805  17.050  1.6395  1.2565 -1.1190
 6001TIP3   OH239417   2.062   1.400  10.315  0.3040  0.6194  0.1340
 6001TIP3    H139418   1.988   1.341  10.324 -1.9714  3.1110 -0.7024
 6001TIP3    H239419   2.139   1.343  10.311 -1.5251 -2.0969  1.0840
 6002TIP3   OH239420   5.581   1.503  12.930 -0.3591  0.4822 -0.0954
 6002TIP3    H139421   5.579   1.493  13.025 -0.2891 -2.3412 -0.2894
 6002TIP3    H239422   5.508   1.560  12.909 -0.0315  1.5978  1.6794
 6003TIP3   OH239423   5.090   3.709   0.316  0.4721 -0.6235  0.1920
 6003TIP3    H139424   5.107   3.791   0.269  0.6354  0.0710  1.4158
 6003TIP3    H239425   4.996   3.696   0.309  0.3835 -0.0949  0.3485
 6004TIP3   OH239426   4.806   4.104  12.320 -0.1367  0.6015  0.4052
 6004TIP3    H139427   4.778   4.028  12.269  2.9936 -0.2029 -0.2829
 6004TIP3    H239428   4.839   4.165  12.254  1.6501  0.5884  1.2399
 6005TIP3   OH239429   0.622   4.004   1.712  0.3977  0.2589  0.3488
 6005TIP3    H139430   0.615   4.080   1.654  2.1607  1.5699  1.7459
 6005TIP3    H239431   0.533   3.994   1.748 -0.7053 -0.5132 -2.3580
 6006TIP3   OH239432   5.601   3.969  15.891  0.1168  0.2540  0.2428
 6006TIP3    H139433   5.545   4.011  15.826 -0.9660  0.0036  0.9704
 6006TIP3    H239434   5.627   3.886  15.851 -2.1303 -0.8081  0.7928
 6007TIP3   OH239435   3.725   3.183  11.632 -0.2055 -0.1634 -0.2136
 6007TIP3    H139436   3.642   3.164  11.587  0.3356  1.6792 -2.1574
 6007TIP3    H239437   3.791   3.140  11.579  0.2055 -0.8769  0.8359
 6008TIP3   OH239438   1.373   4.330   3.720 -0.2461  0.1301 -0.0615
 6008TIP3    H139439   1.355   4.242   3.685  0.7704 -0.2487  0.3292
 6008TIP3    H239440   1.466   4.327   3.743 -0.3661  1.1076  0.5568
 6009TIP3   OH239441   0.944   1.208  12.485 -0.0800  0.3653  0.4196
 6009TIP3    H139442   0.916   1.117  12.485 -1.1980  0.6232 -2.3315
 6009TIP3    H239443   0.870   1.256  12.524 -1.6243  0.5084 -2.4138
 6010TIP3   OH239444   6.369   1.583   1.756  0.0209  0.1071  0.5790
 6010TIP3    H139445   6.290   1.581   1.702  0.1600 -1.0920  0.4003
 6010TIP3    H239446   6.347   1.530   1.833  0.4794  0.1910  0.7738
 6011TIP3   OH239447   5.391   3.587   6.148  0.1539  0.1120  0.0009
 6011TIP3    H139448   5.384   3.583   6.052  1.2791  0.0749 -0.0904
 6011TIP3    H239449   5.473   3.634   6.164 -0.3883  0.7596  0.9580
 6012TIP3   OH239450   0.780   0.231  12.677 -0.1827 -0.0444 -0.4557
 6012TIP3    H139451   0.808   0.286  12.603  0.1529 -1.6950 -1.6346
 6012TIP3    H239452   0.699   0.191  12.647 -0.2063 -0.5024  0.2014
 6013TIP3   OH239453   0.552   0.433   1.593  0.2708 -0.0149 -0.4509
 6013TIP3    H139454   0.614   0.417   1.522 -1.8693  0.2738 -2.5227
 6013TIP3    H239455   0.520   0.522   1.578 -0.0307  0.1612  1.0687
 6014TIP3   OH239456   2.333   3.157   2.065  0.1393  0.1940 -0.0331
 6014TIP3    H139457   2.423   3.137   2.039  0.5204  1.4834  0.2442
 6014TIP3    H239458   2.337   3.168   2.160 -0.9221 -2.7624  0.4673
 6015TIP3   OH239459   6.054   6.324  15.260 -0.4867 -0.4550 -0.4354
 6015TIP3    H139460   6.072   6.268  15.335  0.3505  1.4795  0.8861
 6015TIP3    H239461   6.054   6.265  15.185  0.1064 -2.2294  0.9074
 6016TIP3   OH239462   1.617   0.173  16.221  0.6246  0.4242  0.3398
 6016TIP3    H139463   1.523   0.187  16.211  0.3353 -1.5893 -0.3196
 6016TIP3    H239464   1.631   0.170  16.316  0.2689  2.0218  0.4604
 6017TIP3   OH239465   1.990   1.081  15.664 -0.7460  1.5144  0.3540
 6017TIP3    H139466   2.066   1.046  15.617 -0.9790  1.9464 -0.3606
 6017TIP3    H239467   1.941   1.003  15.691 -0.2462  1.2434  0.4785
 6018TIP3   OH239468   1.637   2.494  14.632  0.3386  0.3736  0.2857
 6018TIP3    H139469   1.619   2.583  14.602 -1.8659  0.1504  0.7853
 6018TIP3    H239470   1.684   2.453  14.560  0.1690  1.5232 -0.5070
 6019TIP3   OH239471   3.853   4.350  16.365 -0.3175  0.0121 -0.2417
 6019TIP3    H139472   3.892   4.403  16.435 -0.2137  0.9118 -0.9711
 6019TIP3    H239473   3.838   4.411  16.294  0.9248 -1.1617 -1.5827
 6020TIP3   OH239474   4.808   4.738  13.763  0.6199 -0.0517 -0.1664
 6020TIP3    H139475   4.804   4.804  13.693  0.3803  1.5521  1.3056
 6020TIP3    H239476   4.731   4.684  13.748 -0.2580  1.1855 -0.3063
 6021TIP3   OH239477   0.478   6.072   4.075  0.4795  0.2363  0.4838
 6021TIP3    H139478   0.512   5.993   4.032  0.4384 -0.7512  2.2121
 6021TIP3    H239479   0.431   6.118   4.005 -0.5846 -1.8884 -0.2745
 6022TIP3   OH239480   2.270   4.172   0.530  0.0053 -0.4559 -0.0429
 6022TIP3    H139481   2.231   4.196   0.446  0.7858 -0.5610 -0.4474
 6022TIP3    H239482   2.334   4.241   0.548  1.5115 -1.6210 -0.7059
 6023TIP3   OH239483   0.185   3.669   0.450 -0.2556  0.4501 -0.5221
 6023TIP3    H139484   0.198   3.757   0.485 -0.0682  1.1441 -2.2099
 6023TIP3    H239485   0.122   3.681   0.379 -0.6115 -0.8612 -0.4452
 6024TIP3   OH239486   0.808   2.766   5.848 -0.5667 -0.0557 -0.0370
 6024TIP3    H139487   0.761   2.780   5.766 -1.6456 -0.4943  0.4744
 6024TIP3    H239488   0.897   2.795   5.831 -0.4059 -1.4203 -1.7957
 6025TIP3   OH239489   0.467   0.387  13.686  0.2478  0.6256 -0.8847
 6025TIP3    H139490   0.479   0.479  13.707  1.5286  0.5018 -0.9931
 6025TIP3    H239491   0.536   0.368  13.623  0.3590 -0.5476 -0.4341
 6026TIP3   OH239492   5.994   0.163  15.516 -0.3117 -0.0129 -0.0679
 6026TIP3    H139493   6.054   0.215  15.464  0.1485 -0.7191 -0.2574
 6026TIP3    H239494   5.966   0.093  15.458 -0.6055 -0.2082  0.3028
 6027TIP3   OH239495   5.006   0.062   4.886  0.6557  0.1307  0.0637
 6027TIP3    H139496   4.922   0.064   4.931 -0.1937 -0.5815 -1.4241
 6027TIP3    H239497   5.009   0.142   4.834  0.3665 -0.3894 -0.7734
 6028TIP3   OH239498   0.620   0.673  14.388 -0.1461 -1.1001 -0.7388
 6028TIP3    H139499   0.608   0.659  14.295 -2.1945  1.0188 -0.8883
 6028TIP3    H239500   0.639   0.766  14.396 -0.5903 -1.1205  0.9935
 6029TIP3   OH239501   1.258   1.732   1.765  0.0498  0.0768 -0.9366
 6029TIP3    H139502   1.328   1.710   1.704  0.3384 -0.6514 -0.3565
 6029TIP3    H239503   1.232   1.648   1.803 -1.1116  0.3496 -1.1106
 6030TIP3   OH239504   5.703   2.576  16.360  0.6656 -0.3786 -0.5560
 6030TIP3    H139505   5.736   2.529  16.437 -1.0242  0.7246  0.9289
 6030TIP3    H239506   5.764   2.649  16.349 -0.4194  0.9068  1.3589
 6031TIP3   OH239507   4.974   6.004   0.061  0.2487  0.2670  0.1964
 6031TIP3    H139508   4.959   6.073  -0.004 -0.0389 -1.3370 -1.5149
 6031TIP3    H239509   5.057   5.964   0.035  0.0776 -0.4764  0.7514
 6032TIP3   OH239510   0.399   4.645   0.345  0.7813 -0.7049  0.0383
 6032TIP3    H139511   0.359   4.712   0.400  1.8443 -0.9988  1.2174
 6032TIP3    H239512   0.489   4.675   0.332  0.9374 -1.3363 -0.3848
 6033TIP3   OH239513   2.009   4.322  12.261  0.5497 -0.6278 -0.2772
 6033TIP3    H139514   1.915   4.305  12.252  0.5434 -0.1475 -1.2648
 6033TIP3    H239515   2.014   4.406  12.307  0.4806 -0.2832 -0.8948
 6034TIP3   OH239516   4.055   1.159   2.085 -0.4039  0.1535 -0.4830
 6034TIP3    H139517   4.140   1.122   2.061  0.1121  0.0920  1.3200
 6034TIP3    H239518   4.072   1.211   2.163 -2.2686 -1.0485  0.8118
 6035TIP3   OH239519   6.069   5.243  13.639  0.3048 -0.1264 -0.4590
 6035TIP3    H139520   6.004   5.286  13.583  0.2398  0.2458 -0.1038
 6035TIP3    H239521   6.116   5.316  13.680  1.4222 -0.3785 -1.2532
 6036TIP3   OH239522   2.898   2.568  14.169  0.0268 -0.1250  0.1922
 6036TIP3    H139523   2.971   2.546  14.227  1.3557 -0.3126 -1.4873
 6036TIP3    H239524   2.825   2.588  14.229  1.4578  0.1602  1.9266
 6037TIP3   OH239525   1.137   0.782   4.829  0.7245 -0.1846 -0.3189
 6037TIP3    H139526   1.151   0.820   4.916 -1.2763  0.7152 -0.3563
 6037TIP3    H239527   1.225   0.760   4.799  1.4407 -1.1126  2.1760
 6038TIP3   OH239528   0.307   5.021  12.559  0.3688 -0.2341 -0.4429
 6038TIP3    H139529   0.270   4.949  12.611  0.7104 -0.7778 -0.9440
 6038TIP3    H239530   0.367   5.065  12.619 -1.5284  1.0939  0.6207
 6039TIP3   OH239531   2.044   4.291  11.721 -0.0436  0.4972 -0.1690
 6039TIP3    H139532   1.966   4.237  11.710 -0.9578  1.9430 -1.1310
 6039TIP3    H239533   2.027   4.343  11.800 -0.5263  1.5069 -0.9078
 6040TIP3   OH239534   2.203   6.635   3.055 -0.8393 -0.4645  0.3869
 6040TIP3    H139535   2.256   6.715   3.052 -1.2245 -0.2116  0.2684
 6040TIP3    H239536   2.196   6.608   2.963 -1.4808 -0.1207  0.3308
 6041TIP3   OH239537   6.754   4.214   4.089 -0.2616 -0.3364 -0.1801
 6041TIP3    H139538   6.806   4.250   4.161  1.3597 -1.1191 -0.9011
 6041TIP3    H239539   6.747   4.286   4.026  4.6793 -1.5042 -2.5471
 6042TIP3   OH239540   5.678   2.732  15.989 -0.4464  0.4734  0.7106
 6042TIP3    H139541   5.758   2.785  15.981 -0.3479  0.5738  2.1350
 6042TIP3    H239542   5.705   2.656  16.040 -1.2605  0.5348  1.2464
 6043TIP3   OH239543   3.026   0.155  14.412  0.6381 -0.3969 -0.0885
 6043TIP3    H139544   3.063   0.134  14.326  1.3073  1.2864 -0.2430
 6043TIP3    H239545   3.096   0.133  14.473  1.7678  2.1851 -0.3326
 6044TIP3   OH239546   0.613   5.246  16.021  0.1388 -0.0161  0.3393
 6044TIP3    H139547   0.625   5.340  16.032 -0.5955  0.3164 -1.3800
 6044TIP3    H239548   0.536   5.225  16.073  1.0663  0.0583  1.7912
 6045TIP3   OH239549   0.042   6.720  13.881 -0.2261  0.4317 -0.8136
 6045TIP3    H139550   0.131   6.691  13.900 -0.2244  1.3056  0.7186
 6045TIP3    H239551   0.042   6.739  13.787  0.8567 -0.6836 -1.0557
 6046TIP3   OH239552   5.422   3.545   0.197  0.1214 -0.0349 -0.0948
 6046TIP3    H139553   5.423   3.558   0.292 -2.0801  3.6715 -0.4129
 6046TIP3    H239554   5.330   3.553   0.173  0.9288  2.2708 -2.8530
 6047TIP3   OH239555   5.898   1.647  10.986 -0.4883 -0.2632  0.6680
 6047TIP3    H139556   5.983   1.622  11.021 -0.0397  0.5975  0.2454
 6047TIP3    H239557   5.846   1.567  10.987  1.6049 -1.9236 -2.9116
 6048TIP3   OH239558   1.980   3.958   2.055  1.1864 -0.2652 -0.1835
 6048TIP3    H139559   1.999   3.930   1.966 -0.9052 -2.2021 -0.1185
 6048TIP3    H239560   1.975   3.877   2.106 -0.3489  0.5607  1.0960
 6049TIP3   OH239561   1.255   4.521   3.536  0.2965  0.2776 -0.2647
 6049TIP3    H139562   1.292   4.462   3.601  1.2003 -1.3470 -2.1672
 6049TIP3    H239563   1.169   4.483   3.515  0.3557  0.3322 -0.6128
 6050TIP3   OH239564   2.419   6.314  16.044 -0.4141  0.1870 -0.1342
 6050TIP3    H139565   2.428   6.227  16.006  0.6096 -0.3679  1.2954
 6050TIP3    H239566   2.367   6.300  16.123  1.5003  0.4717  1.2479
 6051TIP3   OH239567   3.296   1.026  16.955  0.2769  0.3274 -0.2991
 6051TIP3    H139568   3.231   1.088  16.922 -1.6135 -1.9860 -1.1905
 6051TIP3    H239569   3.356   1.014  16.881  1.0563  1.4980  0.0995
 6052TIP3   OH239570   5.668   3.948  12.231 -0.2532  0.3380  0.4004
 6052TIP3    H139571   5.693   4.018  12.291 -0.4610  0.5772  0.2118
 6052TIP3    H239572   5.707   3.869  12.268  1.8495  0.8678 -0.5101
 6053TIP3   OH239573   5.872   2.330  11.543 -0.6812 -0.3027  0.2146
 6053TIP3    H139574   5.812   2.404  11.549 -0.0031  0.2110  0.7344
 6053TIP3    H239575   5.946   2.363  11.492 -0.5636 -0.7481  0.0938
 6054TIP3   OH239576   2.600   6.249  13.738 -0.4140 -0.9573 -0.6569
 6054TIP3    H139577   2.653   6.194  13.795 -1.8121 -1.8617 -0.1822
 6054TIP3    H239578   2.553   6.308  13.797  0.7983  0.5736 -1.1351
 6055TIP3   OH239579   1.426   6.035  13.878  0.3606 -0.0128  0.4868
 6055TIP3    H139580   1.463   5.984  13.805 -2.0787  0.4019 -1.1280
 6055TIP3    H239581   1.459   6.124  13.864  2.3690 -0.4940  1.7268
 6056TIP3   OH239582   2.506   0.555   2.791  0.6661  0.1771  0.3337
 6056TIP3    H139583   2.598   0.581   2.784  0.9530 -1.0093 -0.6672
 6056TIP3    H239584   2.506   0.484   2.856  0.4202  0.3304  0.5027
 6057TIP3   OH239585   3.452   3.138  11.536  0.2631 -0.0439 -0.1845
 6057TIP3    H139586   3.369   3.182  11.552  0.3384  0.6074 -1.4735
 6057TIP3    H239587   3.436   3.082  11.460  1.0726  0.3398 -0.6587
 6058TIP3   OH239588   4.836   3.721  15.735 -0.5461  0.0658 -0.0251
 6058TIP3    H139589   4.792   3.650  15.782 -3.4933  0.4744 -1.8494
 6058TIP3    H239590   4.883   3.677  15.664 -4.6620 -0.2361 -2.9250
 6059TIP3   OH239591   4.293   5.882   3.294  0.5369 -0.0537  0.3534
 6059TIP3    H139592   4.230   5.913   3.227  0.2812  0.1355  0.6771
 6059TIP3    H239593   4.247   5.810   3.337  0.5046  0.1453  0.6522
 6060TIP3   OH239594   4.338   0.452  11.795  0.4405 -0.0451  0.8536
 6060TIP3    H139595   4.332   0.456  11.890  1.7781 -1.2022  1.0218
 6060TIP3    H239596   4.326   0.360  11.773 -2.5028  0.5109 -0.3830
 6061TIP3   OH239597   2.977   4.325  12.377  0.4803  0.3592 -0.1135
 6061TIP3    H139598   2.950   4.399  12.431 -3.1375 -0.3211 -0.7544
 6061TIP3    H239599   2.943   4.344  12.290  0.8318 -1.3151 -0.6646
 6062TIP3   OH239600   0.944   5.052  16.621 -0.3998  0.1877  0.1031
 6062TIP3    H139601   0.851   5.048  16.644 -0.2791  0.5002  0.6680
 6062TIP3    H239602   0.964   5.145  16.618  0.0606  0.1132  0.6953
 6063TIP3   OH239603   1.532   0.336   5.543 -0.4420 -0.2482 -0.0004
 6063TIP3    H139604   1.454   0.312   5.493 -0.1137 -1.8258  0.1875
 6063TIP3    H239605   1.553   0.424   5.514 -0.8663 -0.7251 -1.8980
 6064TIP3   OH239606   6.563   5.263  14.634  0.1920 -0.2884  0.1131
 6064TIP3    H139607   6.633   5.200  14.649  0.5803 -0.0445 -0.6167
 6064TIP3    H239608   6.485   5.221  14.669  0.1032 -1.9347 -1.8713
 6065TIP3   OH239609   2.948   5.480  17.054  0.4006 -0.6489  0.6213
 6065TIP3    H139610   2.855   5.481  17.079 -0.0504  2.2385 -0.7932
 6065TIP3    H239611   2.990   5.540  17.116  0.8747 -0.1028 -0.2181
 6066TIP3   OH239612   6.509   1.016  14.471 -0.0410  0.5513 -0.6721
 6066TIP3    H139613   6.489   1.104  14.438 -1.3730  0.5117 -0.0461
 6066TIP3    H239614   6.566   1.031  14.546  0.6028  0.8034 -1.1979
 6067TIP3   OH239615   1.855   6.028   1.446  0.0779 -0.0205  0.5497
 6067TIP3    H139616   1.896   6.033   1.361  1.2361 -0.0133  1.0954
 6067TIP3    H239617   1.863   5.936   1.472  0.2173  0.0809  0.8795
 6068TIP3   OH239618   1.155   5.076   1.219 -0.0489 -0.1491 -0.8748
 6068TIP3    H139619   1.203   5.048   1.141 -0.9029 -2.2498 -0.6857
 6068TIP3    H239620   1.063   5.062   1.197 -0.3344 -0.1689  0.2833
 6069TIP3   OH239621   5.974   6.452  16.836 -0.0938  0.4114  0.3675
 6069TIP3    H139622   6.039   6.420  16.899  0.4933  1.1507  0.1636
 6069TIP3    H239623   5.969   6.546  16.853  0.3358  0.6905 -0.8930
 6070TIP3   OH239624   1.738   0.769  11.687  0.0237  0.1097  0.6614
 6070TIP3    H139625   1.752   0.743  11.596 -0.2746 -0.8260  0.8749
 6070TIP3    H239626   1.645   0.793  11.690  0.2901  1.2339  0.4709
 6071TIP3   OH239627   6.452   0.706   5.161  0.4351 -0.2370 -1.1481
 6071TIP3    H139628   6.471   0.635   5.222 -3.1297  0.6215  1.2718
 6071TIP3    H239629   6.528   0.764   5.167  1.7734 -1.9801 -0.3482
 6072TIP3   OH239630   2.150   0.139  16.566  0.0760 -0.2641 -0.3866
 6072TIP3    H139631   2.179   0.184  16.646 -0.2004  0.6453 -0.7751
 6072TIP3    H239632   2.066   0.100  16.590 -0.0822  0.1390 -0.2664
 6073TIP3   OH239633   1.393   6.238   5.765 -0.2437  0.4066 -0.0897
 6073TIP3    H139634   1.396   6.267   5.856  0.8732  0.6327 -0.1860
 6073TIP3    H239635   1.309   6.271   5.732  0.2647  2.1555  0.2763
 6074TIP3   OH239636   4.693   0.798   4.107 -0.1004  0.1076  0.4500
 6074TIP3    H139637   4.767   0.738   4.113  0.1179  0.4214  1.0002
 6074TIP3    H239638   4.615   0.742   4.112  0.1007 -0.1227  1.1533
 6075TIP3   OH239639   4.980   3.745   0.734  0.6799  0.5136  0.5622
 6075TIP3    H139640   4.911   3.811   0.725  1.4458  1.2621  0.0943
 6075TIP3    H239641   4.941   3.665   0.698 -0.3119  0.6515  1.2628
 6076TIP3   OH239642   4.014   4.673   4.764 -0.2166 -0.4043  0.2275
 6076TIP3    H139643   4.056   4.614   4.827  1.3169  0.9172  0.5033
 6076TIP3    H239644   3.921   4.669   4.786  0.1778 -0.6171  2.0320
 6077TIP3   OH239645   5.229   5.628  15.118  0.5526  0.0325 -0.0413
 6077TIP3    H139646   5.150   5.612  15.066  1.2306 -0.5372 -0.9446
 6077TIP3    H239647   5.202   5.691  15.184 -0.5238  0.2609 -0.6671
 6078TIP3   OH239648   5.683   2.838   5.291 -0.1843  0.0030 -0.7834
 6078TIP3    H139649   5.736   2.918   5.287  2.2261 -1.4993 -1.1228
 6078TIP3    H239650   5.700   2.802   5.378  1.6178 -1.8531 -1.7978
 6079TIP3   OH239651   4.545   0.890   3.282 -0.3574 -0.0551 -0.2747
 6079TIP3    H139652   4.542   0.897   3.187 -0.0798 -1.3021 -0.3931
 6079TIP3    H239653   4.454   0.876   3.308 -0.5877  1.3674 -0.2380
 6080TIP3   OH239654   1.741   3.635  15.290 -0.3951 -0.2952  0.1080
 6080TIP3    H139655   1.810   3.686  15.249 -0.4771 -0.0596  0.2601
 6080TIP3    H239656   1.746   3.548  15.249  0.2078 -0.3831  0.3620
 6081TIP3   OH239657   3.273   3.071   4.924  0.2394  0.2434  0.1433
 6081TIP3    H139658   3.290   3.021   5.004 -0.1613  1.4657  1.0183
 6081TIP3    H239659   3.325   3.150   4.934  1.6360 -0.3843 -1.6736
 6082TIP3   OH239660   1.884   6.501  12.034 -0.5689 -0.3674 -0.1879
 6082TIP3    H139661   1.963   6.543  12.000 -1.1854  0.0744 -1.1105
 6082TIP3    H239662   1.852   6.563  12.100  0.4494 -1.0744  1.0138
 6083TIP3   OH239663   2.156   4.522  12.638  0.0826  0.5717 -0.1265
 6083TIP3    H139664   2.077   4.540  12.690  0.7698  0.1173  1.1302
 6083TIP3    H239665   2.154   4.427  12.623  0.2394  0.6014 -0.3414
 6084TIP3   OH239666   2.544   6.197   3.222  0.2702 -0.0775 -0.1883
 6084TIP3    H139667   2.574   6.211   3.312 -1.4665  2.0818  0.1280
 6084TIP3    H239668   2.522   6.104   3.219 -0.0079 -0.1232  1.7668
 6085TIP3   OH239669   6.034   4.809  16.792 -0.0546 -0.2775 -0.1424
 6085TIP3    H139670   6.099   4.790  16.724  0.4307  1.7691 -0.3247
 6085TIP3    H239671   6.085   4.813  16.873 -0.0374  0.6275 -0.1829
 6086TIP3   OH239672   0.190   0.220   0.648  0.3785 -0.3673  0.0414
 6086TIP3    H139673   0.254   0.274   0.602 -0.8667  0.6281 -0.5972
 6086TIP3    H239674   0.175   0.145   0.590  1.6234 -1.1101  0.6298
 6087TIP3   OH239675   3.829   0.924  14.321 -0.0779 -0.1057 -0.7338
 6087TIP3    H139676   3.874   0.900  14.401  0.2001  0.0742 -0.8355
 6087TIP3    H239677   3.823   0.843  14.270 -1.5670 -0.5553  0.0976
 6088TIP3   OH239678   4.361   5.237  13.035 -0.4131  0.2315 -0.0422
 6088TIP3    H139679   4.353   5.150  12.996  2.7931  0.4153 -1.3870
 6088TIP3    H239680   4.434   5.229  13.096  0.2575  2.0790 -0.5545
 6089TIP3   OH239681   1.265   0.205  12.808 -0.4810 -0.6163  0.0945
 6089TIP3    H139682   1.204   0.203  12.735 -0.1363  0.0264 -0.2220
 6089TIP3    H239683   1.342   0.252  12.774 -0.3281 -0.2781  0.8741
 6090TIP3   OH239684   2.214   0.961  15.574  0.0635  0.9431 -0.0991
 6090TIP3    H139685   2.292   1.008  15.604  0.0634  0.2757  1.0086
 6090TIP3    H239686   2.243   0.915  15.495  0.4836  1.5778 -0.3154
 6091TIP3   OH239687   0.990   4.596   1.172  0.1349  0.1970  0.2817
 6091TIP3    H139688   1.055   4.539   1.133  0.1247  0.5719 -0.3110
 6091TIP3    H239689   1.040   4.663   1.218  0.1445 -0.9905  2.0803
 6092TIP3   OH239690   6.390   0.104   4.454 -0.3464 -0.5410 -0.4478
 6092TIP3    H139691   6.353   0.130   4.369 -2.0640  0.2414  0.4990
 6092TIP3    H239692   6.386   0.009   4.453 -2.0207 -0.5059 -0.5891
 6093TIP3   OH239693   5.521   2.092   1.173 -0.2430 -1.0790  0.3520
 6093TIP3    H139694   5.490   2.141   1.097  0.5085 -2.0501 -0.6107
 6093TIP3    H239695   5.489   2.141   1.249 -1.6050 -0.4726 -0.5932
 6094TIP3   OH239696   4.718   5.719  12.117  0.3052 -0.0457  0.0428
 6094TIP3    H139697   4.695   5.714  12.024  1.4400 -0.9550 -0.2098
 6094TIP3    H239698   4.711   5.629  12.148  0.1117  0.2251  0.8005
 6095TIP3   OH239699   5.339   3.453   6.396  0.6624 -0.1429 -0.0823
 6095TIP3    H139700   5.360   3.480   6.307  1.4317  2.2452  0.7448
 6095TIP3    H239701   5.245   3.438   6.395  0.7990 -1.0604 -1.4832
 6096TIP3   OH239702   0.865   0.870   2.087 -0.0753 -0.1731 -0.4358
 6096TIP3    H139703   0.890   0.822   2.007  0.6657 -1.1493  0.3608
 6096TIP3    H239704   0.780   0.908   2.066 -0.7350 -1.9043 -1.1009
 6097TIP3   OH239705   5.323   4.153   3.901 -0.4594  0.1374 -0.2452
 6097TIP3    H139706   5.358   4.080   3.851  0.1369  0.4855 -0.3553
 6097TIP3    H239707   5.255   4.191   3.846 -1.9289 -1.3056  0.4871
 6098TIP3   OH239708   0.829   6.731  16.287 -0.7070  0.7388  0.3940
 6098TIP3    H139709   0.849   6.717  16.380  0.3968  1.3794  0.2782
 6098TIP3    H239710   0.734   6.723  16.281 -0.6326 -1.2877  1.2233
 6099TIP3   OH239711   2.647   3.042  11.493  0.2402 -0.1292 -0.1343
 6099TIP3    H139712   2.597   3.093  11.557  1.2797  1.8489 -0.8194
 6099TIP3    H239713   2.583   2.980  11.457 -0.2612 -1.7056  3.1311
 6100TIP3   OH239714   1.245   5.024  12.551 -0.5197  0.0766 -0.0357
 6100TIP3    H139715   1.177   4.979  12.500 -1.2797  1.0729  0.0766
 6100TIP3    H239716   1.260   5.106  12.504  0.5169 -0.0685  0.0182
 6101TIP3   OH239717   6.064   1.665  11.670 -0.0583 -0.7388 -0.4934
 6101TIP3    H139718   6.035   1.592  11.725  0.2591 -1.2326 -0.9688
 6101TIP3    H239719   6.049   1.743  11.723 -0.6189 -1.1339 -0.0687
 6102TIP3   OH239720   0.411   0.795   3.937 -0.3759 -0.2920 -0.0210
 6102TIP3    H139721   0.477   0.862   3.919  0.7783 -1.6063 -0.9592
 6102TIP3    H239722   0.460   0.724   3.977 -1.2024 -1.3293 -0.7917
 6103TIP3   OH239723   5.747   5.307  12.583  0.1787 -0.2412  0.1718
 6103TIP3    H139724   5.737   5.212  12.574  2.4210 -0.3517 -2.2818
 6103TIP3    H239725   5.688   5.344  12.518 -0.5948  0.0779  1.0358
 6104TIP3   OH239726   1.077   1.636   4.034  0.6043  0.2529  0.1862
 6104TIP3    H139727   1.028   1.557   4.056 -2.0268  0.8071 -2.9277
 6104TIP3    H239728   1.021   1.708   4.063  1.4980  0.9724  0.1684
 6105TIP3   OH239729   2.305   0.584   4.945 -0.4739 -0.3061 -0.4398
 6105TIP3    H139730   2.369   0.642   4.904 -1.2577 -0.0833 -1.3886
 6105TIP3    H239731   2.353   0.540   5.015  0.2998  1.0067 -0.1285
 6106TIP3   OH239732   5.549   0.643   1.071 -0.4774  0.3262 -0.1433
 6106TIP3    H139733   5.526   0.564   1.120  0.8603  0.1489  0.2379
 6106TIP3    H239734   5.523   0.623   0.980 -1.4163  0.0065  0.1784
 6107TIP3   OH239735   3.692   3.839  14.085 -0.0197 -0.0466  0.0001
 6107TIP3    H139736   3.766   3.872  14.035 -2.0425  2.2087 -1.7357
 6107TIP3    H239737   3.674   3.753  14.048  0.3216  0.3641 -1.1608
 6108TIP3   OH239738   6.772   0.723   5.025  0.3888 -0.5198 -0.2203
 6108TIP3    H139739   6.712   0.773   4.969  0.0162  1.8178  2.0747
 6108TIP3    H239740   6.810   0.789   5.083  2.1167 -2.5623  1.0880
 6109TIP3   OH239741   0.050   1.372   0.409  0.0392 -0.0539  0.0525
 6109TIP3    H139742  -0.005   1.350   0.485 -1.3335 -1.1755 -1.2069
 6109TIP3    H239743   0.139   1.351   0.436 -0.3100  0.3933  1.6443
 6110TIP3   OH239744   3.180   6.111   4.309  0.1283  0.2425 -0.2904
 6110TIP3    H139745   3.233   6.037   4.340  0.2812 -0.1187 -1.3687
 6110TIP3    H239746   3.168   6.166   4.387  0.8063 -0.4397  0.3168
 6111TIP3   OH239747   0.829   1.969   6.167  0.1617  0.3086 -0.1507
 6111TIP3    H139748   0.890   1.895   6.166  1.0645  1.0108  0.9038
 6111TIP3    H239749   0.760   1.943   6.227  0.3680  0.2397  0.0566
 6112TIP3   OH239750   5.454   2.570  16.485  0.7638  0.0178  0.6102
 6112TIP3    H139751   5.539   2.537  16.456 -0.0864 -0.3803 -1.5995
 6112TIP3    H239752   5.395   2.495  16.476 -0.1218  0.6926  0.6706
 6113TIP3   OH239753   5.995   1.954  15.888 -0.0150 -0.1696 -0.6608
 6113TIP3    H139754   6.058   1.939  15.959 -0.8365 -0.2470  0.0710
 6113TIP3    H239755   5.917   1.904  15.914 -1.4575  2.2355 -0.0421
 6114TIP3   OH239756   2.228   5.513  16.942 -0.3130  0.4655  0.3179
 6114TIP3    H139757   2.311   5.561  16.947 -0.0357 -0.0095  0.3199
 6114TIP3    H239758   2.253   5.425  16.914 -0.9417  0.6637 -0.9401
 6115TIP3   OH239759   4.134   4.590  12.377 -0.4187 -0.1212 -0.2657
 6115TIP3    H139760   4.100   4.633  12.299  1.3771 -0.8893 -1.5150
 6115TIP3    H239761   4.174   4.509  12.345 -0.8826 -1.1743  1.6336
 6116TIP3   OH239762   6.478   4.889   6.585 -0.5050 -0.5833  0.7087
 6116TIP3    H139763   6.567   4.868   6.556 -0.3987 -1.9252  1.9040
 6116TIP3    H239764   6.485   4.979   6.618 -0.3353  0.4994 -2.0037
 6117TIP3   OH239765   0.359   3.788  15.327 -0.0957 -0.0372  0.1545
 6117TIP3    H139766   0.365   3.848  15.252  0.5949  0.7233  0.8009
 6117TIP3    H239767   0.423   3.719  15.307  1.5313  1.1907  0.9177
 6118TIP3   OH239768   0.022   1.753  12.207  0.6769  0.2509 -0.1917
 6118TIP3    H139769  -0.061   1.705  12.208  0.4289  0.6336  2.3592
 6118TIP3    H239770   0.067   1.726  12.287  3.0494  0.0763 -1.4799
 6119TIP3   OH239771   2.340   6.600   6.013  0.1669 -0.2145 -0.5170
 6119TIP3    H139772   2.345   6.505   6.029 -1.1141  0.0825  1.9543
 6119TIP3    H239773   2.247   6.618   6.004  0.4259  0.7823 -1.3808
 6120TIP3   OH239774   1.274   0.954   5.019 -0.0504 -0.3182  0.5839
 6120TIP3    H139775   1.211   1.025   5.004  0.0342  0.2911  2.7122
 6120TIP3    H239776   1.355   0.999   5.043  0.1447 -1.1126  1.4733
 6121TIP3   OH239777   3.462   1.642   1.388 -0.3587  0.5146 -0.1988
 6121TIP3    H139778   3.522   1.567   1.393 -0.6592  0.3299  0.9456
 6121TIP3    H239779   3.515   1.717   1.413  0.1336  0.8345 -2.0491
 6122TIP3   OH239780   0.832   5.392  16.373 -0.0908 -0.3035 -0.2646
 6122TIP3    H139781   0.921   5.375  16.341 -0.3383 -1.9480 -0.1867
 6122TIP3    H239782   0.843   5.408  16.466  0.0895 -1.0649 -0.1447
 6123TIP3   OH239783   4.055   1.699  13.091 -0.4109 -0.2106 -0.0856
 6123TIP3    H139784   3.992   1.770  13.101 -1.1529 -0.8887  0.2205
 6123TIP3    H239785   4.140   1.742  13.085 -1.0498  0.8969 -2.8749
 6124TIP3   OH239786   1.132   5.450   5.813  0.4532  0.8217  0.0377
 6124TIP3    H139787   1.183   5.472   5.891 -0.7417  2.6266  0.3650
 6124TIP3    H239788   1.046   5.487   5.830 -0.1711  0.2097 -1.6481
 6125TIP3   OH239789   0.701   6.211   3.999 -0.9137 -0.3261  0.0319
 6125TIP3    H139790   0.777   6.197   4.056  0.2604  0.7545 -1.2017
 6125TIP3    H239791   0.633   6.154   4.035  0.0004 -0.2036  2.0673
 6126TIP3   OH239792   3.710   4.381  13.026  0.2670  0.0271 -0.1650
 6126TIP3    H139793   3.788   4.378  12.971  0.0580 -1.2133 -0.4126
 6126TIP3    H239794   3.704   4.473  13.053  0.1964  0.7599 -2.4531
 6127TIP3   OH239795   5.461   4.205   3.553  0.4122 -0.5668 -0.6987
 6127TIP3    H139796   5.434   4.131   3.608  0.3122 -1.0375 -1.3669
 6127TIP3    H239797   5.414   4.192   3.471 -2.1983  2.0268  0.2290
 6128TIP3   OH239798   5.973   6.072   0.217 -0.1789 -0.0538  0.6924
 6128TIP3    H139799   5.933   6.158   0.222 -0.9201 -0.3889  0.7166
 6128TIP3    H239800   5.934   6.023   0.290 -1.4615 -1.0886 -0.6335
 6129TIP3   OH239801   4.843   1.464  12.697 -0.4807 -0.7859  0.6506
 6129TIP3    H139802   4.766   1.461  12.639 -0.7000  0.7311  0.8354
 6129TIP3    H239803   4.806   1.464  12.786 -0.3200  0.7136  0.7339
 6130TIP3   OH239804   2.843   1.612  11.325 -0.2332  0.6484  0.5496
 6130TIP3    H139805   2.886   1.526  11.321 -0.3826  0.5931  0.0196
 6130TIP3    H239806   2.886   1.657  11.397 -1.4242 -0.5575  2.0774
 6131TIP3   OH239807   5.281   6.358   0.587 -0.6872  0.1348  0.1105
 6131TIP3    H139808   5.315   6.378   0.674  1.3481  0.0055 -0.6105
 6131TIP3    H239809   5.356   6.325   0.539 -1.8945 -0.3120 -1.5528
 6132TIP3   OH239810   5.571   3.565  17.138  0.3295  0.3173 -0.3399
 6132TIP3    H139811   5.646   3.516  17.172 -0.5056  0.0085  1.1526
 6132TIP3    H239812   5.509   3.567  17.211 -0.1270  2.6711 -0.7317
 6133TIP3   OH239813   1.810   0.683  16.784 -0.1716 -0.0991 -0.3003
 6133TIP3    H139814   1.782   0.600  16.745  0.2644 -0.6577  0.5601
 6133TIP3    H239815   1.771   0.684  16.871  0.2397  0.3695 -0.1145
 6134TIP3   OH239816   5.823   2.171   5.390  0.2958 -0.6045 -0.0006
 6134TIP3    H139817   5.908   2.157   5.349 -0.0725 -1.0936 -0.6237
 6134TIP3    H239818   5.787   2.083   5.401 -0.1940 -0.3916  0.1160
 6135TIP3   OH239819   5.522   4.250   6.136 -0.2899  0.2716 -0.0182
 6135TIP3    H139820   5.612   4.273   6.159 -0.2194 -1.2688  1.4244
 6135TIP3    H239821   5.468   4.299   6.197 -0.2528 -1.2681  1.2985
 6136TIP3   OH239822   6.720   0.471   1.852  0.0247  0.4529  0.1013
 6136TIP3    H139823   6.684   0.387   1.882 -1.8657  0.7999 -0.9929
 6136TIP3    H239824   6.805   0.449   1.815 -0.9283 -1.2180 -1.2382
 6137TIP3   OH239825   2.131   4.455  13.203  0.0878  0.6910  0.3000
 6137TIP3    H139826   2.089   4.445  13.117 -0.7471 -0.7124  0.8523
 6137TIP3    H239827   2.090   4.533  13.240 -0.7143  0.3892  0.0724
 6138TIP3   OH239828   5.841   0.577   1.018 -0.0497 -0.2929  0.3366
 6138TIP3    H139829   5.848   0.589   0.923  1.5204 -0.4532  0.4068
 6138TIP3    H239830   5.759   0.621   1.041 -0.3959 -0.1322 -1.0677
 6139TIP3   OH239831   2.105   6.150   6.442  0.2242  0.3596 -0.6111
 6139TIP3    H139832   2.068   6.236   6.463 -0.1027  0.0899 -0.0384
 6139TIP3    H239833   2.161   6.165   6.366 -0.9459  0.8156 -1.4097
 6140TIP3   OH239834   4.807   1.774   4.984  0.0631 -0.1056  0.1577
 6140TIP3    H139835   4.888   1.738   4.947 -0.3551 -0.5260 -0.3707
 6140TIP3    H239836   4.811   1.752   5.077 -1.1570 -3.5436 -0.4508
 6141TIP3   OH239837   6.580   1.130  14.784  0.0342  0.3292  0.1700
 6141TIP3    H139838   6.512   1.091  14.838 -0.2584  0.4357 -0.1239
 6141TIP3    H239839   6.548   1.218  14.763  0.1334  0.2821 -0.1926
 6142TIP3   OH239840   5.284   0.340   5.055 -0.5629 -0.3807 -0.1885
 6142TIP3    H139841   5.283   0.415   4.995 -0.2022  1.0774  1.5602
 6142TIP3    H239842   5.191   0.323   5.073 -0.6403 -0.1691 -0.3753
 6143TIP3   OH239843   6.632   3.521   4.273 -0.0412  0.6417 -0.3750
 6143TIP3    H139844   6.684   3.573   4.211  2.4495  0.1294  1.1212
 6143TIP3    H239845   6.581   3.586   4.321  1.0653  1.4741 -0.2730
 6144TIP3   OH239846   4.686   2.565  14.294  0.6003  0.1963  0.4222
 6144TIP3    H139847   4.710   2.568  14.386 -0.6938  0.3731  0.7784
 6144TIP3    H239848   4.593   2.540  14.294 -0.4345  3.5116 -0.6364
 6145TIP3   OH239849   6.260   3.754   2.605  0.2231 -0.1468  0.1116
 6145TIP3    H139850   6.178   3.740   2.652  0.2842  1.6432  0.8200
 6145TIP3    H239851   6.238   3.736   2.513 -1.4165  1.8042  0.0529
 6146TIP3   OH239852   4.726   4.149  14.804 -0.0450 -0.2156  0.2790
 6146TIP3    H139853   4.674   4.189  14.735  0.7140  1.0113  0.3898
 6146TIP3    H239854   4.662   4.104  14.860 -0.9743  1.1243  0.3342
 6147TIP3   OH239855   3.237   5.146  14.573 -0.4013 -0.1766 -0.0375
 6147TIP3    H139856   3.238   5.238  14.600  0.4141 -0.2565  0.2244
 6147TIP3    H239857   3.267   5.147  14.482  0.6915 -0.2734  0.3034
 6148TIP3   OH239858   6.318   5.097  14.341  0.1946 -0.5911  0.0629
 6148TIP3    H139859   6.223   5.098  14.328  0.3158 -1.9286 -1.1217
 6148TIP3    H239860   6.329   5.090  14.436 -0.9261 -2.0212  0.1174
 6149TIP3   OH239861   6.750   4.769   0.580 -0.5065 -0.0763  0.2718
 6149TIP3    H139862   6.833   4.746   0.622 -0.2031 -0.2277 -0.4004
 6149TIP3    H239863   6.689   4.781   0.653 -0.1086 -0.8002  0.7354
 6150TIP3   OH239864   6.375   2.201   0.138 -0.0183  0.1935 -0.2292
 6150TIP3    H139865   6.409   2.267   0.076  2.9612 -1.5229 -0.6296
 6150TIP3    H239866   6.361   2.250   0.219 -0.1166  1.7462 -1.1311
 6151TIP3   OH239867   2.673   0.210   4.121  0.2945 -0.2049 -0.2788
 6151TIP3    H139868   2.600   0.236   4.066  1.4587  0.1937 -1.7127
 6151TIP3    H239869   2.684   0.282   4.183 -0.0564  0.0730 -0.5396
 6152TIP3   OH239870   1.502   1.503   1.123  0.3220  0.3059 -0.4122
 6152TIP3    H139871   1.469   1.583   1.166 -0.4957 -0.9209  1.3832
 6152TIP3    H239872   1.552   1.535   1.049  0.3799  2.5185  0.4928
 6153TIP3   OH239873   3.658   4.963   4.624  0.0059 -0.0272  0.5365
 6153TIP3    H139874   3.748   4.952   4.656 -0.9185 -0.7551  3.1415
 6153TIP3    H239875   3.621   5.030   4.681 -1.0021  0.6199 -0.8289
 6154TIP3   OH239876   5.004   4.788  14.529  0.1915  0.4496 -0.4522
 6154TIP3    H139877   5.094   4.767  14.505 -0.1775 -1.2163 -0.5339
 6154TIP3    H239878   5.000   4.883  14.526  2.0496  0.5872 -0.0458
 6155TIP3   OH239879   4.425   4.839   2.084  0.0885 -0.1352  0.1312
 6155TIP3    H139880   4.506   4.883   2.109 -0.9736  1.8800  0.2242
 6155TIP3    H239881   4.357   4.906   2.095 -1.4887 -1.5294 -0.6931
 6156TIP3   OH239882   2.070   3.051  16.960  0.2761 -0.6893  0.1653
 6156TIP3    H139883   2.117   3.063  16.877 -0.4136 -2.3031 -0.5002
 6156TIP3    H239884   2.122   3.100  17.024 -0.4892  2.6893 -1.5914
 6157TIP3   OH239885   1.013   5.042  11.467 -0.0915 -0.4053  0.3676
 6157TIP3    H139886   0.970   5.061  11.383  0.8364 -1.4370 -0.3659
 6157TIP3    H239887   1.079   4.977  11.446  1.0082  0.2299  1.6905
 6158TIP3   OH239888   0.266   5.423   4.426  0.3939  0.1305 -0.2487
 6158TIP3    H139889   0.278   5.328   4.430  0.5560  0.1562 -0.1492
 6158TIP3    H239890   0.197   5.435   4.360  1.4609  0.0400 -1.4049
 6159TIP3   OH239891   4.317   4.106  13.040  0.5385  0.4600 -0.1875
 6159TIP3    H139892   4.342   4.092  12.949 -1.0645 -1.3763 -0.4180
 6159TIP3    H239893   4.374   4.049  13.090 -1.0131 -1.4425 -0.4497
 6160TIP3   OH239894   1.944   4.989   3.921  0.3242 -0.8195 -0.4317
 6160TIP3    H139895   2.029   4.963   3.956 -0.0946 -0.5340  0.8434
 6160TIP3    H239896   1.955   5.081   3.897  0.6005 -1.0046 -1.0335
 6161TIP3   OH239897   3.897   5.028  13.202  0.4535 -0.4158 -0.4079
 6161TIP3    H139898   3.904   5.121  13.181 -0.7950  0.2498  1.7229
 6161TIP3    H239899   3.832   4.994  13.140 -1.3369  0.8963  0.6200
 6162TIP3   OH239900   6.563   4.425   0.573  0.1159  0.0587  0.1254
 6162TIP3    H139901   6.517   4.421   0.656  0.1130  0.6527  0.1553
 6162TIP3    H239902   6.655   4.438   0.596 -0.0717  1.7472  0.0238
 6163TIP3   OH239903   2.337   4.264   4.897 -0.1530  0.1124 -0.2164
 6163TIP3    H139904   2.276   4.303   4.960  1.1895  1.8379  0.1042
 6163TIP3    H239905   2.407   4.227   4.952  0.8285  1.2736 -0.6464
 6164TIP3   OH239906   6.236   2.537  12.082 -0.0626  0.2048  0.2713
 6164TIP3    H139907   6.236   2.631  12.067 -0.6578  0.1877  0.1507
 6164TIP3    H239908   6.225   2.528  12.177 -2.3781  0.2411  0.0526
 6165TIP3   OH239909   6.063   5.549   4.237 -1.1045 -0.5481 -0.1437
 6165TIP3    H139910   5.977   5.568   4.200 -1.8478 -0.9498  1.3309
 6165TIP3    H239911   6.077   5.456   4.219  0.0928 -0.0121 -2.4295
 6166TIP3   OH239912   1.807   1.122   4.737  0.2693 -0.8155  0.2004
 6166TIP3    H139913   1.764   1.192   4.687  0.0466 -0.5010  0.8255
 6166TIP3    H239914   1.781   1.138   4.828  2.4189 -0.0769  0.7404
 6167TIP3   OH239915   1.779   0.447  12.091  0.3890 -0.5662 -0.2485
 6167TIP3    H139916   1.861   0.417  12.128  1.4616  1.4152 -0.8499
 6167TIP3    H239917   1.736   0.495  12.162  0.2948 -0.6414 -0.2548
 6168TIP3   OH239918   0.386   2.393   3.113  0.2249 -0.1476  0.5797
 6168TIP3    H139919   0.341   2.321   3.158 -0.6478  0.0767  0.0862
 6168TIP3    H239920   0.322   2.426   3.050  0.5485  1.1908  0.9272
 6169TIP3   OH239921   4.535   6.395  16.075 -0.2509 -0.3715  0.2057
 6169TIP3    H139922   4.491   6.359  15.998  0.6050  1.3307 -1.1517
 6169TIP3    H239923   4.468   6.396  16.143 -1.3062 -1.0448 -0.7798
 6170TIP3   OH239924   3.869   5.974  15.526  0.0550  0.0261  0.0041
 6170TIP3    H139925   3.838   5.888  15.498 -1.1847  0.5779 -0.4073
 6170TIP3    H239926   3.840   6.033  15.457  1.4552  0.6932 -0.0331
 6171TIP3   OH239927   1.977   1.181   5.653 -0.1897  0.3470 -0.2385
 6171TIP3    H139928   1.904   1.157   5.711  0.3231  0.0489  0.2935
 6171TIP3    H239929   2.002   1.269   5.680 -0.3513  0.4505 -0.4236
 6172TIP3   OH239930   4.106   6.759  14.431  0.0284  0.3270  0.3679
 6172TIP3    H139931   4.049   6.832  14.457 -0.2251  0.0231  0.6904
 6172TIP3    H239932   4.093   6.750  14.337 -2.0990 -1.0675  0.7135
 6173TIP3   OH239933   5.323   6.590   1.851 -0.2293  0.2131 -0.1331
 6173TIP3    H139934   5.395   6.601   1.913  0.7653  0.4357 -1.2859
 6173TIP3    H239935   5.358   6.622   1.768 -1.5516 -0.0014 -0.7956
 6174TIP3   OH239936   3.980   1.264  14.939  0.2004 -0.0299 -0.1740
 6174TIP3    H139937   3.944   1.310  15.015 -0.1549  0.3061 -0.5366
 6174TIP3    H239938   4.005   1.334  14.879 -0.4467 -0.3057 -0.7816
 6175TIP3   OH239939   6.326   3.455  15.131 -0.9857  0.1581 -0.0929
 6175TIP3    H139940   6.245   3.412  15.159 -0.0091 -0.7006  1.5612
 6175TIP3    H239941   6.396   3.398  15.163  0.2891  1.2253 -0.8800
 6176TIP3   OH239942   2.343   0.612  12.618  0.3845 -0.2854  0.0649
 6176TIP3    H139943   2.334   0.678  12.687  2.9281 -0.2340  0.4400
 6176TIP3    H239944   2.437   0.597  12.612 -0.0477 -3.2538 -0.6432
 6177TIP3   OH239945   4.452   5.926   2.904 -0.3509 -0.2653  0.2501
 6177TIP3    H139946   4.527   5.878   2.870 -0.8304 -1.3807  0.7497
 6177TIP3    H239947   4.457   6.012   2.861  0.2108 -0.9297 -1.0536
 6178TIP3   OH239948   5.755   5.261   3.402  0.4321  0.4281 -0.5531
 6178TIP3    H139949   5.742   5.355   3.402 -0.3089  0.3329 -0.5263
 6178TIP3    H239950   5.701   5.229   3.330 -1.6211 -0.2465  1.1617
 6179TIP3   OH239951   2.142   5.001  10.928 -0.1213 -0.4016  0.2771
 6179TIP3    H139952   2.102   4.914  10.930 -0.8761 -0.0429  1.2229
 6179TIP3    H239953   2.237   4.984  10.933 -0.3064 -1.1309  1.8154
 6180TIP3   OH239954   1.926   4.111  16.655  0.2138  0.3387  0.1779
 6180TIP3    H139955   1.942   4.133  16.747  2.1507 -0.5006  0.0914
 6180TIP3    H239956   1.952   4.190  16.607 -2.0366  1.2621  0.3721
 6181TIP3   OH239957   3.562   4.189   4.646  0.0858 -0.2551  0.1107
 6181TIP3    H139958   3.483   4.239   4.625  0.9223  1.0767  0.0433
 6181TIP3    H239959   3.552   4.166   4.738  0.1133  0.8463  0.3954
 6182TIP3   OH239960   1.142   2.390   4.525  0.0064 -0.3677 -0.1814
 6182TIP3    H139961   1.186   2.453   4.582 -0.3285 -0.0832 -0.2290
 6182TIP3    H239962   1.132   2.312   4.579  1.9825 -1.0074 -0.6655
 6183TIP3   OH239963   2.563   5.112  12.000 -0.3196  0.0512  0.0538
 6183TIP3    H139964   2.469   5.123  11.989 -0.4830 -1.3920 -0.1100
 6183TIP3    H239965   2.591   5.067  11.920  0.4295  0.0408  0.3159
 6184TIP3   OH239966   6.732   4.217   0.939 -0.2213 -0.1961  0.4206
 6184TIP3    H139967   6.743   4.134   0.985  0.7116 -0.1138  0.3696
 6184TIP3    H239968   6.757   4.284   1.003 -0.0689 -0.0171  0.1789
 6185TIP3   OH239969   5.315   5.201   3.522 -0.7763 -0.0373 -0.5870
 6185TIP3    H139970   5.307   5.127   3.582 -0.5416  0.6064  0.2547
 6185TIP3    H239971   5.366   5.167   3.449  0.4443 -0.3581  0.3854
 6186TIP3   OH239972   2.409   1.940   2.562  0.4784  0.7077 -0.1693
 6186TIP3    H139973   2.467   1.894   2.501 -0.2941  0.6499 -0.8828
 6186TIP3    H239974   2.467   1.989   2.619  1.2269  0.7105 -0.9185
 6187TIP3   OH239975   4.372   0.847  15.515 -0.6534 -0.5502  0.0898
 6187TIP3    H139976   4.313   0.900  15.568 -0.3830 -1.3152  1.1817
 6187TIP3    H239977   4.390   0.770  15.568 -0.8298 -1.6286 -1.3525
 6188TIP3   OH239978   2.219   4.382   5.667 -0.3359  0.0445 -0.0959
 6188TIP3    H139979   2.144   4.342   5.711 -0.2855  1.4428  1.3531
 6188TIP3    H239980   2.276   4.412   5.738  0.7286  0.6180 -1.1436
 6189TIP3   OH239981   5.218   0.889   3.714 -0.6543 -0.2960 -0.0839
 6189TIP3    H139982   5.131   0.907   3.750 -0.0319  0.2690  1.1728
 6189TIP3    H239983   5.242   0.804   3.750 -1.0519 -0.8995 -1.1843
 6190TIP3   OH239984   3.026   6.273  10.666 -0.2497 -0.3976 -0.0031
 6190TIP3    H139985   3.121   6.270  10.652 -0.5058 -2.3038 -1.8351
 6190TIP3    H239986   3.016   6.269  10.761  1.5224 -3.8321  0.2046
 6191TIP3   OH239987   5.865   4.436  11.171  0.4167 -0.4557  0.2025
 6191TIP3    H139988   5.874   4.476  11.258  1.4056 -0.4586  0.1130
 6191TIP3    H239989   5.939   4.471  11.121 -0.7143  0.3465 -0.9666
 6192TIP3   OH239990   2.421   3.235   5.145  0.0981 -0.0393 -0.8839
 6192TIP3    H139991   2.488   3.284   5.193 -1.7074  0.1055  1.7012
 6192TIP3    H239992   2.367   3.302   5.104  0.4488 -0.0905 -1.4416
 6193TIP3   OH239993   1.398   1.394   3.803 -0.2032  0.1819 -0.0765
 6193TIP3    H139994   1.335   1.398   3.731  0.7931 -0.0903 -0.9803
 6193TIP3    H239995   1.400   1.302   3.827 -0.7827  0.3211  0.5468
 6194TIP3   OH239996   6.537   3.692   6.059  0.8553  0.4100  0.3346
 6194TIP3    H139997   6.522   3.680   6.153 -0.3976  0.8191  0.2062
 6194TIP3    H239998   6.558   3.785   6.050  2.2762  0.1084  0.3483
 6195TIP3   OH239999   6.704   0.045   4.499 -0.5419 -0.6747  0.3770
 6195TIP3    H140000   6.684   0.091   4.581 -2.5729 -0.9032  0.0696
 6195TIP3    H240001   6.627  -0.010   4.484 -0.2276 -0.6290 -1.6846
 6196TIP3   OH240002   0.593   4.811  16.010  0.0234 -0.0546 -0.6007
 6196TIP3    H140003   0.636   4.728  15.989  0.6201  0.7298 -2.8205
 6196TIP3    H240004   0.662   4.866  16.046 -0.0874 -0.1240 -0.2801
 6197TIP3   OH240005   4.829   1.933   1.317 -0.4216  0.0668 -0.1915
 6197TIP3    H140006   4.742   1.926   1.356 -0.1724 -0.4873  0.2791
 6197TIP3    H240007   4.880   1.981   1.382 -0.1738 -0.2935 -0.1192
 6198TIP3   OH240008   1.535   4.959  15.687 -0.8890  0.2395  0.0688
 6198TIP3    H140009   1.588   4.904  15.628 -0.6410  0.3940  0.1456
 6198TIP3    H240010   1.538   5.046  15.647 -2.2333 -0.0332 -0.6742
 6199TIP3   OH240011   1.113   5.699  14.759 -0.0178 -0.4462 -0.1786
 6199TIP3    H140012   1.102   5.604  14.760 -0.2856 -0.4089  0.7529
 6199TIP3    H240013   1.027   5.733  14.735  0.2391 -0.4521 -1.1462
 6200TIP3   OH240014   6.184   2.120   1.835 -0.2585  0.7780 -0.2265
 6200TIP3    H140015   6.246   2.163   1.775 -0.6092  0.6152 -0.7076
 6200TIP3    H240016   6.168   2.186   1.903  0.5857  0.7579  0.0104
 6201TIP3   OH240017   5.435   1.520  10.242  0.8677 -0.1859  0.3424
 6201TIP3    H140018   5.401   1.596  10.195  0.8218  0.4741  1.4011
 6201TIP3    H240019   5.361   1.488  10.293  1.5809  0.8475  2.1337
 6202TIP3   OH240020   3.960   3.847  13.937 -0.0157 -0.4869 -0.6611
 6202TIP3    H140021   4.005   3.843  13.853 -0.1385  3.2740 -1.0927
 6202TIP3    H240022   4.025   3.815  14.000  0.1618 -3.1179 -2.0666
 6203TIP3   OH240023   6.276   4.057  16.868 -0.3190 -0.2592  0.2846
 6203TIP3    H140024   6.226   4.080  16.789  0.1413 -0.9633 -0.2322
 6203TIP3    H240025   6.325   4.136  16.890  0.0636 -0.2487 -0.5504
 6204TIP3   OH240026   5.749   0.895   6.296  0.8319 -0.2774 -0.0513
 6204TIP3    H140027   5.780   0.825   6.239  0.6189 -0.0776 -0.4152
 6204TIP3    H240028   5.656   0.876   6.309  1.3049 -1.5094  1.9471
 6205TIP3   OH240029   2.172   5.815  14.188 -0.0068 -0.0025  0.8361
 6205TIP3    H140030   2.230   5.826  14.263 -1.7320 -0.0583  2.2451
 6205TIP3    H240031   2.185   5.725  14.159  0.9157  0.1262  0.8488
 6206TIP3   OH240032   1.531   0.451  16.345 -0.0123  0.4342  0.4926
 6206TIP3    H140033   1.529   0.384  16.412 -1.5608 -2.0580 -1.8233
 6206TIP3    H240034   1.621   0.483  16.345  0.5395 -0.9698  2.2920
 6207TIP3   OH240035   5.489   3.146   2.824  0.1101 -0.2860 -0.8290
 6207TIP3    H140036   5.414   3.203   2.843  1.8815  1.9988 -0.1402
 6207TIP3    H240037   5.518   3.174   2.736  0.8253 -0.2865 -0.6032
 6208TIP3   OH240038   4.878   6.153   4.803 -0.4049  0.1682 -0.1404
 6208TIP3    H140039   4.878   6.199   4.887 -1.4083  0.8146 -0.4726
 6208TIP3    H240040   4.819   6.205   4.748  0.5320 -0.0248 -1.3643
 6209TIP3   OH240041   4.988   3.132  13.032  0.6094  0.0570  0.8482
 6209TIP3    H140042   4.902   3.127  12.991  0.8175 -0.0309  0.4072
 6209TIP3    H240043   4.994   3.221  13.067 -0.1231 -0.3053  1.9365
 6210TIP3   OH240044   6.617   4.642   2.340  0.5108  0.2224  0.1209
 6210TIP3    H140045   6.594   4.579   2.272  0.6531 -0.3353  0.5833
 6210TIP3    H240046   6.697   4.606   2.380  0.9106  0.9750  0.0239
 6211TIP3   OH240047   0.783   3.751  16.140  0.5217 -0.6653  0.0689
 6211TIP3    H140048   0.804   3.657  16.133  1.9491 -0.2860 -1.5226
 6211TIP3    H240049   0.852   3.786  16.198  0.8178 -0.3828 -0.4490
 6212TIP3   OH240050   4.790   3.366   2.311  0.2466  0.0532 -0.4586
 6212TIP3    H140051   4.874   3.381   2.355  0.5052  1.0378 -1.2394
 6212TIP3    H240052   4.812   3.364   2.218 -0.4116 -1.1275 -0.6061
 6213TIP3   OH240053   1.957   4.879   4.340  0.1332 -0.4143 -0.2388
 6213TIP3    H140054   1.938   4.818   4.269  1.7978 -0.6953 -0.4681
 6213TIP3    H240055   2.035   4.844   4.382  0.4496  0.9359  0.3581
 6214TIP3   OH240056   0.299   2.549  15.839  0.5313 -0.3020 -0.0121
 6214TIP3    H140057   0.361   2.516  15.774  0.9232  0.4940 -0.0474
 6214TIP3    H240058   0.354   2.584  15.910  0.1938  1.5660 -0.6071
 6215TIP3   OH240059   0.471   5.735  14.772  0.1233  0.1046 -0.1235
 6215TIP3    H140060   0.564   5.751  14.753  0.1242  0.1755 -0.0579
 6215TIP3    H240061   0.468   5.643  14.800  0.3764  0.4913  1.1983
 6216TIP3   OH240062   0.944   0.841   2.579  0.2259  0.5484 -0.0719
 6216TIP3    H140063   0.937   0.826   2.485 -1.0407  2.9984 -0.4495
 6216TIP3    H240064   0.860   0.812   2.615  0.0796  1.1377  0.0644
 6217TIP3   OH240065   3.667   1.842  12.969  0.3575  0.1969 -0.7102
 6217TIP3    H140066   3.586   1.825  12.921 -0.4969 -0.1253  0.7825
 6217TIP3    H240067   3.657   1.931  13.002 -0.9101 -0.8869  2.1766
 6218TIP3   OH240068   3.156   4.680  11.775  0.2680 -0.0736 -0.1535
 6218TIP3    H140069   3.125   4.593  11.751 -2.2560  0.8628 -0.5919
 6218TIP3    H240070   3.081   4.738  11.759 -0.5080  1.3347  5.9539
 6219TIP3   OH240071   4.952   1.015  11.874 -0.4621 -0.2254  0.3820
 6219TIP3    H140072   4.915   0.950  11.933  3.1555 -0.3718  2.7779
 6219TIP3    H240073   4.935   0.980  11.786 -1.7040 -2.5630  1.4670
 6220TIP3   OH240074   6.488   0.321   6.187 -0.7511  0.4624  0.4901
 6220TIP3    H140075   6.413   0.354   6.138 -0.2112 -0.6127 -1.1570
 6220TIP3    H240076   6.561   0.376   6.159 -0.7586  1.0357  1.5344
 6221TIP3   OH240077   2.324   1.856   3.751  0.0118  0.2606 -0.1875
 6221TIP3    H140078   2.359   1.823   3.833 -1.3300 -1.6196 -0.3153
 6221TIP3    H240079   2.314   1.950   3.766  0.2469  0.0315  1.6264
 6222TIP3   OH240080   5.026   6.223  14.964  0.1812 -0.4406  0.3932
 6222TIP3    H140081   4.989   6.274  14.892 -1.0411 -0.4991  0.9595
 6222TIP3    H240082   4.973   6.143  14.966 -0.3036 -0.1143  1.8234
 6223TIP3   OH240083   5.730   4.375  16.260  0.6423  0.1935 -0.6408
 6223TIP3    H140084   5.640   4.346  16.247  0.5440  0.3049 -0.2295
 6223TIP3    H240085   5.780   4.295  16.277  1.2472 -0.2864 -4.0102
 6224TIP3   OH240086   1.710   4.550  15.782 -0.3586 -0.1434 -0.3100
 6224TIP3    H140087   1.619   4.563  15.809 -1.1602  0.7247 -3.1456
 6224TIP3    H240088   1.745   4.638  15.767  0.8014 -0.4868  0.2250
 6225TIP3   OH240089   0.299   3.725  12.794  0.6678  0.3910 -0.5297
 6225TIP3    H140090   0.336   3.716  12.706  1.1724 -0.7902 -0.2212
 6225TIP3    H240091   0.365   3.685  12.851 -0.7223 -1.1071  0.1238
 6226TIP3   OH240092   3.845   3.215   1.907  0.0405 -0.2864 -0.2800
 6226TIP3    H140093   3.774   3.156   1.931  0.0484 -0.7785 -1.3986
 6226TIP3    H240094   3.804   3.301   1.897 -0.2248 -0.3842 -0.0243
 6227TIP3   OH240095   1.800   1.484  15.947  0.3911  0.6776 -0.2367
 6227TIP3    H140096   1.872   1.523  15.898  0.1572 -0.6866 -1.7946
 6227TIP3    H240097   1.823   1.391  15.953  0.4507  0.7889  2.4194
 6228TIP3   OH240098   6.653   4.675   3.427 -0.4463  0.1313 -0.7363
 6228TIP3    H140099   6.644   4.602   3.367  0.5444  0.1757 -0.9586
 6228TIP3    H240100   6.696   4.744   3.376 -1.9917  1.1431 -0.7425
 6229TIP3   OH240101   4.227   3.255   1.686  0.2654  0.0485  0.5145
 6229TIP3    H140102   4.133   3.275   1.681 -0.0564 -1.4851 -0.2629
 6229TIP3    H240103   4.231   3.171   1.731  1.5281  1.5364  3.4817
 6230TIP3   OH240104   6.564   2.149  12.911  0.0256 -0.4784  0.2748
 6230TIP3    H140105   6.503   2.176  12.843 -0.3610 -1.1040  0.3610
 6230TIP3    H240106   6.570   2.225  12.969 -0.0393 -0.1244 -0.1781
 6231TIP3   OH240107   4.110   4.369   4.065 -0.6210  0.0978 -0.5228
 6231TIP3    H140108   4.205   4.367   4.052 -0.2321 -2.7876  1.7520
 6231TIP3    H240109   4.098   4.422   4.144 -1.1341  1.8043 -1.6927
 6232TIP3   OH240110   6.668   2.289   3.065 -0.0784 -0.3412 -0.0892
 6232TIP3    H140111   6.728   2.322   3.133  0.7672  0.9274 -1.3971
 6232TIP3    H240112   6.726   2.246   3.002 -0.8675 -1.5798 -0.0034
 6233TIP3   OH240113   3.989   3.924   0.295  0.0137  0.2728  0.9083
 6233TIP3    H140114   4.053   3.981   0.338  1.0056  0.5291 -0.8152
 6233TIP3    H240115   3.909   3.976   0.291  1.1927  2.0639 -1.5980
 6234TIP3   OH240116   4.911   6.514  10.619 -0.0453 -0.2070  0.2333
 6234TIP3    H140117   4.951   6.601  10.615 -0.2136 -0.1500 -0.1791
 6234TIP3    H240118   4.983   6.453  10.601 -0.6125 -0.0139 -3.3594
 6235TIP3   OH240119   0.328   4.720   3.694  0.0049 -0.0502 -0.4313
 6235TIP3    H140120   0.357   4.810   3.682  0.4840 -0.2207 -0.5610
 6235TIP3    H240121   0.264   4.725   3.765  0.3117  0.3368 -0.1804
 6236TIP3   OH240122   1.247   1.865   0.337  0.7092 -0.4429 -0.3682
 6236TIP3    H140123   1.207   1.858   0.424 -1.1067  0.9305 -1.0142
 6236TIP3    H240124   1.295   1.783   0.325  1.3900 -0.4671  2.0948
 6237TIP3   OH240125   4.119   5.328  15.517 -0.0140  0.3307 -0.3609
 6237TIP3    H140126   4.120   5.407  15.572 -0.9146  0.6768 -0.8215
 6237TIP3    H240127   4.100   5.360  15.429  1.1771 -0.2510 -0.8508
 6238TIP3   OH240128   6.165   2.880  15.193 -0.2471  0.0007 -0.1922
 6238TIP3    H140129   6.151   2.804  15.137 -1.3337 -0.6572  0.9243
 6238TIP3    H240130   6.086   2.933  15.181  0.4371  0.9112 -0.8537
 6239TIP3   OH240131   1.104   4.525  12.618  0.1618 -0.4185  0.0499
 6239TIP3    H140132   1.056   4.603  12.643  1.2365 -0.3405  2.0219
 6239TIP3    H240133   1.056   4.491  12.542 -2.7249 -0.1138  1.6088
 6240TIP3   OH240134   1.218   0.848   0.641 -0.1145 -0.0905 -0.2492
 6240TIP3    H140135   1.304   0.882   0.667  0.3966 -0.5060 -1.3358
 6240TIP3    H240136   1.235   0.795   0.564 -0.7249 -3.7205  1.8796
 6241TIP3   OH240137   5.655   4.811   1.486  0.5771 -0.2532  0.3017
 6241TIP3    H140138   5.697   4.788   1.403  0.3950 -1.8612  0.6209
 6241TIP3    H240139   5.566   4.835   1.461  1.0788  1.1903 -0.1599
 6242TIP3   OH240140   1.465   5.918   1.439 -0.6006 -0.4510 -0.3268
 6242TIP3    H140141   1.490   5.976   1.511 -0.3467  1.3130 -1.7776
 6242TIP3    H240142   1.371   5.905   1.450 -0.2934 -1.7462  1.3440
 6243TIP3   OH240143   1.432   3.307   5.185  0.0648 -0.5886 -0.7209
 6243TIP3    H140144   1.445   3.374   5.252 -1.8139 -1.6449  0.8204
 6243TIP3    H240145   1.355   3.337   5.137  0.6906 -0.4425 -1.6559
 6244TIP3   OH240146   1.981   2.587  11.933  0.0254  0.2967  0.3945
 6244TIP3    H140147   1.940   2.608  12.016 -0.8094 -0.3041  0.1565
 6244TIP3    H240148   1.935   2.641  11.869 -1.3849 -1.3626 -0.0646
 6245TIP3   OH240149   1.813   1.843   3.581 -0.3084  0.0684  0.1688
 6245TIP3    H140150   1.815   1.841   3.485  0.3911 -0.6429  0.1923
 6245TIP3    H240151   1.751   1.913   3.602  0.6102  1.2158 -0.8036
 6246TIP3   OH240152   3.170   1.307  13.146  0.5522 -0.2379  0.2537
 6246TIP3    H140153   3.098   1.277  13.201  0.2560 -0.0975 -0.0564
 6246TIP3    H240154   3.151   1.271  13.059  0.6195  0.1754  0.0677
 6247TIP3   OH240155   1.256   0.339   4.531  0.3869  0.2037 -0.2057
 6247TIP3    H140156   1.208   0.390   4.466 -0.4460  0.8889  0.8831
 6247TIP3    H240157   1.226   0.249   4.518 -0.2011  0.4197 -0.4116
 6248TIP3   OH240158   0.105   3.042   0.443 -0.2028  0.2992 -0.2536
 6248TIP3    H140159   0.073   2.962   0.484  0.6622  0.8080  1.4964
 6248TIP3    H240160   0.027   3.097   0.434 -0.3784  0.2737  0.9646
 6249TIP3   OH240161   2.528   1.533  15.502 -0.4127  0.4892 -0.3213
 6249TIP3    H140162   2.579   1.603  15.462 -0.1525  1.6554  1.9134
 6249TIP3    H240163   2.448   1.575  15.533 -1.2332 -0.6507 -0.8062
 6250TIP3   OH240164   6.447   2.179   3.178 -0.3724 -0.3859 -0.0702
 6250TIP3    H140165   6.516   2.220   3.126  0.7640  0.7199  2.1824
 6250TIP3    H240166   6.429   2.241   3.249 -3.2117 -0.9612 -0.1458
 6251TIP3   OH240167   3.620   5.328   4.703 -0.1492 -0.4418 -0.4241
 6251TIP3    H140168   3.695   5.282   4.665 -0.8212 -2.2335  0.3220
 6251TIP3    H240169   3.552   5.261   4.712 -0.3324  0.0280  3.1050
 6252TIP3   OH240170   5.248   3.852   3.475 -0.0250 -0.2127 -0.0809
 6252TIP3    H140171   5.267   3.866   3.383  0.2913 -1.2387 -0.1834
 6252TIP3    H240172   5.238   3.757   3.483  1.5175 -0.3037  1.2322
 6253TIP3   OH240173   3.002   1.399  11.298 -0.3775 -0.0197 -0.6369
 6253TIP3    H140174   2.940   1.328  11.314 -0.1210  0.0255  0.6834
 6253TIP3    H240175   3.087   1.354  11.289  0.1804  0.1918  2.5180
 6254TIP3   OH240176   0.724   2.789  15.368  0.0968 -0.4520  0.4130
 6254TIP3    H140177   0.784   2.863  15.379 -0.2872 -0.1184  0.3148
 6254TIP3    H240178   0.637   2.829  15.370 -0.2074 -1.0895  2.1372
 6255TIP3   OH240179   4.238   4.811   2.784 -0.3106  0.7720 -0.2349
 6255TIP3    H140180   4.303   4.753   2.826  1.1171  0.5499 -2.5665
 6255TIP3    H240181   4.168   4.752   2.757 -0.3578  0.6363  0.1702
 6256TIP3   OH240182   4.458   6.456  11.156  0.0823  0.3190 -0.1609
 6256TIP3    H140183   4.552   6.470  11.169  0.6000  0.6191 -3.4465
 6256TIP3    H240184   4.453   6.380  11.098 -1.8756 -1.1909  1.8509
 6257TIP3   OH240185   5.896   2.972  15.714 -0.7592 -0.4033 -0.2898
 6257TIP3    H140186   5.935   2.918  15.646 -3.5929 -0.2702 -2.1790
 6257TIP3    H240187   5.810   2.997  15.679 -2.3289 -0.2098  3.2876
 6258TIP3   OH240188   3.858   3.146  14.706  0.1795 -0.1150  0.0021
 6258TIP3    H140189   3.917   3.071  14.703 -1.3348 -1.4849  1.8278
 6258TIP3    H240190   3.831   3.159  14.615  1.9846 -0.4893 -0.6219
 6259TIP3   OH240191   2.775   2.165  10.791  0.4932  0.4733  0.4292
 6259TIP3    H140192   2.829   2.168  10.870 -1.0076 -0.4452  1.5454
 6259TIP3    H240193   2.838   2.168  10.719  1.9924  0.0845  1.6650
 6260TIP3   OH240194   5.684   2.092  13.356 -0.0157  0.1805  0.5107
 6260TIP3    H140195   5.768   2.053  13.379  0.2719  0.1654 -0.4989
 6260TIP3    H240196   5.657   2.044  13.277 -1.9687 -1.2426  1.9369
 6261TIP3   OH240197   5.717   4.280   0.692 -0.1091 -0.2850 -0.6275
 6261TIP3    H140198   5.809   4.299   0.671 -0.0159 -0.2055 -0.1440
 6261TIP3    H240199   5.709   4.185   0.680 -0.2038 -0.1708 -1.5863
 6262TIP3   OH240200   2.291   3.433  14.594  0.4436  0.1617  0.3890
 6262TIP3    H140201   2.208   3.406  14.634  0.6279 -1.5752 -0.2934
 6262TIP3    H240202   2.277   3.524  14.568 -0.4941  0.5759  2.1842
 6263TIP3   OH240203   6.208   4.577   1.887  0.1061 -0.5298  0.1125
 6263TIP3    H140204   6.221   4.488   1.852 -2.9815 -0.9237 -0.3216
 6263TIP3    H240205   6.138   4.613   1.833  0.9637  2.0634  0.5960
 6264TIP3   OH240206   2.061   1.362  16.504  0.1453  0.6105  0.1402
 6264TIP3    H140207   1.965   1.360  16.510  0.1166 -2.4906  0.0185
 6264TIP3    H240208   2.091   1.315  16.581  1.2950 -2.9696 -2.2699
 6265TIP3   OH240209   5.294   1.265   0.546  0.3947 -0.3400  0.2716
 6265TIP3    H140210   5.355   1.313   0.489 -1.1914  2.2712  0.6120
 6265TIP3    H240211   5.328   1.279   0.634 -1.2246  2.2761  0.6071
 6266TIP3   OH240212   4.559   2.489  15.396 -0.1411  0.5300 -0.9716
 6266TIP3    H140213   4.524   2.487  15.307 -0.8882  0.5930 -0.6900
 6266TIP3    H240214   4.653   2.500  15.385 -0.2022  0.3059 -1.7568
 6267TIP3   OH240215   6.720   0.188   4.754 -0.3703 -0.6711  0.0302
 6267TIP3    H140216   6.699   0.218   4.842  0.4615  0.4657 -0.1362
 6267TIP3    H240217   6.777   0.256   4.718  0.7247 -1.9475 -0.7592
 6268TIP3   OH240218   3.644   0.454  11.596 -0.2155 -0.7439 -0.1927
 6268TIP3    H140219   3.605   0.523  11.543 -0.2311 -0.4965  0.1406
 6268TIP3    H240220   3.736   0.479  11.603 -0.1020 -1.0549 -0.5437
 6269TIP3   OH240221   3.058   2.578  13.793 -0.4607 -0.1092 -0.0232
 6269TIP3    H140222   2.971   2.573  13.755 -1.4095  0.6382  1.9429
 6269TIP3    H240223   3.052   2.647  13.859  1.1613 -1.1328  1.2830
 6270TIP3   OH240224   1.861   5.205   2.846 -0.1229 -0.0604 -0.1438
 6270TIP3    H140225   1.841   5.156   2.766 -0.4357 -0.7702  0.3475
 6270TIP3    H240226   1.775   5.232   2.879  0.1224  2.1075 -1.1620
 6271TIP3   OH240227   3.232   5.816   3.243  0.3738 -0.3196 -0.1673
 6271TIP3    H140228   3.206   5.905   3.222 -0.6256  0.0329  2.2009
 6271TIP3    H240229   3.314   5.802   3.196  0.0927  1.5229 -1.2643
 6272TIP3   OH240230   0.124   0.029   0.475 -0.4882  0.0068  0.1911
 6272TIP3    H140231   0.205   0.015   0.425 -0.4577  0.3027  0.1613
 6272TIP3    H240232   0.056   0.038   0.409 -0.3490  1.0696  0.1785
 6273TIP3   OH240233   3.400   2.700   1.165  0.1297  0.0047 -0.8365
 6273TIP3    H140234   3.395   2.780   1.217 -1.8951  0.0856 -1.0611
 6273TIP3    H240235   3.311   2.663   1.169 -0.3885  0.3683 -4.6789
 6274TIP3   OH240236   5.924   1.303  16.138 -0.0274 -0.6994 -0.9915
 6274TIP3    H140237   5.903   1.392  16.164 -1.7132 -1.0740 -0.9717
 6274TIP3    H240238   6.012   1.288  16.172 -0.0262  0.6829 -0.3255
 6275TIP3   OH240239   1.303   5.730   3.916  0.3141 -0.4443 -0.3491
 6275TIP3    H140240   1.285   5.771   3.831  2.5432  0.7822 -0.2957
 6275TIP3    H240241   1.221   5.688   3.939 -0.2345 -1.3062 -3.3705
 6276TIP3   OH240242   5.707   2.373  14.285 -0.4161 -0.0471 -0.0490
 6276TIP3    H140243   5.711   2.373  14.190  0.5769 -0.3984 -0.0191
 6276TIP3    H240244   5.625   2.328  14.306 -0.3980 -0.4021 -0.7318
 6277TIP3   OH240245   6.098   1.848  11.321  0.0834  0.7616 -0.0134
 6277TIP3    H140246   6.045   1.770  11.305  0.1407  0.8596 -0.7319
 6277TIP3    H240247   6.147   1.828  11.401  2.9783 -1.5357 -2.1630
 6278TIP3   OH240248   5.689   4.539   3.185 -0.1048 -0.5324 -0.1202
 6278TIP3    H140249   5.694   4.619   3.238  1.6917  0.2704 -1.3895
 6278TIP3    H240250   5.768   4.489   3.210 -0.1599 -0.9561 -0.7756
 6279TIP3   OH240251   5.694   1.620   0.912  0.3995 -0.7529 -0.4208
 6279TIP3    H140252   5.679   1.698   0.858  0.6473 -0.9822 -0.8228
 6279TIP3    H240253   5.648   1.639   0.994  0.0351 -0.3968 -0.7039
 6280TIP3   OH240254   2.906   6.016  15.311  0.0749 -0.2684 -0.3566
 6280TIP3    H140255   2.983   6.024  15.367  0.5563  1.0595 -1.1710
 6280TIP3    H240256   2.894   6.103  15.273  0.0270 -1.1931 -2.6260
 6281TIP3   OH240257   0.740   1.414  12.505 -0.1625 -0.0069 -0.1208
 6281TIP3    H140258   0.796   1.491  12.495  0.9057 -0.7807 -0.1952
 6281TIP3    H240259   0.706   1.397  12.417  0.0076  0.0635 -0.1988
 6282TIP3   OH240260   2.230   0.352   1.789 -0.7373 -0.3921  0.4877
 6282TIP3    H140261   2.162   0.312   1.734 -0.7777 -0.9204  0.9062
 6282TIP3    H240262   2.197   0.342   1.878 -1.4486  1.9266  0.5457
 6283TIP3   OH240263   1.750   0.661  15.970  0.0277  0.0083  0.1933
 6283TIP3    H140264   1.677   0.607  16.003 -0.7705 -1.0310 -2.9537
 6283TIP3    H240265   1.828   0.608  15.987 -0.4571 -0.8931 -0.3036
 6284TIP3   OH240266   0.418   6.052   0.510 -0.0601  0.3040 -0.0496
 6284TIP3    H140267   0.422   6.060   0.414 -0.5571  0.8259 -0.0341
 6284TIP3    H240268   0.429   5.959   0.527  3.3853  0.5073 -0.4377
 6285TIP3   OH240269   6.048   3.177   2.489 -0.2849  0.3213 -0.3744
 6285TIP3    H140270   6.123   3.203   2.542 -0.8518  3.0688 -0.7738
 6285TIP3    H240271   6.083   3.114   2.427  1.2710  0.1615  0.6072
 6286TIP3   OH240272   2.000   0.604  15.820  0.4384 -0.1975 -0.7040
 6286TIP3    H140273   2.015   0.661  15.895  0.2309 -0.8122 -0.1853
 6286TIP3    H240274   1.991   0.663  15.746 -1.0377  0.5169  0.0147
 6287TIP3   OH240275   5.086   1.775   2.767 -1.0440  0.5142 -0.2429
 6287TIP3    H140276   5.009   1.740   2.812 -0.4604  0.0433  0.4094
 6287TIP3    H240277   5.055   1.793   2.678 -0.9609 -3.5283 -1.2998
 6288TIP3   OH240278   1.488   4.136   4.297  0.1508  0.8136 -0.5535
 6288TIP3    H140279   1.530   4.221   4.286 -1.6791  1.6737 -1.2476
 6288TIP3    H240280   1.432   4.126   4.220 -1.2979 -0.0170  0.5487
 6289TIP3   OH240281   1.288   1.393   4.471  0.0432  0.1126  0.3802
 6289TIP3    H140282   1.322   1.477   4.438 -0.3764 -0.4141 -1.5207
 6289TIP3    H240283   1.364   1.350   4.511  0.8860  0.3243 -0.9337
 6290TIP3   OH240284   5.572   4.561  16.969 -0.3857  0.0960 -0.3011
 6290TIP3    H140285   5.527   4.481  16.939  0.4723 -1.6130  2.5422
 6290TIP3    H240286   5.623   4.589  16.894 -0.0144 -2.6050 -1.1672
 6291TIP3   OH240287   1.225   0.104  14.838 -0.7033  0.3017 -0.4831
 6291TIP3    H140288   1.295   0.142  14.785  0.9996 -3.6863 -1.5441
 6291TIP3    H240289   1.144   0.138  14.801  0.5761  2.5225 -1.4107
 6292TIP3   OH240290   1.410   5.874  14.391 -0.0030 -0.1118 -0.1582
 6292TIP3    H140291   1.373   5.935  14.455  0.4144  0.2401 -0.2459
 6292TIP3    H240292   1.497   5.855  14.424 -0.1999 -0.8124 -0.0360
 6293TIP3   OH240293   3.390   1.503  10.911 -0.4438 -0.4346 -0.4404
 6293TIP3    H140294   3.423   1.471  10.827  3.0091  0.1302  0.5543
 6293TIP3    H240295   3.349   1.587  10.890 -1.6801 -1.3309 -1.8165
 6294TIP3   OH240296   4.441   6.469  14.915  0.3055  0.5582  0.1956
 6294TIP3    H140297   4.450   6.458  15.010  1.5820 -0.6869 -0.0269
 6294TIP3    H240298   4.382   6.399  14.888 -0.0793  0.9294  0.0810
 6295TIP3   OH240299   1.452   0.154  12.034  0.2871  0.1782 -0.4495
 6295TIP3    H140300   1.451   0.112  11.948  2.0959  0.9162 -0.8639
 6295TIP3    H240301   1.359   0.167  12.054 -0.1841  0.8179 -2.7009
 6296TIP3   OH240302   0.199   3.185   3.307 -0.0647 -0.2939 -0.4150
 6296TIP3    H140303   0.124   3.130   3.286 -0.8458  1.4814 -2.6640
 6296TIP3    H240304   0.201   3.250   3.238  2.9344  0.3898  0.1732
 6297TIP3   OH240305   1.784   6.017   5.262 -0.5162  0.7332  0.3942
 6297TIP3    H140306   1.764   5.969   5.182 -1.6116  4.0086 -1.4818
 6297TIP3    H240307   1.862   5.974   5.296 -1.5622 -2.5161 -0.8231
 6298TIP3   OH240308   4.284   6.508   1.908  0.5519 -0.1422 -0.1037
 6298TIP3    H140309   4.360   6.567   1.904  1.4770 -1.1038  2.1661
 6298TIP3    H240310   4.316   6.430   1.952 -1.2794 -1.4035 -0.9065
 6299TIP3   OH240311   0.200   3.958   0.567 -0.0059  0.4039 -0.2011
 6299TIP3    H140312   0.198   4.010   0.487 -1.2425 -0.2231 -0.5948
 6299TIP3    H240313   0.281   3.985   0.611  1.2010  0.0531 -2.1010
 6300TIP3   OH240314   5.032   2.356   6.304 -0.5361  0.1812  0.6523
 6300TIP3    H140315   5.053   2.290   6.370 -1.3032 -0.9234 -0.1849
 6300TIP3    H240316   4.959   2.320   6.255  0.5267  0.6018 -1.3451
 6301TIP3   OH240317   1.383   3.552  17.163 -0.2732 -0.1426  0.0507
 6301TIP3    H140318   1.376   3.480  17.100  2.5229 -2.2035  1.8456
 6301TIP3    H240319   1.303   3.545  17.216 -0.2030 -1.8194  0.0019
 6302TIP3   OH240320   1.734   0.335  15.573  0.1232  0.3633  0.4247
 6302TIP3    H140321   1.758   0.274  15.643 -0.4322  0.9443  1.1380
 6302TIP3    H240322   1.733   0.421  15.616 -1.3793  0.5859 -0.0169
 6303TIP3   OH240323   4.938   5.592   3.146 -0.4749 -0.4358  0.4062
 6303TIP3    H140324   4.981   5.555   3.069  0.6724 -1.2682  1.4133
 6303TIP3    H240325   4.928   5.685   3.126  1.3381 -0.3146 -0.0712
 6304TIP3   OH240326   1.418   3.621  12.349  0.3376 -0.4977  0.0196
 6304TIP3    H140327   1.423   3.602  12.442  0.7079  0.7692  0.2834
 6304TIP3    H240328   1.498   3.583  12.312 -0.2538 -1.8013  0.0503
 6305TIP3   OH240329   5.520   4.071   0.980  0.5489 -0.8970  0.8860
 6305TIP3    H140330   5.510   3.976   0.980 -1.1458 -0.7578  1.1301
 6305TIP3    H240331   5.449   4.102   1.037 -0.4120  0.6420 -1.0473
 6306TIP3   OH240332   3.299   6.044  11.277 -0.1099  0.6613  0.2028
 6306TIP3    H140333   3.314   6.055  11.183 -1.3424 -0.3076 -0.1422
 6306TIP3    H240334   3.332   6.125  11.317  0.3567  1.1196 -1.0721
 6307TIP3   OH240335   6.049   1.969   5.958 -0.4701 -0.3543  0.2962
 6307TIP3    H140336   6.054   1.884   6.001 -0.0899 -0.2220  0.5220
 6307TIP3    H240337   6.065   2.032   6.028 -3.2063  0.0550  0.6501
 6308TIP3   OH240338   3.300   1.383   1.755  0.5206  0.2618 -0.0448
 6308TIP3    H140339   3.277   1.403   1.846  0.7335  0.4949 -0.0429
 6308TIP3    H240340   3.381   1.333   1.761  0.2788 -0.1400 -0.0805
 6309TIP3   OH240341   3.566   6.503   5.459 -0.0401 -0.2162 -0.5726
 6309TIP3    H140342   3.494   6.486   5.398 -0.7701  1.0522 -0.0912
 6309TIP3    H240343   3.531   6.568   5.519  1.5011  0.3713 -0.2882
 6310TIP3   OH240344   2.761   1.200   0.149 -0.0817 -0.0261 -0.6467
 6310TIP3    H140345   2.735   1.157   0.067 -1.4000 -0.6325  0.0635
 6310TIP3    H240346   2.688   1.259   0.169  0.2875  0.2056  0.0260
 6311TIP3   OH240347   5.121   2.318  15.854 -0.0954 -0.2060 -0.0547
 6311TIP3    H140348   5.120   2.374  15.932  0.3558 -1.0439  0.5570
 6311TIP3    H240349   5.123   2.380  15.781  1.6119  0.6007  0.6263
 6312TIP3   OH240350   6.400   2.648   4.438 -0.1106  0.8749  0.2736
 6312TIP3    H140351   6.461   2.694   4.495  0.8855  0.2330 -0.2588
 6312TIP3    H240352   6.390   2.704   4.362  2.0618 -0.2852 -0.9409
 6313TIP3   OH240353   5.538   3.770  16.155 -0.0178 -0.5774  0.0391
 6313TIP3    H140354   5.559   3.693  16.207 -1.0938 -0.6593  0.3781
 6313TIP3    H240355   5.622   3.801  16.123  0.5219 -1.3403  0.6812
 6314TIP3   OH240356   0.605   1.631   3.958  0.2472 -0.1434  0.1210
 6314TIP3    H140357   0.512   1.649   3.944  0.6534  2.7106  0.4944
 6314TIP3    H240358   0.608   1.588   4.044 -0.7072  0.1153  0.2965
 6315TIP3   OH240359   6.727   2.366  13.211 -0.4232  0.4182 -0.0787
 6315TIP3    H140360   6.750   2.292  13.268 -0.8403  0.8287  0.6321
 6315TIP3    H240361   6.667   2.419  13.264  0.1484  1.4561 -0.4456
 6316TIP3   OH240362   1.581   2.943   3.049 -1.0721  0.0605  0.7494
 6316TIP3    H140363   1.504   2.949   3.106 -0.7774 -0.2819  1.1991
 6316TIP3    H240364   1.643   3.005   3.086 -1.8433  1.8688 -0.8165
 6317TIP3   OH240365   5.324   4.776   6.206  0.2421  0.5928  0.0936
 6317TIP3    H140366   5.388   4.717   6.166 -0.5712 -0.6217  0.5151
 6317TIP3    H240367   5.276   4.814   6.132  2.3417  2.6474 -0.3124
 6318TIP3   OH240368   4.081   2.709   1.601  0.0440  0.0965  0.0720
 6318TIP3    H140369   4.067   2.771   1.530  0.8111 -0.2200 -0.3581
 6318TIP3    H240370   4.120   2.633   1.560  0.0134 -0.2977  0.7530
 6319TIP3   OH240371   3.614   4.172   0.792  0.5434 -0.6759 -0.4147
 6319TIP3    H140372   3.618   4.162   0.697  0.0982 -1.0682 -0.3926
 6319TIP3    H240373   3.627   4.084   0.827 -1.2792 -0.8868 -0.1692
 6320TIP3   OH240374   5.456   0.413  16.812 -0.4201  0.5949  0.7021
 6320TIP3    H140375   5.535   0.381  16.856  0.6974  1.3675 -0.6681
 6320TIP3    H240376   5.484   0.429  16.722 -2.1135  1.0370  0.2305
 6321TIP3   OH240377   1.286   2.119   0.409 -0.6233 -0.0150 -0.2170
 6321TIP3    H140378   1.216   2.112   0.473 -2.1221 -1.6115 -1.9166
 6321TIP3    H240379   1.273   2.045   0.350  1.8408  0.2777 -1.2642
 6322TIP3   OH240380   4.913   4.543   4.809  0.1478  0.1878 -0.0147
 6322TIP3    H140381   4.941   4.616   4.753 -1.6656  0.2043 -0.9628
 6322TIP3    H240382   4.827   4.569   4.842 -0.0774 -1.0819  0.4623
 6323TIP3   OH240383   2.742   0.405  13.876 -0.1134  0.1394 -0.0458
 6323TIP3    H140384   2.809   0.340  13.898 -1.7910 -2.1791 -1.2832
 6323TIP3    H240385   2.673   0.354  13.834 -0.1433  3.1488 -4.2659
 6324TIP3   OH240386   4.666   2.215   2.009  0.3395 -0.2933  1.1343
 6324TIP3    H140387   4.671   2.288   1.947  1.9282 -0.5996  0.8387
 6324TIP3    H240388   4.631   2.142   1.958  0.2740 -0.1563  0.9828
 6325TIP3   OH240389   1.321   4.417   0.583  0.2943 -0.9290 -0.0972
 6325TIP3    H140390   1.364   4.385   0.503 -0.8335 -0.1082 -1.0692
 6325TIP3    H240391   1.276   4.341   0.618  0.9543 -1.3442 -0.1216
 6326TIP3   OH240392   2.919   4.386   3.135 -0.3922  0.0116 -0.1631
 6326TIP3    H140393   2.853   4.328   3.096  0.1229 -1.4250  1.0386
 6326TIP3    H240394   2.926   4.459   3.073  0.2210 -2.0353 -2.6607
 6327TIP3   OH240395   4.731   5.349   0.689  0.4784  0.0596  0.2617
 6327TIP3    H140396   4.730   5.340   0.594 -1.6048  2.2965 -0.0134
 6327TIP3    H240397   4.823   5.366   0.710  0.5364  3.0364 -1.8209
 6328TIP3   OH240398   6.397   1.074  12.848 -0.1910 -0.2644  0.2401
 6328TIP3    H140399   6.486   1.051  12.876 -0.0969 -2.5939 -1.6293
 6328TIP3    H240400   6.399   1.067  12.753 -2.0712  1.0081  0.0497
 6329TIP3   OH240401   6.739   2.766   4.846 -0.7531 -0.5531 -0.3779
 6329TIP3    H140402   6.728   2.858   4.826 -0.9154 -0.4550  0.1453
 6329TIP3    H240403   6.831   2.757   4.870 -0.6224 -0.6215 -0.8916
 6330TIP3   OH240404   1.130   6.257  16.489  0.4876 -0.6653  0.2661
 6330TIP3    H140405   1.146   6.319  16.419  0.2783  0.6112  1.3182
 6330TIP3    H240406   1.208   6.202  16.491  0.9404 -0.0504 -0.2885
 6331TIP3   OH240407   5.894   1.790   0.548  0.1194 -0.4466  0.0080
 6331TIP3    H140408   5.951   1.866   0.543 -0.5006 -0.0766 -2.2937
 6331TIP3    H240409   5.941   1.729   0.605  1.7436  0.7217 -0.0234
 6332TIP3   OH240410   1.525   3.144   1.910  0.5712  0.0087 -0.1180
 6332TIP3    H140411   1.491   3.124   1.823 -3.5687 -0.8442  1.4114
 6332TIP3    H240412   1.463   3.208   1.945  2.8986  1.3641  1.7464
 6333TIP3   OH240413   4.599   4.164   2.286 -0.2274 -0.6834 -0.2518
 6333TIP3    H140414   4.593   4.240   2.344  0.7944  0.4313 -1.5318
 6333TIP3    H240415   4.582   4.089   2.343  0.4825  0.3706  1.4271
 6334TIP3   OH240416   0.317   1.376  16.554  0.4976  0.0461 -0.0104
 6334TIP3    H140417   0.239   1.367  16.610 -0.3862 -0.0859 -1.2307
 6334TIP3    H240418   0.319   1.296  16.502  2.3189 -0.6398  1.0114
 6335TIP3   OH240419   2.202   0.499   0.763  0.5746 -0.2261 -0.9459
 6335TIP3    H140420   2.163   0.570   0.815  2.0140 -0.7195  0.9420
 6335TIP3    H240421   2.140   0.426   0.771  1.6938 -1.0050  2.0292
 6336TIP3   OH240422   3.369   4.621   4.906  0.2682 -0.5726  0.0788
 6336TIP3    H140423   3.353   4.527   4.902 -4.1354 -0.0287 -1.2770
 6336TIP3    H240424   3.438   4.637   4.841  1.2027 -2.8081  0.4376
 6337TIP3   OH240425   1.024   4.259  12.716  0.1439 -0.9453 -0.2727
 6337TIP3    H140426   0.928   4.252  12.712  0.1898 -1.2020 -1.5942
 6337TIP3    H240427   1.041   4.352  12.725 -0.2463 -1.0840  2.6357
 6338TIP3   OH240428   2.856   2.267   1.983  0.4553 -0.0282 -0.2141
 6338TIP3    H140429   2.936   2.215   1.977 -0.2107 -1.2165  0.6065
 6338TIP3    H240430   2.821   2.267   1.894 -0.1125 -2.0347 -0.0532
 6339TIP3   OH240431   4.531   3.227  12.629  0.3161  0.1033  0.6982
 6339TIP3    H140432   4.528   3.154  12.690 -0.3363 -0.4844 -0.0110
 6339TIP3    H240433   4.439   3.249  12.613  0.5103  1.4099  1.2787
 6340TIP3   OH240434   4.037   4.635  12.132  0.4383  0.5360 -0.2171
 6340TIP3    H140435   3.942   4.625  12.127  0.4240  0.5140  0.0822
 6340TIP3    H240436   4.064   4.647  12.041  0.2018  0.0733 -0.3563
 6341TIP3   OH240437   4.280   3.786   5.487 -0.2754 -0.3598  0.0519
 6341TIP3    H140438   4.333   3.714   5.522  1.6937  1.1726  0.3774
 6341TIP3    H240439   4.272   3.765   5.394  0.9214 -0.6520 -0.0072
 6342TIP3   OH240440   3.035   3.371  15.666 -0.1735  0.5786  0.0564
 6342TIP3    H140441   3.099   3.321  15.716 -1.1498 -0.5235  0.2484
 6342TIP3    H240442   2.960   3.312  15.656 -1.5644  2.1318  0.6909
 6343TIP3   OH240443   5.878   2.515   3.082  0.4059 -0.0512  0.2247
 6343TIP3    H140444   5.850   2.442   3.027  1.7595  0.4228 -1.1663
 6343TIP3    H240445   5.831   2.591   3.048  2.4845  0.5695 -1.5115
 6344TIP3   OH240446   1.014   1.539  13.558 -0.1221 -0.3793 -0.1930
 6344TIP3    H140447   0.958   1.463  13.549  1.5933 -1.6770 -0.5408
 6344TIP3    H240448   1.101   1.503  13.579  0.9749  1.3923 -1.3597
 6345TIP3   OH240449   0.397   4.823   5.135 -0.4381 -0.0082 -0.3162
 6345TIP3    H140450   0.380   4.880   5.059 -0.8162  1.2145  0.6494
 6345TIP3    H240451   0.344   4.745   5.119 -2.3010  1.1758 -0.2719
 6346TIP3   OH240452   1.815   0.816   3.389 -0.4771 -0.2412  0.3923
 6346TIP3    H140453   1.890   0.759   3.373 -0.3137  0.4344 -1.5562
 6346TIP3    H240454   1.846   0.878   3.454  0.4409 -0.3868  0.1160
 6347TIP3   OH240455   0.873   4.739   3.780  0.1325 -0.3727 -0.4138
 6347TIP3    H140456   0.909   4.651   3.768 -1.9008 -1.1927 -0.8440
 6347TIP3    H240457   0.877   4.779   3.694  0.4787 -0.2680 -0.3506
 6348TIP3   OH240458   5.160   4.130   2.309 -0.2850  0.3516 -0.5069
 6348TIP3    H140459   5.075   4.170   2.327 -0.0384  0.4672  0.4328
 6348TIP3    H240460   5.196   4.109   2.395 -0.8568 -2.8892 -0.9065
 6349TIP3   OH240461   6.240   2.107  11.661  0.3819 -0.4078  0.7965
 6349TIP3    H140462   6.159   2.136  11.703  0.1217 -1.4568  1.0528
 6349TIP3    H240463   6.227   2.124  11.568 -0.0268 -0.3322  0.8682
 6350TIP3   OH240464   3.530   3.974   5.140  0.1124  0.7816  0.1089
 6350TIP3    H140465   3.537   3.916   5.216 -1.3950 -0.3569 -0.5523
 6350TIP3    H240466   3.616   3.969   5.097  0.3331 -0.1626  0.6358
 6351TIP3   OH240467   5.116   1.407   1.665 -0.7218  0.1673  0.0018
 6351TIP3    H140468   5.178   1.478   1.682 -0.9661  0.3274  0.2441
 6351TIP3    H240469   5.071   1.433   1.585 -1.1505  0.5361  0.3494
 6352TIP3   OH240470   2.704   2.517   4.844  0.7305  1.2710 -0.7643
 6352TIP3    H140471   2.790   2.557   4.855  1.1685  0.7715 -2.1361
 6352TIP3    H240472   2.697   2.500   4.750  0.5342 -1.7289 -0.3160
 6353TIP3   OH240473   4.314   0.231   2.418  0.2858  0.1329 -0.0047
 6353TIP3    H140474   4.377   0.291   2.458  1.0635 -1.1597  0.7958
 6353TIP3    H240475   4.336   0.146   2.455 -2.6471 -0.2247  1.1411
 6354TIP3   OH240476   0.657   3.847   2.171  0.5921  0.1933 -0.3093
 6354TIP3    H140477   0.604   3.780   2.127  1.9184 -2.5618  1.9212
 6354TIP3    H240478   0.712   3.884   2.101 -0.7083 -0.4966 -1.7609
 6355TIP3   OH240479   2.113   1.378  16.219 -0.2134  0.3312  0.3251
 6355TIP3    H140480   2.207   1.392  16.231 -0.5090  2.1367  0.8051
 6355TIP3    H240481   2.079   1.372  16.308 -0.6085  0.1386  0.1581
 6356TIP3   OH240482   0.786   5.108   4.163 -0.0541  0.0092  0.0197
 6356TIP3    H140483   0.790   5.031   4.106  0.4414  0.3041 -0.3556
 6356TIP3    H240484   0.872   5.150   4.152  0.6166 -0.6961  2.0606
 6357TIP3   OH240485   2.553   6.645   1.697  0.1068  0.0420 -0.1576
 6357TIP3    H140486   2.562   6.696   1.777 -1.1316  0.3716 -0.2132
 6357TIP3    H240487   2.632   6.664   1.647 -1.0328  3.3455 -0.9702
 6358TIP3   OH240488   2.602   4.249   1.804  0.6712  0.3490 -0.0203
 6358TIP3    H140489   2.556   4.231   1.886  0.5837  0.2730 -0.0869
 6358TIP3    H240490   2.534   4.273   1.742  0.5551 -1.1314 -0.5119
 6359TIP3   OH240491   2.532   0.781  15.431  0.2805 -0.0375  0.1002
 6359TIP3    H140492   2.600   0.766  15.366  0.0927  1.3228 -0.4431
 6359TIP3    H240493   2.572   0.840  15.494  0.4846 -1.3936  1.2901
 6360TIP3   OH240494   3.637   2.780   2.641 -0.1204  0.1901  0.3379
 6360TIP3    H140495   3.556   2.829   2.625 -0.0163  0.1834 -0.2226
 6360TIP3    H240496   3.627   2.746   2.730  0.0895  1.7833  1.0097
 6361TIP3   OH240497   4.446   2.987  12.446 -0.0181 -0.1114  0.0789
 6361TIP3    H140498   4.442   2.892  12.460 -0.2485 -0.1083  0.0360
 6361TIP3    H240499   4.384   3.023  12.509  0.0916  0.0139  0.1146
 6362TIP3   OH240500   6.732   6.091   0.864 -0.1665  0.2877 -0.1371
 6362TIP3    H140501   6.738   6.164   0.924 -0.3869  1.4729 -1.4978
 6362TIP3    H240502   6.718   6.014   0.920  0.1505  1.2575  1.3204
 6363TIP3   OH240503   1.633   0.881  14.760  0.0255  0.2872 -0.0436
 6363TIP3    H140504   1.585   0.957  14.728  0.4446  0.4709 -0.2430
 6363TIP3    H240505   1.725   0.905  14.752  0.1838 -0.5039 -0.8038
 6364TIP3   OH240506   2.513   2.333  16.871 -0.1945 -0.4360  0.0648
 6364TIP3    H140507   2.474   2.257  16.913 -0.5218  0.5114  1.5380
 6364TIP3    H240508   2.604   2.334  16.902  0.7809 -1.9430 -2.4013
 6365TIP3   OH240509   1.505   5.034   3.590 -0.2170  0.2924  0.0744
 6365TIP3    H140510   1.511   5.065   3.680  1.4789  0.7656 -0.1700
 6365TIP3    H240511   1.595   5.036   3.558 -0.3831 -2.3166 -0.8283
 6366TIP3   OH240512   0.093   4.554  11.356 -0.7900 -0.1777 -0.0311
 6366TIP3    H140513   0.059   4.638  11.388 -0.1893  0.3858 -0.8621
 6366TIP3    H240514   0.170   4.537  11.410  0.1178  0.6848 -1.0337
 6367TIP3   OH240515   1.418   1.873   2.576  0.3221 -0.0888 -0.1120
 6367TIP3    H140516   1.326   1.881   2.601 -0.1686 -2.3958 -0.9396
 6367TIP3    H240517   1.435   1.779   2.574  3.8215  0.1492  3.7909
 6368TIP3   OH240518   0.975   5.947   3.279  0.2476  0.0730 -0.1396
 6368TIP3    H140519   0.978   6.002   3.357  0.2474 -1.2140  0.8072
 6368TIP3    H240520   0.882   5.941   3.258  0.3156  1.1657 -0.8052
 6369TIP3   OH240521   6.635   1.933   4.102 -0.5856  0.2059 -0.4034
 6369TIP3    H140522   6.653   2.026   4.114  0.4960 -0.2464  2.1365
 6369TIP3    H240523   6.546   1.921   4.135  0.1125  0.0199  1.5440
 6370TIP3   OH240524   2.579   3.009  13.479  0.2395  0.4683  0.7345
 6370TIP3    H140525   2.575   2.939  13.544  0.3951 -2.1378 -1.8536
 6370TIP3    H240526   2.525   2.977  13.406  1.3942  2.4518 -1.1110
 6371TIP3   OH240527   4.191   1.239   4.132  0.1272 -0.2471 -0.3881
 6371TIP3    H140528   4.192   1.185   4.053 -1.4934  1.4135 -1.6224
 6371TIP3    H240529   4.178   1.176   4.204  1.3908 -1.7705 -1.4123
 6372TIP3   OH240530   0.594   4.107   5.891 -0.8307 -0.2159  0.2938
 6372TIP3    H140531   0.581   4.083   5.799  2.9909 -1.2299 -0.1891
 6372TIP3    H240532   0.589   4.202   5.892  0.5238 -0.0597 -1.3806
 6373TIP3   OH240533   4.074   6.056  14.115 -0.2841  0.4314  0.0275
 6373TIP3    H140534   4.039   6.062  14.204 -0.3378 -0.1127  0.0505
 6373TIP3    H240535   4.065   5.963  14.093 -3.2674  1.0118 -1.7700
 6374TIP3   OH240536   6.318   2.735   4.195 -0.2480  0.1880  0.0142
 6374TIP3    H140537   6.223   2.736   4.210 -0.2173 -0.6319  0.2964
 6374TIP3    H240538   6.331   2.797   4.123 -1.1172 -0.4019 -0.6793
 6375TIP3   OH240539   0.251   3.206  17.043  0.1049  0.0479 -0.2437
 6375TIP3    H140540   0.234   3.174  16.955  1.1892 -1.2103 -0.0275
 6375TIP3    H240541   0.264   3.127  17.095  0.5249  0.7939  0.8213
 6376TIP3   OH240542   5.276   2.194  16.105 -0.8001 -0.2648  0.2682
 6376TIP3    H140543   5.275   2.288  16.085 -0.3597 -0.1836  0.6178
 6376TIP3    H240544   5.329   2.156  16.035  0.8721  0.0409  1.3057
 6377TIP3   OH240545   5.385   0.629  15.479  0.2351 -0.2360 -0.2699
 6377TIP3    H140546   5.469   0.595  15.510 -0.9936 -1.7232  1.7011
 6377TIP3    H240547   5.357   0.690  15.548 -1.2936 -1.4764  0.2625
 6378TIP3   OH240548   3.114   3.224  11.871 -0.0002 -0.4430  0.0439
 6378TIP3    H140549   3.114   3.177  11.954 -2.2561 -0.1542  0.2556
 6378TIP3    H240550   3.071   3.307  11.890  0.6133  0.1764 -1.1480
 6379TIP3   OH240551   2.009   3.402  17.032  0.4745 -0.5732  0.5770
 6379TIP3    H140552   2.063   3.385  16.955  1.8535  1.2336  1.0633
 6379TIP3    H240553   2.050   3.352  17.102  3.0732  2.4760  1.4673
 6380TIP3   OH240554   0.897   4.185  16.267  0.2528 -0.5178 -0.3954
 6380TIP3    H140555   0.882   4.158  16.176  0.3728  0.1834 -0.6266
 6380TIP3    H240556   0.810   4.193  16.304  0.1203  0.7132 -0.9070
 6381TIP3   OH240557   0.993   4.379  14.650  0.6929  0.2599  0.2159
 6381TIP3    H140558   0.933   4.381  14.576  0.6709 -1.0649  0.1646
 6381TIP3    H240559   0.950   4.322  14.715  1.0111  0.8600  0.9731
 6382TIP3   OH240560   1.846   1.854  11.292 -0.3642 -0.1404 -0.2240
 6382TIP3    H140561   1.824   1.883  11.380  1.0931  0.3888 -0.0129
 6382TIP3    H240562   1.900   1.776  11.304  1.0928  0.7756 -0.5663
 6383TIP3   OH240563   3.797   2.166   2.603  0.0521 -0.0756  0.4165
 6383TIP3    H140564   3.777   2.074   2.586 -1.3414  0.5457 -1.8031
 6383TIP3    H240565   3.889   2.176   2.578  0.7736 -1.1842  2.4060
 6384TIP3   OH240566   1.735   6.508  16.932 -0.0189 -0.0862  0.7035
 6384TIP3    H140567   1.699   6.595  16.916  0.3315 -0.2111 -0.9930
 6384TIP3    H240568   1.665   6.448  16.907 -0.5558 -0.3307  2.6378
 6385TIP3   OH240569   2.068   1.875   1.987  0.3988 -0.0944 -0.4391
 6385TIP3    H140570   2.045   1.844   2.075 -0.4506  2.4096  0.3013
 6385TIP3    H240571   2.151   1.921   1.999  1.1096 -1.1064 -1.3014
 6386TIP3   OH240572   2.561   3.750  11.933  0.3547  0.1811  0.0578
 6386TIP3    H140573   2.583   3.715  11.847  1.3244  0.5370  0.1429
 6386TIP3    H240574   2.610   3.832  11.938 -0.7230  0.8094  0.4416
 6387TIP3   OH240575   1.952   4.352  16.088  0.1338 -0.1658  0.3930
 6387TIP3    H140576   2.023   4.399  16.131 -1.9588  2.4399  1.3057
 6387TIP3    H240577   1.920   4.291  16.155  1.0223 -0.8678  0.2033
 6388TIP3   OH240578   2.445   1.402   5.729 -1.0845 -0.1263 -0.1048
 6388TIP3    H140579   2.483   1.384   5.642 -1.6486 -0.2802 -0.3231
 6388TIP3    H240580   2.518   1.438   5.780 -0.3777 -1.3308 -0.2222
 6389TIP3   OH240581   2.406   2.864   2.322 -0.1760 -0.2547  0.2056
 6389TIP3    H140582   2.420   2.771   2.310 -0.6006 -0.1716 -1.0056
 6389TIP3    H240583   2.351   2.870   2.401 -0.1824 -1.0231  0.2660
 6390TIP3   OH240584   5.949   5.124  15.881 -0.1860  0.3139 -0.8198
 6390TIP3    H140585   5.929   5.143  15.790  1.9472  1.7375 -1.0592
 6390TIP3    H240586   5.980   5.033  15.880  0.2860  0.4738 -1.6057
 6391TIP3   OH240587   1.581   6.685   4.534  0.0817 -0.4714  0.3665
 6391TIP3    H140588   1.564   6.733   4.453 -0.5231 -0.7195  0.3435
 6391TIP3    H240589   1.539   6.600   4.520  1.3361 -1.1035  0.3077
 6392TIP3   OH240590   1.230   2.406  15.336 -0.0739 -0.3693 -0.0052
 6392TIP3    H140591   1.174   2.344  15.383  1.1845 -1.6462 -0.1234
 6392TIP3    H240592   1.193   2.492  15.356 -0.2511 -0.9429  2.3721
 6393TIP3   OH240593   0.745   4.474   2.977  0.1549  0.6324  0.4629
 6393TIP3    H140594   0.751   4.381   2.997 -1.1051  0.2682 -0.6609
 6393TIP3    H240595   0.651   4.495   2.985  0.3712  1.7166  0.3725
 6394TIP3   OH240596   6.054   4.839   0.800  0.8604 -0.0918  0.3396
 6394TIP3    H140597   6.027   4.930   0.808  0.2562  0.0244 -2.2395
 6394TIP3    H240598   6.135   4.842   0.749 -0.6207 -1.0644 -2.2521
 6395TIP3   OH240599   6.047   1.683   6.041  0.4880  0.6428 -0.3875
 6395TIP3    H140600   6.015   1.623   6.108 -1.0519  1.3158 -0.4703
 6395TIP3    H240601   6.139   1.657   6.027  0.0993 -1.1681  0.1138
 6396TIP3   OH240602   3.213   3.498  14.374 -0.4045 -0.2416  0.1863
 6396TIP3    H140603   3.142   3.558  14.353 -1.3266 -1.2556  0.2892
 6396TIP3    H240604   3.264   3.491  14.294 -1.7786 -1.2704 -0.6432
 6397TIP3   OH240605   3.372   5.342  12.315  0.1438  0.3280 -0.6111
 6397TIP3    H140606   3.394   5.411  12.252  0.8470 -0.2434 -1.0206
 6397TIP3    H240607   3.319   5.280  12.264  2.2756 -1.1021 -1.2529
 6398TIP3   OH240608   4.056   5.335  15.253 -0.0783 -0.2510  0.1984
 6398TIP3    H140609   3.961   5.326  15.246 -0.1280  0.3619  0.0858
 6398TIP3    H240610   4.088   5.322  15.164 -0.2000  1.2366 -0.0793
 6399TIP3   OH240611   6.384   6.131   0.304  0.2668  0.5611 -0.2001
 6399TIP3    H140612   6.377   6.090   0.390 -0.3503  0.0294 -0.4859
 6399TIP3    H240613   6.387   6.057   0.243 -0.6350  0.9285 -0.7174
 6400TIP3   OH240614   5.131   6.001  12.672 -0.2631  0.1046 -0.5457
 6400TIP3    H140615   5.198   5.936  12.651 -1.7712 -0.9991 -2.2520
 6400TIP3    H240616   5.170   6.085  12.649  0.8630 -0.4042 -0.5651
 6401TIP3   OH240617   2.223   0.241   2.300  0.6131  0.4847 -0.0918
 6401TIP3    H140618   2.213   0.166   2.359 -0.5088 -0.8855 -1.9090
 6401TIP3    H240619   2.311   0.274   2.318  1.3927 -1.6584  0.3571
 6402TIP3   OH240620   3.906   0.294   4.991 -0.2814 -0.0274  0.3156
 6402TIP3    H140621   3.855   0.282   4.911  0.5693  0.2893 -0.2905
 6402TIP3    H240622   3.893   0.386   5.015  0.6230  0.2712 -0.2919
 6403TIP3   OH240623   5.619   1.874   0.086 -0.8806  0.6352  0.7422
 6403TIP3    H140624   5.617   1.953   0.032  0.5527  1.3613  1.6970
 6403TIP3    H240625   5.707   1.838   0.074 -0.8249  0.3322  1.8797
 6404TIP3   OH240626   4.655   1.383   3.259  0.6356 -0.0173  0.0882
 6404TIP3    H140627   4.563   1.397   3.236  0.9060 -0.5887 -1.4865
 6404TIP3    H240628   4.688   1.469   3.284  0.3087  0.6908 -1.7989
 6405TIP3   OH240629   2.964   2.988  15.189 -0.1614 -0.0390  0.7553
 6405TIP3    H140630   2.967   3.082  15.171 -1.1275 -0.0759  0.3479
 6405TIP3    H240631   3.022   2.976  15.264  1.6640  0.5664 -0.4812
 6406TIP3   OH240632   1.816   1.097   3.497  0.5054  0.0558 -0.0600
 6406TIP3    H140633   1.866   1.098   3.579 -0.4603 -0.5724  0.5648
 6406TIP3    H240634   1.737   1.146   3.517 -0.2148 -0.9878 -0.2908
 6407TIP3   OH240635   3.808   5.403   6.367  0.5588 -0.7262  0.7630
 6407TIP3    H140636   3.791   5.472   6.303  0.1086 -1.2067  0.3554
 6407TIP3    H240637   3.790   5.321   6.320 -1.9920 -1.0582  2.0881
 6408TIP3   OH240638   6.488   6.113  12.381  0.1424  0.6364  0.0868
 6408TIP3    H140639   6.534   6.045  12.430  0.7574  1.0089  0.0400
 6408TIP3    H240640   6.395   6.088  12.386  0.3038  0.1106  0.5486
 6409TIP3   OH240641   6.297   1.231   2.332 -0.4008 -0.5083  0.1853
 6409TIP3    H140642   6.377   1.270   2.295 -0.4509  0.3955  0.9906
 6409TIP3    H240643   6.226   1.279   2.290 -0.4719  0.0685  0.9598
 6410TIP3   OH240644   0.373   3.088  13.744  0.2343  0.2587 -0.4633
 6410TIP3    H140645   0.336   3.108  13.658  0.2230  0.6026 -0.3790
 6410TIP3    H240646   0.383   3.173  13.786 -3.5115 -0.0659  1.4669
 6411TIP3   OH240647   3.081   5.982   0.985  0.2150 -0.0519 -0.0184
 6411TIP3    H140648   3.087   6.020   1.073  0.8679  0.8420 -0.4305
 6411TIP3    H240649   2.994   5.942   0.983  0.0202  0.2873  0.8899
 6412TIP3   OH240650   5.914   5.878   4.430  0.1965  0.4198 -0.3279
 6412TIP3    H140651   5.871   5.805   4.386 -0.0538  1.0163 -1.1009
 6412TIP3    H240652   5.856   5.953   4.415  0.7928  0.9241 -0.1615
 6413TIP3   OH240653   3.557   2.172  10.756 -0.0964  0.4148  0.2479
 6413TIP3    H140654   3.611   2.095  10.777 -0.3390  0.1027 -0.2602
 6413TIP3    H240655   3.564   2.227  10.834 -1.3724 -0.9269  1.3684
 6414TIP3   OH240656   5.879   6.240  11.184 -0.2631 -0.0366  0.2029
 6414TIP3    H140657   5.839   6.301  11.245 -0.9379  0.8943 -1.1137
 6414TIP3    H240658   5.805   6.203  11.135  0.2560 -0.7284 -0.0797
 6415TIP3   OH240659   5.067   0.832  14.974  0.2362  0.1203  0.0025
 6415TIP3    H140660   4.996   0.865  14.919 -1.8618 -1.8872  1.3014
 6415TIP3    H240661   5.083   0.743  14.942 -0.0187 -0.5583  1.6539
 6416TIP3   OH240662   4.457   3.779  14.771 -0.4949 -0.2432  0.3718
 6416TIP3    H140663   4.514   3.708  14.802  0.3090  0.5072  0.6358
 6416TIP3    H240664   4.468   3.778  14.676 -0.5646 -0.5405  0.3663
 6417TIP3   OH240665   6.004   6.323   4.359  0.1297 -0.1251 -0.1845
 6417TIP3    H140666   6.014   6.234   4.324 -1.8389 -0.2939 -0.4287
 6417TIP3    H240667   6.083   6.337   4.412  0.3422 -2.1376  0.1120
 6418TIP3   OH240668   3.220   5.638   5.692  0.3927 -0.0779  0.2037
 6418TIP3    H140669   3.251   5.670   5.607 -0.4650  3.2090  0.9783
 6418TIP3    H240670   3.151   5.575   5.670  0.7796  0.0571 -1.5115
 6419TIP3   OH240671   2.108   1.523   3.007  0.1806 -0.2609  0.5984
 6419TIP3    H140672   2.019   1.541   3.036  0.3550 -0.6781  1.4284
 6419TIP3    H240673   2.163   1.555   3.079  0.5446 -3.0458  1.6890
 6420TIP3   OH240674   1.341   0.636  14.011 -0.9897  0.0147  0.3993
 6420TIP3    H140675   1.370   0.727  14.019 -0.2229 -0.0014 -1.6166
 6420TIP3    H240676   1.248   0.638  14.033 -0.9539  1.2527  0.5008
 6421TIP3   OH240677   3.843   6.004   0.688 -0.2427 -0.0965 -0.0175
 6421TIP3    H140678   3.929   6.021   0.652  1.0540 -2.7862  1.5023
 6421TIP3    H240679   3.798   5.952   0.621  0.8643 -2.0980  0.7175
 6422TIP3   OH240680   5.668   1.067   1.869  0.1870 -0.0425 -0.4267
 6422TIP3    H140681   5.732   1.135   1.891 -0.5504  0.3591  0.5339
 6422TIP3    H240682   5.694   1.038   1.781  0.2212  1.8547 -1.0957
 6423TIP3   OH240683   2.044   1.379   3.371 -0.2259  0.1945  0.1306
 6423TIP3    H140684   2.035   1.323   3.294 -0.2124 -0.8825  0.8894
 6423TIP3    H240685   1.972   1.442   3.363  0.4824  0.8714 -1.3553
 6424TIP3   OH240686   6.739   3.828  16.617  0.4003 -0.3630 -0.0595
 6424TIP3    H140687   6.681   3.814  16.691  1.5167  1.4733  1.2484
 6424TIP3    H240688   6.717   3.758  16.555 -0.0417 -2.4279  2.2895
 6425TIP3   OH240689   5.108   4.738  14.143  0.1387  0.4957  0.3385
 6425TIP3    H140690   5.066   4.795  14.079  0.9020  0.5159 -0.1506
 6425TIP3    H240691   5.105   4.651  14.104  1.0070  0.5811  0.0634
 6426TIP3   OH240692   4.775   3.524  16.542 -0.3582 -0.0840  1.0156
 6426TIP3    H140693   4.779   3.452  16.479  3.4981 -0.2472  1.2057
 6426TIP3    H240694   4.734   3.487  16.620 -0.3283 -1.4388  0.4035
 6427TIP3   OH240695   0.416   1.585  14.141 -0.1761 -0.2557  0.2684
 6427TIP3    H140696   0.466   1.515  14.183  0.5923 -0.6273 -1.1927
 6427TIP3    H240697   0.477   1.623  14.078 -0.6886  1.5184  0.7657
 6428TIP3   OH240698   0.914   4.012   5.254 -0.4900  0.5373 -0.2936
 6428TIP3    H140699   0.837   4.067   5.243 -0.5999  0.3043 -0.7157
 6428TIP3    H240700   0.931   3.977   5.167 -0.8833 -0.6973  0.1002
 6429TIP3   OH240701   1.571   5.425  15.188 -0.4064  0.0084  0.2737
 6429TIP3    H140702   1.604   5.488  15.124 -1.0374  0.4952  0.4265
 6429TIP3    H240703   1.600   5.459  15.272  3.1901 -2.2159  0.1813
 6430TIP3   OH240704   2.978   4.979  13.410  0.1824  0.5012 -0.2127
 6430TIP3    H140705   2.960   4.904  13.352 -1.0664 -0.0846  0.8710
 6430TIP3    H240706   3.070   4.971  13.432  1.0202  1.3855 -2.9650
 6431TIP3   OH240707   5.748   2.434  12.441  0.0103  0.5182  0.0927
 6431TIP3    H140708   5.690   2.503  12.409 -3.6568 -2.9059 -1.3311
 6431TIP3    H240709   5.788   2.398  12.363  1.8632  0.8508  0.8246
 6432TIP3   OH240710   1.907   4.006   5.853 -0.7288 -0.1713  0.1948
 6432TIP3    H140711   1.970   3.938   5.831 -1.0548 -0.0052 -1.3683
 6432TIP3    H240712   1.837   3.960   5.898  0.5348 -0.3354  2.1111
 6433TIP3   OH240713   3.478   5.109  14.914  0.4290 -0.3925  0.8113
 6433TIP3    H140714   3.437   5.035  14.870 -0.3850  1.0376 -0.9098
 6433TIP3    H240715   3.563   5.075  14.943 -0.1275 -2.1284  0.5094
 6434TIP3   OH240716   0.384   0.947   5.832  0.5317 -0.0962 -0.7216
 6434TIP3    H140717   0.468   0.909   5.806  0.8902  1.6270 -2.2430
 6434TIP3    H240718   0.347   0.982   5.751 -1.5348 -0.5301 -0.0254
 6435TIP3   OH240719   6.421   3.745   3.201 -0.4810 -0.1194  0.1723
 6435TIP3    H140720   6.408   3.701   3.285  0.6941  1.2931  1.1444
 6435TIP3    H240721   6.473   3.822   3.223  2.2345 -1.1108 -2.2184
 6436TIP3   OH240722   1.509   6.726   5.762 -0.5812 -0.6694  0.1725
 6436TIP3    H140723   1.504   6.675   5.843 -0.0323 -0.9228  0.0514
 6436TIP3    H240724   1.419   6.725   5.728 -0.7435 -0.8598  0.5966
 6437TIP3   OH240725   0.943   5.465   1.282 -0.4279 -0.3872 -0.1067
 6437TIP3    H140726   0.869   5.408   1.264 -1.2868  0.8609 -0.6946
 6437TIP3    H240727   0.912   5.523   1.352  0.2234 -0.2876  0.1079
 6438TIP3   OH240728   3.599   3.553   4.830  0.0935  0.1895 -0.2163
 6438TIP3    H140729   3.581   3.591   4.915 -0.5037 -2.9581  1.2023
 6438TIP3    H240730   3.529   3.489   4.816  1.7093 -1.3868 -1.7340
 6439TIP3   OH240731   1.433   4.977   2.045 -0.3546 -0.0861 -0.3072
 6439TIP3    H140732   1.464   4.943   1.961 -0.9323 -0.7087 -0.2752
 6439TIP3    H240733   1.432   4.900   2.102  2.0943  0.6895  0.9135
 6440TIP3   OH240734   0.918   3.143   4.565 -0.0611  0.1047 -0.3824
 6440TIP3    H140735   0.926   3.092   4.645 -0.5052 -0.7462 -0.8696
 6440TIP3    H240736   0.882   3.227   4.594 -0.1318 -0.1588  0.3174
 6441TIP3   OH240737   5.237   3.155  15.218 -0.2672 -0.2042  0.1003
 6441TIP3    H140738   5.252   3.143  15.124  1.7104  0.1943  0.3107
 6441TIP3    H240739   5.253   3.248  15.233  3.0349 -0.8149  1.3009
 6442TIP3   OH240740   6.297   0.990   0.009  0.0388  0.2320 -0.6338
 6442TIP3    H140741   6.294   0.984   0.104  1.5309 -0.3656 -0.5906
 6442TIP3    H240742   6.321   1.081  -0.008 -0.0974  0.3057 -0.4384
 6443TIP3   OH240743   1.002   0.715  13.638 -0.4451  0.3263 -0.8521
 6443TIP3    H140744   1.071   0.725  13.703 -0.9999  1.2849 -0.3907
 6443TIP3    H240745   0.970   0.626  13.650 -0.9486  0.6822  0.6126
 6444TIP3   OH240746   5.995   3.823   1.239 -0.2451 -0.0523 -0.4866
 6444TIP3    H140747   5.986   3.816   1.334 -0.6530 -0.8467 -0.5810
 6444TIP3    H240748   5.989   3.917   1.222  0.8191  0.2065  0.3653
 6445TIP3   OH240749   0.136   3.984  13.450 -0.9348 -0.8861 -0.0517
 6445TIP3    H140750   0.199   4.017  13.385  0.8213 -0.9383  1.5636
 6445TIP3    H240751   0.121   3.893  13.425 -0.3110 -0.8971 -0.3877
 6446TIP3   OH240752   4.075   5.720   4.729 -0.1956 -0.0652 -0.0343
 6446TIP3    H140753   4.029   5.742   4.810 -1.1345  0.5299 -0.7095
 6446TIP3    H240754   4.016   5.661   4.682  0.3666 -0.4574 -0.2642
 6447TIP3   OH240755   5.926   3.356   0.429 -0.1003  0.2220  0.1315
 6447TIP3    H140756   5.872   3.417   0.379  1.1327  1.6512  0.4694
 6447TIP3    H240757   5.998   3.409   0.462  0.7631 -1.3321  0.8697
 6448TIP3   OH240758   3.684   2.599  15.417 -0.0867 -0.0758  0.6518
 6448TIP3    H140759   3.743   2.642  15.480  1.1150 -0.9397  0.1494
 6448TIP3    H240760   3.742   2.549  15.360 -0.9724  1.9166 -2.1861
 6449TIP3   OH240761   2.442   6.559  13.664  0.0275 -0.0220  0.1126
 6449TIP3    H140762   2.381   6.486  13.672  1.3098 -1.1379  0.1313
 6449TIP3    H240763   2.486   6.563  13.748 -0.0256  0.7810  0.1062
 6450TIP3   OH240764   1.464   4.963  13.862  0.8964 -0.1560  0.1664
 6450TIP3    H140765   1.423   4.934  13.944 -0.9352 -0.4705 -0.8055
 6450TIP3    H240766   1.527   5.029  13.889  1.3137 -1.2118  1.9493
 6451TIP3   OH240767   5.498   5.594  15.052  0.3368 -0.5129 -0.0181
 6451TIP3    H140768   5.470   5.503  15.048  2.0437 -1.0311 -1.2437
 6451TIP3    H240769   5.423   5.640  15.091 -0.9292 -2.2677 -0.2353
 6452TIP3   OH240770   4.530   3.306  11.340 -0.5947  0.1313  0.6595
 6452TIP3    H140771   4.498   3.385  11.383 -0.2820  1.6196 -1.6637
 6452TIP3    H240772   4.486   3.235  11.386 -0.5568  1.5789  3.1279
 6453TIP3   OH240773   3.213   2.164  13.035  0.4589  0.1842  0.4796
 6453TIP3    H140774   3.186   2.163  12.943 -1.0908  1.2976  0.8851
 6453TIP3    H240775   3.307   2.181  13.033  0.2115  1.5349 -0.8725
 6454TIP3   OH240776   2.836   5.292  14.709 -0.3165 -0.7923 -0.0844
 6454TIP3    H140777   2.890   5.347  14.652 -1.8689  0.8908 -0.0289
 6454TIP3    H240778   2.868   5.203  14.694  0.4247 -0.2040 -2.3113
 6455TIP3   OH240779   3.357   0.560  11.180  0.2967  0.2771  0.1548
 6455TIP3    H140780   3.412   0.550  11.102  0.4302 -0.2572  0.3109
 6455TIP3    H240781   3.275   0.596  11.148  0.4533  0.3231 -0.1953
 6456TIP3   OH240782   0.809   6.755  15.399  0.6872 -0.5970 -0.0888
 6456TIP3    H140783   0.803   6.851  15.399 -0.4437 -0.6504 -0.3412
 6456TIP3    H240784   0.755   6.728  15.472  0.2644 -1.0760 -0.5769
 6457TIP3   OH240785   2.301   0.788  13.776 -0.0558  0.3212  0.0640
 6457TIP3    H140786   2.306   0.699  13.810 -1.1443  0.0968 -0.3326
 6457TIP3    H240787   2.366   0.837  13.827 -0.1325 -0.4752  0.9532
 6458TIP3   OH240788   2.442   1.504   4.673  0.7196  0.5449 -0.0013
 6458TIP3    H140789   2.461   1.557   4.751  1.3213 -0.2121  0.3787
 6458TIP3    H240790   2.506   1.433   4.677  0.2360  0.0628 -0.7689
 6459TIP3   OH240791   3.944   3.565   0.308  0.0154  0.2984  0.1469
 6459TIP3    H140792   3.957   3.659   0.295  0.8073  0.2241  0.3559
 6459TIP3    H240793   3.886   3.539   0.237 -1.8385  1.3131  1.1989
 6460TIP3   OH240794   3.454   6.069  12.894  0.2835  0.1285  0.1298
 6460TIP3    H140795   3.393   6.100  12.826  0.2731  0.2083  0.1759
 6460TIP3    H240796   3.432   6.120  12.971 -0.1979 -0.4805  0.3998
 6461TIP3   OH240797   3.448   3.486   2.938  0.1329  0.0258  0.0328
 6461TIP3    H140798   3.404   3.423   2.881 -0.6818  0.8450 -0.2818
 6461TIP3    H240799   3.539   3.456   2.942 -0.5182 -2.0167  1.1132
 6462TIP3   OH240800   3.579   6.173   5.397 -0.1070 -0.0275 -0.1701
 6462TIP3    H140801   3.489   6.185   5.425  0.2476 -0.5659  1.2920
 6462TIP3    H240802   3.612   6.262   5.382 -0.3333  0.2961  1.1464
 6463TIP3   OH240803   2.736   6.140   2.023  0.2016 -0.0630 -0.2189
 6463TIP3    H140804   2.743   6.062   1.968 -2.2397  0.5528 -1.5516
 6463TIP3    H240805   2.773   6.210   1.970  0.5029  0.0419  0.1273
 6464TIP3   OH240806   2.493   5.169  12.860  0.4561  0.0848 -0.2071
 6464TIP3    H140807   2.485   5.076  12.883  1.8393  0.1177  0.4970
 6464TIP3    H240808   2.442   5.178  12.780 -0.4993 -1.0776  0.2458
 6465TIP3   OH240809   6.681   2.456  16.698  0.1844 -0.1725 -0.1993
 6465TIP3    H140810   6.693   2.375  16.647 -3.2813 -0.3514 -0.9864
 6465TIP3    H240811   6.639   2.516  16.636 -0.3068  1.0772  1.3005
 6466TIP3   OH240812   2.152   3.375  12.759  0.3531 -0.2937 -0.2822
 6466TIP3    H140813   2.098   3.318  12.813 -0.0689 -0.7444 -1.1659
 6466TIP3    H240814   2.236   3.329  12.752  1.0670  0.6065  1.4508
 6467TIP3   OH240815   2.653   5.696  16.495 -0.0273  0.2745 -0.6849
 6467TIP3    H140816   2.594   5.677  16.568  0.9274 -0.2121 -0.0179
 6467TIP3    H240817   2.739   5.664  16.524  0.0882 -1.4250 -2.6525
 6468TIP3   OH240818   5.674   1.108  13.810  0.0761 -0.2099 -0.5461
 6468TIP3    H140819   5.711   1.161  13.881 -0.3162 -1.9073  0.9690
 6468TIP3    H240820   5.746   1.099  13.748  1.2888 -0.8924  0.9019
 6469TIP3   OH240821   1.045   4.090  11.561 -0.1831 -0.0228 -0.5554
 6469TIP3    H140822   1.037   4.161  11.497  0.6544  0.7032  0.1282
 6469TIP3    H240823   1.086   4.019  11.511 -2.7177 -0.7724 -1.7618
 6470TIP3   OH240824   6.543   0.295   0.394 -0.6313  0.0040  0.6396
 6470TIP3    H140825   6.620   0.301   0.337 -1.3774 -0.7575 -0.5163
 6470TIP3    H240826   6.556   0.363   0.460 -0.0879  1.5152 -0.9234
 6471TIP3   OH240827   0.906   4.305  15.367  0.0422  0.0714  0.6088
 6471TIP3    H140828   0.969   4.365  15.329  1.2690 -1.0089  0.8734
 6471TIP3    H240829   0.821   4.349  15.357  0.6610  0.9697 -0.9435
 6472TIP3   OH240830   3.212   5.225   2.447  0.1695  0.5581  0.6526
 6472TIP3    H140831   3.263   5.276   2.510  0.8363  2.9396 -1.6433
 6472TIP3    H240832   3.125   5.263   2.450  0.8126  2.4053 -1.4775
 6473TIP3   OH240833   4.011   2.200  13.882 -0.0374 -0.0364 -0.0033
 6473TIP3    H140834   3.954   2.123  13.887 -2.4740  1.7035  1.1410
 6473TIP3    H240835   4.059   2.199  13.964  0.0181 -0.3613 -0.0354
 6474TIP3   OH240836   3.854   4.101  14.590  0.3013  0.0786 -0.3862
 6474TIP3    H140837   3.858   4.137  14.679  0.9786 -0.6816 -0.0990
 6474TIP3    H240838   3.793   4.027  14.598  1.4667 -0.8964 -0.2058
 6475TIP3   OH240839   4.248   2.724   1.858 -0.3000  0.2037 -0.3693
 6475TIP3    H140840   4.181   2.713   1.790  0.5329  0.5692 -1.2689
 6475TIP3    H240841   4.330   2.730   1.810  0.3651  0.0202  0.7078
 6476TIP3   OH240842   4.054   5.644   1.221 -0.3774  0.0967  0.8108
 6476TIP3    H140843   4.055   5.708   1.149 -0.9710 -0.2085  0.5169
 6476TIP3    H240844   4.074   5.696   1.299 -1.8660  0.8716  0.7297
 6477TIP3   OH240845   4.219   5.111  11.483  0.0212 -0.0957 -0.0314
 6477TIP3    H140846   4.158   5.140  11.415 -1.0415  1.8184  1.6098
 6477TIP3    H240847   4.219   5.182  11.547  2.4593 -0.9569  1.0498
 6478TIP3   OH240848   1.189   2.075   5.827  0.2298 -0.4133 -0.0873
 6478TIP3    H140849   1.255   2.077   5.896 -0.6187 -1.3936  0.7867
 6478TIP3    H240850   1.167   2.167   5.812  2.0183 -0.0398 -0.6568
 6479TIP3   OH240851   2.291   1.103   1.482  0.4258  0.1395 -0.9341
 6479TIP3    H140852   2.249   1.188   1.493  0.7888  0.1240  0.7710
 6479TIP3    H240853   2.383   1.118   1.503  0.5894 -0.5758 -1.0950
 6480TIP3   OH240854   0.601   0.171  16.306 -0.0502  0.8772 -0.0683
 6480TIP3    H140855   0.657   0.169  16.228 -1.1174  0.8408 -0.8504
 6480TIP3    H240856   0.569   0.081  16.313 -1.7023  1.3689 -0.9012
 6481TIP3   OH240857   2.951   2.557  16.999 -0.1975 -0.4502  0.0579
 6481TIP3    H140858   2.975   2.628  17.059  1.1980  0.9780 -2.0515
 6481TIP3    H240859   3.029   2.502  16.994 -0.7156 -1.2416  0.4218
 6482TIP3   OH240860   1.190   0.690  11.190  0.7401 -0.1204  0.8553
 6482TIP3    H140861   1.243   0.645  11.124  1.9182 -0.7653  2.1633
 6482TIP3    H240862   1.252   0.707  11.261 -0.2235  1.5774  1.3215
 6483TIP3   OH240863   6.125   3.754   4.025  0.1506  0.5884 -0.5279
 6483TIP3    H140864   6.083   3.700   3.957 -1.7442  1.1692  0.1304
 6483TIP3    H240865   6.053   3.800   4.067  0.8859 -1.5441  3.5653
 6484TIP3   OH240866   4.540   0.546   1.479  0.1553  0.0885 -0.1943
 6484TIP3    H140867   4.565   0.589   1.397  1.2779  0.9367  0.5611
 6484TIP3    H240868   4.445   0.555   1.483  0.0082 -0.5251 -1.6873
 6485TIP3   OH240869   1.731   2.443  14.376 -0.2960 -0.2622 -0.3506
 6485TIP3    H140870   1.715   2.350  14.359 -0.3972 -0.1655 -0.7891
 6485TIP3    H240871   1.730   2.484  14.290  0.7342  0.0005 -0.2593
 6486TIP3   OH240872   1.279   1.103  12.924  0.1010 -0.1528 -0.5256
 6486TIP3    H140873   1.360   1.153  12.941 -0.7646  1.1456 -0.0677
 6486TIP3    H240874   1.291   1.070  12.835  0.7186  0.8910 -0.8561
 6487TIP3   OH240875   0.816   2.942   2.851 -0.6396  0.3619  0.5499
 6487TIP3    H140876   0.816   2.869   2.914  0.1135  0.7305  0.9962
 6487TIP3    H240877   0.892   2.925   2.796 -0.8503  0.4594  0.2321
 6488TIP3   OH240878   6.506   1.254  11.323 -0.0269 -0.2076  0.4575
 6488TIP3    H140879   6.533   1.336  11.363  0.1748 -1.5326  3.2465
 6488TIP3    H240880   6.411   1.253  11.331  0.0292 -0.5633  1.1192
 6489TIP3   OH240881   5.207   0.447   0.907 -0.7105 -0.2698  0.3839
 6489TIP3    H140882   5.211   0.519   0.970 -2.6770 -0.0765  0.3537
 6489TIP3    H240883   5.167   0.486   0.829 -2.6220 -1.5194  0.6577
 6490TIP3   OH240884   6.316   4.461  12.807  0.1158  0.1588 -0.0629
 6490TIP3    H140885   6.405   4.459  12.841 -0.4412  0.3486  1.4833
 6490TIP3    H240886   6.268   4.517  12.869 -1.1482 -0.2100 -0.6748
 6491TIP3   OH240887   6.045   3.940  11.483 -0.3147  0.0264 -0.3934
 6491TIP3    H140888   6.120   3.998  11.475  0.1334 -0.4370  0.3257
 6491TIP3    H240889   5.985   3.986  11.542  0.2471 -0.4395  0.5543
 6492TIP3   OH240890   1.728   6.394   1.755  0.3307 -0.5633  0.3142
 6492TIP3    H140891   1.760   6.476   1.717  0.1160 -0.4644  0.3446
 6492TIP3    H240892   1.765   6.325   1.700  0.2324 -0.4314  0.0845
 6493TIP3   OH240893   4.609   5.838   4.569  0.5375  0.1165  0.3322
 6493TIP3    H140894   4.548   5.893   4.522 -0.2252 -0.7048  0.3363
 6493TIP3    H240895   4.608   5.872   4.659 -1.5770 -1.1841  0.8776
 6494TIP3   OH240896   3.544   3.975  16.569  0.5883 -0.3648  0.0789
 6494TIP3    H140897   3.510   3.953  16.482  0.4823 -0.4928  0.1524
 6494TIP3    H240898   3.621   4.030  16.551  1.2693 -1.3505 -0.1388
 6495TIP3   OH240899   3.630   5.831  14.939 -0.3154 -0.1567 -0.2540
 6495TIP3    H140900   3.654   5.829  14.846 -2.2108 -0.2906 -0.7717
 6495TIP3    H240901   3.696   5.888  14.979  2.2950 -2.3725 -1.0966
 6496TIP3   OH240902   2.965   0.370  12.399  0.6183  0.6856 -0.2779
 6496TIP3    H140903   2.954   0.297  12.339 -0.5450  0.6140 -0.0157
 6496TIP3    H240904   2.990   0.444  12.344  1.0135  0.2804 -0.6457
 6497TIP3   OH240905   2.422   2.859   6.525 -0.2905 -0.3961 -0.7098
 6497TIP3    H140906   2.470   2.788   6.568 -0.6622 -1.0999 -1.4290
 6497TIP3    H240907   2.360   2.889   6.591  0.8725  0.2658  0.0969
 6498TIP3   OH240908   6.097   4.685   6.104  0.0452  0.0564 -0.4996
 6498TIP3    H140909   6.016   4.670   6.055  1.3858 -0.5924 -2.6547
 6498TIP3    H240910   6.155   4.728   6.041  0.8553  2.0602  1.4963
 6499TIP3   OH240911   2.178   5.453  11.454 -0.3708  0.7999  0.0447
 6499TIP3    H140912   2.090   5.473  11.486  0.0125  0.7402  1.2004
 6499TIP3    H240913   2.228   5.533  11.467 -0.1191  0.6653 -0.0758
 6500TIP3   OH240914   4.054   3.411  11.994  0.0991  0.4369 -0.1031
 6500TIP3    H140915   4.100   3.358  11.929  0.6334  0.1492  0.4994
 6500TIP3    H240916   4.089   3.382  12.079  2.2796  3.4409  0.1705
 6501TIP3   OH240917   5.778   0.764   4.285 -0.6249  0.0017  0.2954
 6501TIP3    H140918   5.869   0.756   4.259 -0.2441  1.0637  1.2289
 6501TIP3    H240919   5.781   0.810   4.369 -2.0048 -0.1191  0.4340
 6502TIP3   OH240920   5.464   6.129  13.349  0.2016  0.0907 -0.3251
 6502TIP3    H140921   5.498   6.075  13.420 -0.9047 -0.3653 -0.1166
 6502TIP3    H240922   5.542   6.168  13.309  0.7813  1.3010  1.8503
 6503TIP3   OH240923   6.398   1.430   5.246  0.4252  0.5007 -0.2848
 6503TIP3    H140924   6.429   1.400   5.332 -0.1973 -0.9582 -0.5333
 6503TIP3    H240925   6.477   1.430   5.192  0.3411 -1.6388 -0.4943
 6504TIP3   OH240926   3.278   5.008  16.188  0.6077 -0.7622 -0.1369
 6504TIP3    H140927   3.298   5.080  16.128 -1.8491 -0.8742 -1.2186
 6504TIP3    H240928   3.284   4.929  16.134  1.1072 -1.1568  0.4838
 6505TIP3   OH240929   5.119   6.729  13.650 -0.1048  0.2680 -0.2775
 6505TIP3    H140930   5.139   6.792  13.720 -1.9653  0.4694  0.1183
 6505TIP3    H240931   5.127   6.780  13.569  1.7231  0.1192 -0.2423
 6506TIP3   OH240932   0.935   5.530  17.118  0.0786 -0.3076  0.3644
 6506TIP3    H140933   1.015   5.569  17.153  0.2813  0.3184 -0.7771
 6506TIP3    H240934   0.914   5.581  17.040  1.2986 -3.4206 -2.2470
 6507TIP3   OH240935   1.471   2.128   6.482 -0.4566 -0.1460 -0.2191
 6507TIP3    H140936   1.549   2.158   6.436 -1.3637  0.6883 -1.2430
 6507TIP3    H240937   1.449   2.200   6.542 -1.1794  0.1834 -0.8686
 6508TIP3   OH240938   1.668   5.047   3.272  0.3441  0.0139 -0.4992
 6508TIP3    H140939   1.649   5.106   3.199 -1.7736 -0.5438 -0.4609
 6508TIP3    H240940   1.605   4.975   3.262  2.4043 -1.9610 -0.1817
 6509TIP3   OH240941   2.567   4.701   4.848  0.2226 -0.2647 -0.3281
 6509TIP3    H140942   2.487   4.745   4.820 -0.0728 -0.8569 -0.4279
 6509TIP3    H240943   2.547   4.608   4.842  0.7439 -0.4170  0.1545
 6510TIP3   OH240944   4.331   2.105  15.332 -0.3666 -0.6973  0.4145
 6510TIP3    H140945   4.245   2.138  15.308 -0.5007 -1.6212 -0.4249
 6510TIP3    H240946   4.314   2.039  15.399 -0.5271 -2.3046 -1.1344
 6511TIP3   OH240947   4.279   0.801  10.204  0.5296  0.2020 -0.0609
 6511TIP3    H140948   4.206   0.758  10.247 -0.6964  1.3989 -0.8449
 6511TIP3    H240949   4.354   0.745  10.220 -0.2159 -0.2206  2.1748
 6512TIP3   OH240950   2.223   3.078   0.744  0.6176 -0.3891 -0.2241
 6512TIP3    H140951   2.287   3.010   0.723  1.6273  0.1462  0.9564
 6512TIP3    H240952   2.256   3.117   0.825 -0.4615  0.8611 -0.3554
 6513TIP3   OH240953   2.926   4.206  16.368 -0.4048  0.0323  0.0961
 6513TIP3    H140954   2.972   4.146  16.427 -3.7794 -0.1790  2.9113
 6513TIP3    H240955   2.852   4.155  16.336 -1.9918  1.8874  0.6057
 6514TIP3   OH240956   1.686   3.760  14.044 -0.0422 -0.1031  0.3396
 6514TIP3    H140957   1.598   3.782  14.075  0.2748  1.2851  0.3076
 6514TIP3    H240958   1.692   3.802  13.958  0.6201 -0.2701  0.3052
 6515TIP3   OH240959   4.304   0.954  16.614 -0.1667  0.1009  0.6518
 6515TIP3    H140960   4.255   0.952  16.532  0.5653 -0.8396  0.2156
 6515TIP3    H240961   4.381   1.008  16.595 -0.1365  0.1126  0.8043
 6516TIP3   OH240962   1.970   0.543  11.200 -0.4629 -0.1920 -0.4140
 6516TIP3    H140963   2.009   0.460  11.173 -1.2017 -0.5356 -0.4623
 6516TIP3    H240964   1.900   0.559  11.136 -1.0018 -0.0637  0.1882
 6517TIP3   OH240965   1.979   5.191  13.614  0.2078 -0.3658  0.1777
 6517TIP3    H140966   1.912   5.258  13.626 -0.2956 -1.1683  2.3800
 6517TIP3    H240967   2.009   5.203  13.524 -2.0640  0.7701 -0.5090
 6518TIP3   OH240968   5.041   0.543   6.001  0.3497  0.3213 -0.5122
 6518TIP3    H140969   5.025   0.574   6.090 -1.9982  0.5484 -0.9382
 6518TIP3    H240970   5.063   0.622   5.952  0.7172  0.3313 -0.3372
 6519TIP3   OH240971   1.131   0.098  17.163  0.5625  0.1212 -0.5955
 6519TIP3    H140972   1.183   0.028  17.125  0.2854  0.9000 -2.5165
 6519TIP3    H240973   1.121   0.162  17.092 -2.7025  0.1758 -0.2539
 6520TIP3   OH240974   3.991   3.784  13.655  0.0974  0.1537  0.6751
 6520TIP3    H140975   3.940   3.865  13.648  0.2873  0.1614 -1.3613
 6520TIP3    H240976   3.992   3.749  13.566 -1.3170 -2.9803  1.7683
 6521TIP3   OH240977   6.602   6.119   1.945 -0.0891 -0.0458  0.2063
 6521TIP3    H140978   6.584   6.178   1.872 -1.7465 -1.4637 -0.6131
 6521TIP3    H240979   6.551   6.156   2.018  0.3506  0.5340  0.2243
 6522TIP3   OH240980   0.168   0.329   4.617  0.3695 -0.9445 -0.0474
 6522TIP3    H140981   0.185   0.313   4.709  0.2608 -0.7045  0.0148
 6522TIP3    H240982   0.213   0.411   4.598  0.1586 -0.8482 -0.1376
 6523TIP3   OH240983   5.872   3.505   5.799  0.2274 -0.1727 -0.1147
 6523TIP3    H140984   5.913   3.428   5.839  1.8957  0.1701 -1.0905
 6523TIP3    H240985   5.899   3.578   5.854 -0.6130 -0.1591  0.2912
 6524TIP3   OH240986   1.202   0.234  14.490  0.2359 -0.5332  0.1037
 6524TIP3    H140987   1.129   0.251  14.549  0.0672  0.0311 -0.2673
 6524TIP3    H240988   1.207   0.311  14.434  0.0698 -1.2696 -0.9674
 6525TIP3   OH240989   5.890   5.346  10.624 -0.0946  0.3917  0.0400
 6525TIP3    H140990   5.812   5.295  10.606 -0.1294  0.6711 -0.6536
 6525TIP3    H240991   5.908   5.393  10.542  2.1650 -1.4644 -0.6351
 6526TIP3   OH240992   3.660   1.354  11.129 -0.6737 -0.2741  0.0732
 6526TIP3    H140993   3.730   1.312  11.180 -0.0916  0.1707 -0.3378
 6526TIP3    H240994   3.707   1.411  11.067 -1.3993 -0.0846 -0.3131
 6527TIP3   OH240995   1.641   1.549  12.088  0.6795  0.6072  1.1646
 6527TIP3    H140996   1.724   1.554  12.135  0.6632  1.0226  1.1571
 6527TIP3    H240997   1.587   1.619  12.126  0.9319  1.4349  0.0338
 6528TIP3   OH240998   5.094   4.824   4.628  0.3756  0.4017  0.0368
 6528TIP3    H140999   5.116   4.916   4.640 -0.2220  0.4242  1.0811
 6528TIP3    H241000   5.157   4.777   4.683 -0.7820  0.3413  1.3483
 6529TIP3   OH241001   5.696   0.712   3.675 -0.1690  0.1009 -0.3211
 6529TIP3    H141002   5.634   0.764   3.726 -0.6123  0.4985 -1.2460
 6529TIP3    H241003   5.749   0.777   3.628  1.3047 -0.2207  0.8513
 6530TIP3   OH241004   3.297   1.727  14.892  0.1829 -0.4823 -0.1344
 6530TIP3    H141005   3.266   1.810  14.854 -0.3558 -0.6674 -0.1085
 6530TIP3    H241006   3.332   1.752  14.977 -1.1692 -0.4464  0.4420
 6531TIP3   OH241007   6.172   2.538   2.891 -0.3369 -0.0892  0.3045
 6531TIP3    H141008   6.175   2.510   2.800  0.5126 -0.3168  0.3925
 6531TIP3    H241009   6.263   2.531   2.921 -0.2886  1.6574  0.6654
 6532TIP3   OH241010   6.163   3.611  13.169 -0.8193  0.9914 -0.1913
 6532TIP3    H141011   6.158   3.545  13.099 -2.5388  2.4202 -1.4951
 6532TIP3    H241012   6.086   3.594  13.223  0.0835  0.3902  0.9316
 6533TIP3   OH241013   3.812   4.005  13.582  0.1204  0.2066 -0.7726
 6533TIP3    H141014   3.754   3.986  13.509 -0.1388 -1.1427 -0.2469
 6533TIP3    H241015   3.754   4.034  13.653  0.0100 -1.4213 -0.1534
 6534TIP3   OH241016   5.356   4.150   2.106  0.0628 -0.2369  0.3434
 6534TIP3    H141017   5.360   4.062   2.066 -1.5171 -0.6784  1.0774
 6534TIP3    H241018   5.280   4.146   2.165 -0.8531  2.0090 -0.5630
 6535TIP3   OH241019   5.179   3.854  12.955  0.5032 -0.5313 -0.5850
 6535TIP3    H141020   5.274   3.850  12.969  0.2013 -0.2671  2.2341
 6535TIP3    H241021   5.152   3.762  12.954  0.7880 -0.6110 -1.5285
 6536TIP3   OH241022   1.667   1.603   2.568  0.0946 -0.5387 -0.4356
 6536TIP3    H141023   1.655   1.524   2.514  0.8485 -0.1591 -1.1773
 6536TIP3    H241024   1.581   1.618   2.608 -0.9999  0.1512 -2.8924
 6537TIP3   OH241025   1.215   1.224  17.101 -0.5606  0.0910  0.0198
 6537TIP3    H141026   1.199   1.188  17.189 -1.5339 -0.4037 -0.3440
 6537TIP3    H241027   1.148   1.183  17.046 -0.2130  0.7006 -0.8800
 6538TIP3   OH241028   3.965   3.841  16.891 -0.1212 -0.2935 -0.7289
 6538TIP3    H141029   4.005   3.767  16.936 -1.3091 -0.3344  0.3144
 6538TIP3    H241030   3.919   3.801  16.816  0.7615 -0.3760 -1.2415
 6539TIP3   OH241031   6.010   3.970   0.836 -0.2760  0.2155 -0.4796
 6539TIP3    H141032   5.973   4.026   0.904  0.3733 -0.3296  0.3438
 6539TIP3    H241033   5.944   3.902   0.822 -0.3849  0.2944 -0.3433
 6540TIP3   OH241034   0.026   0.909   2.800  0.5127 -0.9908 -0.0042
 6540TIP3    H141035   0.074   0.964   2.738  0.2335  0.0770  0.7008
 6540TIP3    H241036   0.090   0.843   2.827  0.6580 -1.4383 -1.3598
 6541TIP3   OH241037   1.431   1.431  13.211 -0.1778 -0.2185  0.5410
 6541TIP3    H141038   1.337   1.440  13.194  0.3652  1.9286 -2.2060
 6541TIP3    H241039   1.472   1.456  13.128  2.8626  0.4958  2.1207
 6542TIP3   OH241040   6.605   1.872  15.790 -0.2279  0.0123  0.9396
 6542TIP3    H141041   6.540   1.804  15.807 -0.3069 -0.2069 -0.1952
 6542TIP3    H241042   6.683   1.824  15.760 -0.2832  0.4200  0.1318
 6543TIP3   OH241043   4.644   0.406  13.893  0.2637  0.2034 -1.0090
 6543TIP3    H141044   4.738   0.423  13.898  0.0300  1.6925 -1.2997
 6543TIP3    H241045   4.605   0.466  13.956 -0.6295  1.0151 -2.2851
 6544TIP3   OH241046   3.246   1.794   1.207 -0.4367  0.4585  0.0819
 6544TIP3    H141047   3.214   1.724   1.263 -1.5898 -0.5137 -1.6876
 6544TIP3    H241048   3.328   1.760   1.171 -0.2714  0.6150  0.3082
 6545TIP3   OH241049   6.339   6.379  14.552 -0.1728 -0.1663 -0.0609
 6545TIP3    H141050   6.371   6.370  14.642 -1.1207  0.0908  0.3082
 6545TIP3    H241051   6.418   6.375  14.498  0.2743 -1.9999  0.6556
 6546TIP3   OH241052   0.349   5.093  14.762  0.0345  0.1937  0.1584
 6546TIP3    H141053   0.260   5.087  14.797 -0.0657 -0.6702 -0.2024
 6546TIP3    H241054   0.371   5.003  14.738  1.4033  0.2111  1.2095
 6547TIP3   OH241055   1.906   4.731  16.788  0.5721 -0.3521 -0.2325
 6547TIP3    H141056   1.870   4.644  16.806 -0.2196 -0.2447 -1.2110
 6547TIP3    H241057   1.909   4.773  16.874 -1.8967 -0.3005 -0.0907
 6548TIP3   OH241058   1.704   5.064   1.737  0.1960  0.2443 -0.5058
 6548TIP3    H141059   1.697   5.043   1.644 -0.0108  0.8050 -0.6248
 6548TIP3    H241060   1.792   5.102   1.745 -0.4362  1.8551 -0.8326
 6549TIP3   OH241061   3.194   3.693   5.302  0.3379 -0.2495  0.2526
 6549TIP3    H141062   3.151   3.735   5.377  1.3359  0.5254  0.4173
 6549TIP3    H241063   3.238   3.617   5.340 -0.1524 -0.5529  0.2302
 6550TIP3   OH241064   2.783   0.494   5.319 -0.0214 -0.4132  0.3099
 6550TIP3    H141065   2.848   0.468   5.255  0.5941 -1.1342  1.2013
 6550TIP3    H241066   2.699   0.471   5.280  0.3728 -1.2999 -0.0236
 6551TIP3   OH241067   3.234   1.934  16.860  0.1214 -0.0564 -0.0389
 6551TIP3    H141068   3.227   2.027  16.880  1.8369  0.4520 -1.5091
 6551TIP3    H241069   3.283   1.897  16.934  0.8057  0.5262 -0.1935
 6552TIP3   OH241070   1.075   0.393  16.093  0.0946 -0.1864  0.3429
 6552TIP3    H141071   1.022   0.320  16.125  1.0770 -1.8289 -1.5716
 6552TIP3    H241072   1.133   0.354  16.028  0.4523  2.3690 -1.0047
 6553TIP3   OH241073   5.245   2.466   4.066 -0.1838  0.5405  0.3580
 6553TIP3    H141074   5.180   2.534   4.086  0.5261  1.3706 -0.0945
 6553TIP3    H241075   5.193   2.387   4.051 -0.9911  0.8650  1.3495
 6554TIP3   OH241076   4.596   0.700  12.058 -0.2409 -0.4076  0.3706
 6554TIP3    H141077   4.657   0.661  12.121  0.6675  0.8623  0.3000
 6554TIP3    H241078   4.558   0.775  12.103  0.5246  0.6006 -0.6308
 6555TIP3   OH241079   2.605   3.559  10.849  0.5051 -0.2589 -0.4152
 6555TIP3    H141080   2.659   3.552  10.770  0.8402  0.3401 -0.2495
 6555TIP3    H241081   2.590   3.469  10.876  1.2202 -0.4408 -0.6034
 6556TIP3   OH241082   2.617   4.327   2.310  0.0488 -0.5158 -0.3425
 6556TIP3    H141083   2.597   4.412   2.349  0.8716  0.1228 -1.2509
 6556TIP3    H241084   2.542   4.272   2.332 -2.4735  1.5343 -2.9816
 6557TIP3   OH241085   6.286   1.084  15.514  0.3973 -0.0972 -0.4991
 6557TIP3    H141086   6.340   1.028  15.458  1.3832  0.4059 -0.0732
 6557TIP3    H241087   6.268   1.031  15.591  0.5765 -0.1443 -0.4900
 6558TIP3   OH241088   1.307   6.424   3.023 -0.1806  0.2254 -0.5007
 6558TIP3    H141089   1.393   6.457   2.995  1.0827 -1.5695  1.0275
 6558TIP3    H241090   1.274   6.376   2.947  0.6777 -0.0175 -0.7346
 6559TIP3   OH241091   6.752   0.327   5.452 -0.0576 -0.0303  0.1360
 6559TIP3    H141092   6.803   0.292   5.379 -0.9665  1.0152 -1.0367
 6559TIP3    H241093   6.675   0.271   5.457 -1.0415  1.1439 -1.1243
 6560TIP3   OH241094   5.756   3.112  12.444  0.3840  0.1536  0.6820
 6560TIP3    H141095   5.709   3.124  12.526 -0.5944  2.2281 -0.1176
 6560TIP3    H241096   5.802   3.195  12.430  0.6849 -0.2238 -0.7527
 6561TIP3   OH241097   1.726   5.073   0.977 -0.1752  0.3327  0.0363
 6561TIP3    H141098   1.660   5.142   0.985  0.3321  0.9574 -0.9605
 6561TIP3    H241099   1.742   5.045   1.067 -2.7244 -0.7565  0.2556
 6562TIP3   OH241100   5.152   0.599  13.815  0.0980 -0.4215 -0.1348
 6562TIP3    H141101   5.158   0.534  13.745  1.2162  0.2998 -0.7441
 6562TIP3    H241102   5.142   0.548  13.895 -2.7134 -1.2463 -0.8874
 6563TIP3   OH241103   4.089   5.792  11.381 -0.6116 -0.3989 -0.3132
 6563TIP3    H141104   4.071   5.871  11.433  0.7304  1.7988 -2.9476
 6563TIP3    H241105   4.027   5.798  11.308 -0.1085 -1.5091 -0.8388
 6564TIP3   OH241106   0.020   3.855   2.392  0.0648 -0.1584  0.9622
 6564TIP3    H141107   0.108   3.846   2.355  0.3130 -0.6321  1.6497
 6564TIP3    H241108  -0.000   3.769   2.428 -0.0799  0.3317  2.1057
 6565TIP3   OH241109   4.855   0.288  10.306 -0.7539 -0.5254 -0.3688
 6565TIP3    H141110   4.899   0.244  10.378  0.0658  0.8919  0.0472
 6565TIP3    H241111   4.848   0.223  10.237  0.3283 -1.3065  0.2417
 6566TIP3   OH241112   4.731   1.394   2.506  0.3006 -0.7198 -0.2915
 6566TIP3    H141113   4.746   1.324   2.569 -0.9483 -1.6238 -0.9408
 6566TIP3    H241114   4.698   1.349   2.428 -0.1201  0.5501 -0.8727
 6567TIP3   OH241115   6.789   2.127   0.769 -0.3143  0.3762  0.0573
 6567TIP3    H141116   6.714   2.074   0.743  0.8697 -2.3494  1.8023
 6567TIP3    H241117   6.811   2.098   0.857  1.3712  2.7908  0.5499
 6568TIP3   OH241118   5.915   6.513  11.526 -0.1374 -0.2447  0.0038
 6568TIP3    H141119   5.927   6.422  11.556  3.3566  0.2402  0.5484
 6568TIP3    H241120   5.984   6.526  11.462 -1.1721  1.7997 -0.7799
 6569TIP3   OH241121   5.124   1.289  12.713  0.1965  0.1440  0.1799
 6569TIP3    H141122   5.149   1.373  12.752  1.5390  0.6730 -1.6868
 6569TIP3    H241123   5.129   1.304  12.618  1.2186 -2.2263 -0.2151
 6570TIP3   OH241124   2.480   6.288  10.771  0.1546 -0.2346 -0.5308
 6570TIP3    H141125   2.406   6.280  10.711 -0.8852  1.7370  0.3969
 6570TIP3    H241126   2.530   6.362  10.737  1.6180 -1.4109 -1.0164
 6571TIP3   OH241127   5.246   2.261  14.161  0.4646  0.3499  0.3956
 6571TIP3    H141128   5.255   2.329  14.228  0.2246  1.2163 -0.4414
 6571TIP3    H241129   5.242   2.308  14.078  0.8058 -0.7138 -0.2502
 6572TIP3   OH241130   1.228   3.592   6.756 -0.0338 -0.0337 -0.7031
 6572TIP3    H141131   1.322   3.609   6.754  0.6179 -2.6505  1.4273
 6572TIP3    H241132   1.212   3.534   6.682  0.1937 -0.2003 -0.6227
 6573TIP3   OH241133   3.764   5.591  13.001  0.1795 -0.2158  0.2571
 6573TIP3    H141134   3.724   5.557  13.081 -3.6227  0.8942 -0.9354
 6573TIP3    H241135   3.722   5.542  12.930  1.0404  0.9816 -1.1497
 6574TIP3   OH241136   6.111   2.851   1.749 -0.1184  0.2826  0.4810
 6574TIP3    H141137   6.104   2.851   1.654 -0.0774  0.0089  0.4777
 6574TIP3    H241138   6.022   2.830   1.779  0.1854 -1.1322  0.4737
 6575TIP3   OH241139   0.190   4.601   5.320  0.0667  0.0052 -0.0867
 6575TIP3    H141140   0.136   4.676   5.347 -0.6363 -1.1977  2.1367
 6575TIP3    H241141   0.200   4.611   5.225 -1.9712  1.6265 -0.1974
 6576TIP3   OH241142   1.170   1.450   3.620 -0.9638  0.3761 -0.5514
 6576TIP3    H141143   1.124   1.492   3.693 -0.4484 -2.5953  1.6686
 6576TIP3    H241144   1.106   1.390   3.583 -0.4319  0.0160 -0.8943
 6577TIP3   OH241145   2.953   4.000   5.781 -0.5066 -0.1426 -0.4118
 6577TIP3    H141146   3.020   4.045   5.833  0.4084 -1.2069 -0.6435
 6577TIP3    H241147   2.955   4.044   5.696  1.3350 -1.3926 -1.0957
 6578TIP3   OH241148   3.779   4.746  10.299  0.1098 -0.1732 -0.0025
 6578TIP3    H141149   3.845   4.812  10.319 -1.1874  1.1174  0.1613
 6578TIP3    H241150   3.697   4.794  10.297 -0.6991 -1.5326 -1.3865
 6579TIP3   OH241151   1.549   2.852   4.262  0.4138  0.0143 -0.0220
 6579TIP3    H141152   1.565   2.928   4.318  0.2110 -0.9383  1.4024
 6579TIP3    H241153   1.538   2.779   4.324  0.2584 -1.1097 -1.3235
 6580TIP3   OH241154   6.410   5.851   6.010 -0.1276 -0.0015 -0.2460
 6580TIP3    H141155   6.384   5.823   6.098 -0.4933  3.6020  1.0028
 6580TIP3    H241156   6.499   5.818   5.999 -0.2877 -1.0130  1.2328
 6581TIP3   OH241157   1.278   4.461  16.825  0.3082  0.8072 -0.0924
 6581TIP3    H141158   1.247   4.372  16.840  0.7865  0.7914  0.8903
 6581TIP3    H241159   1.314   4.460  16.737  1.0245 -0.1885  0.1998
 6582TIP3   OH241160   6.201   1.563  11.059  0.5040  0.6206 -0.5281
 6582TIP3    H141161   6.263   1.499  11.024  2.6631  1.1588  1.9321
 6582TIP3    H241162   6.205   1.637  10.998  1.0652 -0.0025 -1.2602
 6583TIP3   OH241163   2.590   1.005   1.037 -0.5758  0.5911  0.1561
 6583TIP3    H141164   2.560   0.930   0.986 -1.1967  0.5274  0.6006
 6583TIP3    H241165   2.574   1.080   0.980 -1.7571  0.5726  0.4438
 6584TIP3   OH241166   5.885   0.877  16.863  0.5441 -0.0942  0.2456
 6584TIP3    H141167   5.958   0.921  16.907 -0.7547  1.2190  1.1772
 6584TIP3    H241168   5.820   0.946  16.850 -1.4620 -1.6455  1.4894
 6585TIP3   OH241169   6.173   5.527  12.923  0.1334  0.2949 -0.0947
 6585TIP3    H141170   6.240   5.528  12.991  0.2877  1.4368 -0.2571
 6585TIP3    H241171   6.188   5.444  12.876 -0.2165 -0.6987  1.4713
 6586TIP3   OH241172   5.883   5.858  16.614 -0.3495 -0.1386 -0.1390
 6586TIP3    H141173   5.884   5.792  16.544 -0.4288  0.2079 -0.4710
 6586TIP3    H241174   5.914   5.938  16.572 -0.8438  0.1863  0.1041
 6587TIP3   OH241175   6.636   1.448  17.131 -0.5017  0.1528 -0.2432
 6587TIP3    H141176   6.557   1.405  17.165 -0.6365 -1.8345 -2.7974
 6587TIP3    H241177   6.706   1.418  17.189 -1.3523  0.8364  1.2070
 6588TIP3   OH241178   1.445   1.616   1.569  0.0174  0.5053 -0.4206
 6588TIP3    H141179   1.528   1.604   1.615  0.1944  2.3066 -0.2059
 6588TIP3    H241180   1.470   1.653   1.485 -0.5289  0.3296 -0.6608
 6589TIP3   OH241181   6.325   6.780   1.891 -0.0899 -0.3023 -0.5564
 6589TIP3    H141182   6.366   6.853   1.938  1.6451 -0.9711 -0.9683
 6589TIP3    H241183   6.339   6.704   1.948 -1.6239 -0.3951 -0.2689
 6590TIP3   OH241184   4.140   0.826   2.930 -0.2079 -0.1613  0.0163
 6590TIP3    H141185   4.126   0.790   3.017  2.2974 -1.2973  0.0555
 6590TIP3    H241186   4.178   0.753   2.880  1.7111  1.3882 -0.9409
 6591TIP3   OH241187   4.125   5.807   2.135 -0.5763  0.0691 -0.2345
 6591TIP3    H141188   4.218   5.799   2.112  0.0136  0.1136  1.9071
 6591TIP3    H241189   4.122   5.883   2.193 -1.3061 -2.0098  2.5998
 6592TIP3   OH241190   4.515   5.707  17.096 -0.6970  0.5017 -0.0357
 6592TIP3    H141191   4.584   5.774  17.101  0.6855 -0.8684 -0.1134
 6592TIP3    H241192   4.435   5.757  17.076 -0.5795  2.6392  3.9248
 6593TIP3   OH241193   4.485   1.285  12.308 -0.0523 -0.2768 -0.7138
 6593TIP3    H141194   4.514   1.210  12.256  0.5232 -1.0137  0.6395
 6593TIP3    H241195   4.530   1.360  12.269  1.4228 -1.0028 -0.4461
 6594TIP3   OH241196   6.622   1.196   1.763  0.3783 -0.4173 -0.5648
 6594TIP3    H141197   6.626   1.272   1.705  0.0650 -0.1284 -0.2158
 6594TIP3    H241198   6.541   1.209   1.813  0.3556 -0.9502 -0.4604
 6595TIP3   OH241199   0.015   1.646  11.944  0.0546  0.5191 -0.6704
 6595TIP3    H141200  -0.042   1.687  11.879 -0.3841  0.8111 -0.1112
 6595TIP3    H241201   0.017   1.708  12.017 -0.2614 -0.2350  0.0053
 6596TIP3   OH241202   3.384   6.232  15.412 -0.0287  0.0546  0.8144
 6596TIP3    H141203   3.334   6.162  15.454 -1.0880 -0.4872 -1.2084
 6596TIP3    H241204   3.474   6.218  15.442  0.2869 -3.7129 -1.2464
 6597TIP3   OH241205   1.952   5.336   3.108  0.1125  0.3056  0.0861
 6597TIP3    H141206   1.941   5.277   3.034 -1.6449  1.6491 -0.8144
 6597TIP3    H241207   1.937   5.282   3.185 -0.0705 -0.7078 -0.6415
 6598TIP3   OH241208   6.442   2.348  11.642 -0.0142  0.0880 -0.0198
 6598TIP3    H141209   6.384   2.283  11.603  0.4227 -0.4307  0.1813
 6598TIP3    H241210   6.384   2.408  11.689 -0.2735 -1.5936  1.9385
 6599TIP3   OH241211   6.304   2.076  13.097 -0.6041 -0.7339  0.4761
 6599TIP3    H141212   6.372   2.020  13.134 -0.4556 -0.5725  0.4520
 6599TIP3    H241213   6.240   2.086  13.167 -1.5180 -2.3472 -0.0725
 6600TIP3   OH241214   4.099   4.161  16.886 -0.0491  0.6887 -0.3767
 6600TIP3    H141215   4.045   4.085  16.865 -0.2141  0.9278 -0.8346
 6600TIP3    H241216   4.037   4.235  16.884  0.0360  0.7896  0.4181
 6601TIP3   OH241217   5.183   0.265   2.862  0.1061 -0.2348 -0.5044
 6601TIP3    H141218   5.105   0.301   2.904 -1.5700 -0.8935 -2.8353
 6601TIP3    H241219   5.226   0.341   2.822  0.3851  0.0536  0.3228
 6602TIP3   OH241220   0.034   5.670   0.733  0.4701  0.3303  0.4568
 6602TIP3    H141221   0.083   5.741   0.692 -1.4936  1.0560 -0.7845
 6602TIP3    H241222  -0.046   5.712   0.765 -0.0438 -1.0701  1.0766
 6603TIP3   OH241223   6.052   3.617   0.759 -0.6255 -0.1403  0.7187
 6603TIP3    H141224   6.131   3.608   0.812  0.1218 -0.8529 -0.4778
 6603TIP3    H241225   6.085   3.631   0.670 -1.8326 -1.9157 -0.0483
 6604TIP3   OH241226   3.255   6.723   1.033 -0.4690  0.1918 -0.2806
 6604TIP3    H141227   3.215   6.762   0.955 -0.3587 -0.3577 -0.6137
 6604TIP3    H241228   3.349   6.719   1.012 -0.0918  2.1057  0.7560
 6605TIP3   OH241229   5.407   4.543  13.289 -0.0078 -0.0790 -0.8266
 6605TIP3    H141230   5.493   4.539  13.331 -0.8585 -0.3440  0.9447
 6605TIP3    H241231   5.370   4.627  13.316 -0.2998  0.0611 -1.6246
 6606TIP3   OH241232   1.374   3.120  15.819 -0.0280 -0.0907 -0.7114
 6606TIP3    H141233   1.385   3.192  15.881 -0.8877 -1.0746  0.6399
 6606TIP3    H241234   1.448   3.128  15.759  0.3725  1.3837 -0.0559
 6607TIP3   OH241235   4.581   3.091  11.828  0.3332 -0.1394 -0.2214
 6607TIP3    H141236   4.655   3.108  11.887 -0.5673  0.1632  0.8578
 6607TIP3    H241237   4.566   2.997  11.835 -0.3488  0.0294  0.7663
 6608TIP3   OH241238   5.630   1.002  15.139  0.2349  0.2129 -0.0581
 6608TIP3    H141239   5.620   0.980  15.231  1.9968  1.5259  0.5140
 6608TIP3    H241240   5.559   0.955  15.095 -0.6973 -0.3825  1.9530
 6609TIP3   OH241241   1.965   2.154   6.496 -0.2887 -0.5183 -0.0106
 6609TIP3    H141242   1.980   2.207   6.574 -0.3461 -1.1742  0.4525
 6609TIP3    H241243   2.027   2.081   6.503 -0.0103 -0.3729 -0.7864
 6610TIP3   OH241244   3.950   3.021   5.278  0.8780  0.0737  0.0142
 6610TIP3    H141245   3.944   3.043   5.185 -0.5406  1.1019  0.3080
 6610TIP3    H241246   3.942   2.925   5.280  1.0395  0.0265 -0.9288
 6611TIP3   OH241247   5.359   6.451  12.621  0.0377  0.0520 -0.6896
 6611TIP3    H141248   5.314   6.519  12.571  0.0853  1.0630  0.5954
 6611TIP3    H241249   5.288   6.404  12.665  0.1513  2.2213  2.0659
 6612TIP3   OH241250   2.857   5.257  13.946 -0.0317  0.2348 -0.4398
 6612TIP3    H141251   2.889   5.245  14.036  1.1329 -1.0454 -0.9876
 6612TIP3    H241252   2.803   5.180  13.929 -1.4766  1.1845 -0.3787
 6613TIP3   OH241253   2.809   5.016  12.096 -0.2997 -0.3333 -0.4258
 6613TIP3    H141254   2.792   4.954  12.025 -1.1371 -1.8850  1.0535
 6613TIP3    H241255   2.731   5.072  12.098 -0.0359  0.0730 -1.0429
 6614TIP3   OH241256   0.309   4.990   1.981  0.2611  0.1970 -1.1662
 6614TIP3    H141257   0.260   4.909   1.964  1.4077 -0.9162  0.4456
 6614TIP3    H241258   0.399   4.968   1.958  0.9035  0.3697  0.9379
 6615TIP3   OH241259   2.637   2.274   4.945  0.3050 -0.7042 -0.3308
 6615TIP3    H141260   2.631   2.231   4.860  1.8862  0.5726 -1.1569
 6615TIP3    H241261   2.646   2.367   4.924 -0.4341 -0.2275  1.2897
 6616TIP3   OH241262   0.171   5.051   5.296 -0.0220  0.3360  0.3348
 6616TIP3    H141263   0.174   5.140   5.261  2.0797 -0.1854 -0.9395
 6616TIP3    H241264   0.172   4.995   5.219 -1.0619 -0.8391  1.1307
 6617TIP3   OH241265   2.056   1.735  11.833 -0.2649 -0.4127  0.2446
 6617TIP3    H141266   2.028   1.803  11.895 -0.6541  1.3513 -1.7326
 6617TIP3    H241267   1.976   1.687  11.812 -0.3106 -0.4104  0.4114
 6618TIP3   OH241268   2.604   0.522  14.959 -0.3761  0.4813  0.0801
 6618TIP3    H141269   2.605   0.590  14.892  1.5034  0.9594  0.5437
 6618TIP3    H241270   2.516   0.526  14.996 -0.5364  2.1715 -0.3993
 6619TIP3   OH241271   6.565   0.053   0.508 -0.1216 -0.2505  0.1879
 6619TIP3    H141272   6.559   0.124   0.444  0.7697  1.4165  1.8577
 6619TIP3    H241273   6.631  -0.006   0.472 -1.9885 -1.1334 -1.9876
 6620TIP3   OH241274   4.930   0.011  11.838  0.8814  0.0768  0.0522
 6620TIP3    H141275   4.949   0.014  11.744  1.9702 -0.0195  0.2566
 6620TIP3    H241276   4.950   0.099  11.869 -1.7077  0.8295 -0.1761
 6621TIP3   OH241277   5.459   3.606  15.950 -0.2032 -0.6200  0.0476
 6621TIP3    H141278   5.364   3.597  15.961 -0.3692  1.2464  0.4540
 6621TIP3    H241279   5.488   3.653  16.028  0.8651 -0.1190 -0.6244
 6622TIP3   OH241280   0.201   3.222   5.530  0.1665  0.1627  0.2053
 6622TIP3    H141281   0.158   3.176   5.602 -0.5743  1.0098  0.3144
 6622TIP3    H241282   0.249   3.153   5.483 -1.0355 -0.7528  0.2727
 6623TIP3   OH241283   3.969   3.759   3.296  0.2056 -0.4819 -0.1249
 6623TIP3    H141284   4.021   3.715   3.363  0.7611 -1.6242 -1.2694
 6623TIP3    H241285   3.886   3.777   3.339  0.9861 -0.0314  1.2556
 6624TIP3   OH241286   5.148   1.194   1.154  0.6388 -0.6585  0.0268
 6624TIP3    H141287   5.105   1.203   1.238 -1.4796 -0.6738 -0.9871
 6624TIP3    H241288   5.149   1.283   1.117 -0.6821 -1.0013 -0.9183
 6625TIP3   OH241289   3.684   4.308  12.754  0.6512  0.1393  0.7240
 6625TIP3    H141290   3.680   4.350  12.840 -0.6419 -1.6810  1.6232
 6625TIP3    H241291   3.661   4.216  12.771  0.3400 -0.2715 -1.5679
 6626TIP3   OH241292   5.432   2.789   2.893  0.3805  0.2813  0.0051
 6626TIP3    H141293   5.422   2.706   2.846  0.8664  0.0891  0.2285
 6626TIP3    H241294   5.436   2.855   2.824  1.4917 -0.0387 -0.2695
 6627TIP3   OH241295   0.758   0.582   1.808  0.2217 -0.4206 -0.2898
 6627TIP3    H141296   0.752   0.504   1.754  1.6410  0.3962 -1.7123
 6627TIP3    H241297   0.846   0.580   1.845  0.7436  1.0805 -1.3393
 6628TIP3   OH241298   3.332   3.673  11.115  0.3553 -0.0183 -0.1005
 6628TIP3    H141299   3.334   3.705  11.205 -1.0271  0.5076 -0.2387
 6628TIP3    H241300   3.415   3.625  11.105 -0.1091 -1.3851  1.9251
 6629TIP3   OH241301   4.304   2.797   5.028  0.1449 -0.7193 -0.4250
 6629TIP3    H141302   4.312   2.780   5.122 -0.0383 -3.4821 -0.8240
 6629TIP3    H241303   4.344   2.721   4.987 -2.5296 -1.1053 -2.5733
 6630TIP3   OH241304   3.109   5.941  11.456 -0.8236 -0.0277  0.2767
 6630TIP3    H141305   3.174   5.970  11.392 -0.8096 -0.6363  0.0098
 6630TIP3    H241306   3.026   5.944  11.409 -0.8590 -0.1524  0.3318
 6631TIP3   OH241307   5.094   2.711   3.980 -0.4223  0.4286 -0.1273
 6631TIP3    H141308   5.078   2.728   4.073  0.6853  2.1044 -0.1938
 6631TIP3    H241309   5.008   2.687   3.945 -0.7925 -0.6015  1.3802
 6632TIP3   OH241310   2.080   5.704  13.324  0.8920  0.1702  0.1283
 6632TIP3    H141311   1.997   5.751  13.321  0.8592  0.6549  3.8310
 6632TIP3    H241312   2.059   5.616  13.291 -1.0450  0.3480  0.7691
 6633TIP3   OH241313   2.602   3.850  12.622  0.0180 -0.1163 -0.1871
 6633TIP3    H141314   2.622   3.942  12.606 -1.7972  0.1914 -0.8340
 6633TIP3    H241315   2.516   3.850  12.663  0.2026 -1.5115  0.2543
 6634TIP3   OH241316   4.534   4.653  13.721  0.2437 -0.1394 -0.2081
 6634TIP3    H141317   4.466   4.714  13.750 -0.9208 -0.4332 -2.1326
 6634TIP3    H241318   4.494   4.567  13.727  0.9919 -0.4750  0.0995
 6635TIP3   OH241319   2.495   6.365   1.001 -0.4532 -0.2096  0.0795
 6635TIP3    H141320   2.542   6.288   0.971 -0.6135 -0.0727 -0.5392
 6635TIP3    H241321   2.446   6.335   1.078  1.6315 -0.0336  1.5606
 6636TIP3   OH241322   0.708   4.773  11.840 -0.4570  0.2734  0.2535
 6636TIP3    H141323   0.708   4.848  11.899 -1.4358  0.3748  0.1367
 6636TIP3    H241324   0.733   4.808  11.755  0.6527  0.1809  0.5315
 6637TIP3   OH241325   0.360   5.178  12.169  0.4269 -0.8281 -0.6779
 6637TIP3    H141326   0.388   5.095  12.209 -1.0520 -1.1285 -0.1849
 6637TIP3    H241327   0.389   5.172  12.078  1.8571 -1.1235 -0.2226
 6638TIP3   OH241328   3.772   1.919  14.162 -0.3252  0.0184 -0.0572
 6638TIP3    H141329   3.864   1.904  14.183 -0.2512 -0.0426 -0.4115
 6638TIP3    H241330   3.767   2.013  14.144  0.0158 -0.2297 -1.6442
 6639TIP3   OH241331   1.486   2.660   1.774 -0.0011  0.4554 -0.0792
 6639TIP3    H141332   1.402   2.704   1.787  0.9983  2.1873  0.8966
 6639TIP3    H241333   1.464   2.583   1.721 -2.2303  0.6805  0.3865
 6640TIP3   OH241334   5.583   1.043   5.606  0.2232 -0.1376 -0.4793
 6640TIP3    H141335   5.587   1.052   5.701 -0.5859 -1.7165 -0.2637
 6640TIP3    H241336   5.674   1.040   5.578  0.5322 -2.5268  0.5868
 6641TIP3   OH241337   2.996   0.003   2.047 -0.5819 -0.1723 -0.0236
 6641TIP3    H141338   2.980  -0.002   1.953  2.2480 -1.4397 -0.5330
 6641TIP3    H241339   2.953   0.084   2.074 -1.1173  0.4445 -2.4699
 6642TIP3   OH241340   6.382   1.387   1.104  0.1610  0.4647 -0.2426
 6642TIP3    H141341   6.325   1.464   1.109  0.5947  0.9916 -2.2750
 6642TIP3    H241342   6.430   1.387   1.186 -4.1273 -1.2078  2.5809
 6643TIP3   OH241343   5.795   4.067   2.525  0.1981 -0.0380 -0.5665
 6643TIP3    H141344   5.723   4.003   2.524  0.9658 -0.9600 -2.4810
 6643TIP3    H241345   5.840   4.050   2.608 -1.6358  0.4399  0.5949
 6644TIP3   OH241346   1.641   0.702   1.516 -0.1512  0.0858  0.1494
 6644TIP3    H141347   1.586   0.779   1.505 -0.1934 -0.0407 -0.5692
 6644TIP3    H241348   1.721   0.722   1.466 -0.5456 -0.6992 -0.8320
 6645TIP3   OH241349   2.250   3.476  16.375  0.3115  0.0057  0.0411
 6645TIP3    H141350   2.185   3.424  16.326  3.3510 -2.9829 -1.2841
 6645TIP3    H241351   2.243   3.564  16.338 -1.4474 -0.7475 -1.6315
 6646TIP3   OH241352   6.704   6.380   4.959 -0.3152  0.4539 -0.0724
 6646TIP3    H141353   6.782   6.324   4.957 -0.7604 -0.1784 -1.5738
 6646TIP3    H241354   6.710   6.428   5.042  0.1218 -1.7353  1.2256
 6647TIP3   OH241355   3.817   2.966   4.462 -0.1464  1.1695 -0.2570
 6647TIP3    H141356   3.727   2.960   4.429  0.4876  0.4218 -1.9700
 6647TIP3    H241357   3.810   3.020   4.541 -2.3054 -0.0561  0.4804
 6648TIP3   OH241358   1.193   1.918  10.608 -0.7814 -0.0348  0.0096
 6648TIP3    H141359   1.111   1.966  10.594 -1.6625 -0.5564  2.7228
 6648TIP3    H241360   1.260   1.986  10.616 -1.1794  0.4719 -0.7751
 6649TIP3   OH241361   6.620   2.369  14.271  0.2171 -0.7199 -0.2585
 6649TIP3    H141362   6.648   2.458  14.249 -1.6846  0.0530  0.2688
 6649TIP3    H241363   6.592   2.331  14.187  1.5185 -1.0415 -0.5710
 6650TIP3   OH241364   2.568   2.959  11.781  0.9013 -0.1210 -0.0399
 6650TIP3    H141365   2.513   3.037  11.774  0.1566 -0.7433 -1.5529
 6650TIP3    H241366   2.506   2.887  11.785  1.5337 -0.8979 -2.4552
 6651TIP3   OH241367   1.931   0.570   4.008 -0.0906  0.4557 -0.1108
 6651TIP3    H141368   1.893   0.577   3.920  1.0940  1.9684 -0.5378
 6651TIP3    H241369   1.892   0.643   4.057 -0.6459 -0.2996  0.6051
 6652TIP3   OH241370   6.210   3.339  12.261  0.2513  0.4648 -0.4335
 6652TIP3    H141371   6.253   3.278  12.322 -0.6433  0.8454  0.6259
 6652TIP3    H241372   6.253   3.324  12.177 -0.7280 -2.5139 -0.5380
 6653TIP3   OH241373   0.305   6.587  16.030  0.0217  0.1232  0.1014
 6653TIP3    H141374   0.270   6.547  15.951  1.1228  0.1302 -0.3951
 6653TIP3    H241375   0.343   6.515  16.079 -0.8738  0.0793  0.7542
 6654TIP3   OH241376   3.906   4.435  13.859  0.4438 -0.7928 -0.3078
 6654TIP3    H141377   3.972   4.503  13.853 -1.9176  1.6963 -0.1774
 6654TIP3    H241378   3.878   4.436  13.951 -0.8333 -0.6504 -0.6711
 6655TIP3   OH241379   4.386   0.597   4.886 -0.0584  0.2228 -0.1237
 6655TIP3    H141380   4.318   0.594   4.953 -1.9040 -1.2498 -1.9386
 6655TIP3    H241381   4.338   0.593   4.803  2.2050  0.2334 -1.5099
 6656TIP3   OH241382   2.722   1.230  14.697  0.2198 -1.0956  0.0789
 6656TIP3    H141383   2.726   1.199  14.607 -0.4269 -0.3454 -0.2313
 6656TIP3    H241384   2.779   1.307  14.698 -0.4898 -0.5571  0.0576
 6657TIP3   OH241385   1.651   5.605  17.085 -0.2201  0.0066  0.3078
 6657TIP3    H141386   1.670   5.521  17.043  0.7713 -0.2954  1.2965
 6657TIP3    H241387   1.685   5.595  17.174  0.9247  1.8198  0.1307
 6658TIP3   OH241388   4.826   6.448   5.376  0.0472  0.0242  0.0956
 6658TIP3    H141389   4.757   6.484   5.432  0.5362  0.8900  0.1671
 6658TIP3    H241390   4.795   6.360   5.353 -1.4213  0.6474 -0.4755
 6659TIP3   OH241391   3.206   2.510  16.947 -0.8370 -0.2700  0.6175
 6659TIP3    H141392   3.267   2.541  17.013  0.1681 -3.0171  1.1332
 6659TIP3    H241393   3.255   2.512  16.865 -1.0859  0.3604  0.4809
 6660TIP3   OH241394   2.993   4.420   5.455 -0.1570 -0.3902  0.4179
 6660TIP3    H141395   2.913   4.388   5.414  0.6605 -2.1078  0.0704
 6660TIP3    H241396   2.967   4.499   5.502 -1.3958  0.9605 -2.3329
 6661TIP3   OH241397   4.523   3.723  13.840 -0.4784 -0.6415  0.5336
 6661TIP3    H141398   4.506   3.763  13.925  0.7648 -1.0746  1.0021
 6661TIP3    H241399   4.456   3.760  13.782 -0.6627  0.4835  1.4349
 6662TIP3   OH241400   1.868   4.432   3.749  0.2520  0.2025  0.1032
 6662TIP3    H141401   1.931   4.454   3.817  1.0743 -0.4363 -0.4444
 6662TIP3    H241402   1.879   4.501   3.683 -0.4445  0.7394  0.5225
 6663TIP3   OH241403   1.201   0.830   1.724  0.2371  0.7743  0.1936
 6663TIP3    H141404   1.137   0.768   1.688  1.2799 -0.2266  0.0038
 6663TIP3    H241405   1.182   0.832   1.817  1.5050 -1.5078  0.5719
 6664TIP3   OH241406   1.466   4.044   1.650 -0.1939 -0.1013  0.4020
 6664TIP3    H141407   1.512   4.108   1.705 -0.8602  2.1860 -1.5310
 6664TIP3    H241408   1.383   4.030   1.695 -0.4829  1.2749  0.3384
 6665TIP3   OH241409   2.485   4.667   2.913 -0.5914  0.2571  0.3952
 6665TIP3    H141410   2.416   4.612   2.949 -0.6817  1.8725  2.9998
 6665TIP3    H241411   2.479   4.749   2.963  2.3754  0.9376 -0.1354
 6666TIP3   OH241412   5.149   2.042  14.997 -0.5446 -0.1010  0.4004
 6666TIP3    H141413   5.223   2.058  14.938  0.1845 -0.9601  1.0470
 6666TIP3    H241414   5.098   1.974  14.953  0.0489 -0.8076  0.7629
 6667TIP3   OH241415   5.663   4.218   4.886 -0.1954  0.2163  0.1839
 6667TIP3    H141416   5.751   4.197   4.854 -0.6488 -0.6921 -0.5039
 6667TIP3    H241417   5.659   4.314   4.884  0.1001  0.2379 -1.7142
 6668TIP3   OH241418   6.465   4.612  13.173 -0.5672  0.4375 -0.2361
 6668TIP3    H141419   6.433   4.591  13.261 -0.7491  2.5222  0.2702
 6668TIP3    H241420   6.420   4.694  13.151  0.0880  0.3782 -1.9478
 6669TIP3   OH241421   4.227   1.441   3.725  0.2251 -0.2383  0.5881
 6669TIP3    H141422   4.321   1.426   3.718  0.2998  0.4293 -0.0140
 6669TIP3    H241423   4.219   1.511   3.790  0.5565  3.0758 -2.5845
 6670TIP3   OH241424   1.774   1.568   4.019 -0.1961 -0.1725 -0.1354
 6670TIP3    H141425   1.748   1.541   3.931  0.2566 -0.9838 -0.0274
 6670TIP3    H241426   1.802   1.487   4.062 -0.3163  0.2281  0.7241
 6671TIP3   OH241427   6.777   4.449  12.830 -0.2540 -0.1584  0.4485
 6671TIP3    H141428   6.723   4.436  12.908 -2.2081  0.2576 -0.7502
 6671TIP3    H241429   6.760   4.539  12.803  1.9920  0.3777  0.6542
 6672TIP3   OH241430   1.535   2.564  12.669  0.2656  0.1829 -0.2923
 6672TIP3    H141431   1.459   2.521  12.629  0.1862  0.2755 -0.2428
 6672TIP3    H241432   1.582   2.493  12.713 -1.4722  0.5420  2.3797
 6673TIP3   OH241433   5.566   5.577  14.070  0.1425  0.0958  0.1710
 6673TIP3    H141434   5.482   5.622  14.079  0.5319  1.1343 -0.9944
 6673TIP3    H241435   5.560   5.503  14.130 -2.4231 -1.0875 -1.3485
 6674TIP3   OH241436   5.222   6.126  14.052 -0.3290  0.3146  0.0451
 6674TIP3    H141437   5.272   6.045  14.041 -2.1723 -0.6468 -1.7863
 6674TIP3    H241438   5.135   6.097  14.081 -0.4841  1.7874  1.1620
 6675TIP3   OH241439   5.259   4.542  10.732  0.7844 -0.3808 -0.1274
 6675TIP3    H141440   5.258   4.475  10.800  0.4123 -1.0809 -0.8101
 6675TIP3    H241441   5.174   4.534  10.689  0.6829  0.6239 -0.1305
 6676TIP3   OH241442   2.578   1.678  11.623 -0.2522 -0.5568  0.2215
 6676TIP3    H141443   2.538   1.663  11.709  1.2146 -1.4484  0.7862
 6676TIP3    H241444   2.504   1.700  11.566 -1.3093 -0.3463  1.6085
 6677TIP3   OH241445   2.466   5.825   1.133  0.0560  0.2996  0.3769
 6677TIP3    H141446   2.407   5.888   1.176 -0.5488  0.7351 -1.0201
 6677TIP3    H241447   2.425   5.740   1.149 -1.6234  0.6880 -1.4964
 6678TIP3   OH241448   4.717   1.448   5.940 -0.5625  0.0631  0.4149
 6678TIP3    H141449   4.629   1.450   5.903  0.2064  0.4708 -1.5189
 6678TIP3    H241450   4.741   1.540   5.951 -0.6452 -0.0482  1.6733
 6679TIP3   OH241451   1.868   4.220   3.035  0.1773 -0.1887  0.2750
 6679TIP3    H141452   1.787   4.245   2.991  0.4915  0.0140 -0.2022
 6679TIP3    H241453   1.848   4.226   3.128 -0.3839 -0.2412  0.1608
 6680TIP3   OH241454   4.441   1.448   5.861  0.3552  0.3484  0.5175
 6680TIP3    H141455   4.371   1.513   5.875  1.4126  1.6185  0.1317
 6680TIP3    H241456   4.399   1.378   5.811 -0.6265  1.1239  0.2226
 6681TIP3   OH241457   6.481   4.054  12.389 -1.0750 -0.7504 -0.0488
 6681TIP3    H141458   6.517   4.062  12.477 -1.2172 -0.5157 -0.0104
 6681TIP3    H241459   6.531   3.983  12.349  0.4427  0.5215 -0.4912
 6682TIP3   OH241460   3.146   2.854  13.073 -0.0132  0.1758  0.3806
 6682TIP3    H141461   3.113   2.766  13.089 -1.5085  0.9062  1.4838
 6682TIP3    H241462   3.240   2.847  13.088 -0.0743 -1.2581  0.2742
 6683TIP3   OH241463   2.569   1.657  14.302  0.1028 -0.1389  0.4090
 6683TIP3    H141464   2.493   1.627  14.352 -0.2097  0.9021  0.5707
 6683TIP3    H241465   2.583   1.589  14.236  0.1598 -1.2530  1.5213
 6684TIP3   OH241466   5.956   5.043  13.856 -0.1653 -0.5250 -0.3815
 6684TIP3    H141467   5.992   5.104  13.792  1.7571 -0.8139  0.3502
 6684TIP3    H241468   5.978   5.082  13.941 -0.5069 -1.3318  0.0885
 6685TIP3   OH241469   5.366   3.095   1.504  0.3302  0.1715 -0.5134
 6685TIP3    H141470   5.443   3.107   1.560  1.7372 -0.7461 -2.1381
 6685TIP3    H241471   5.390   3.137   1.421 -0.8483 -0.3126 -1.1245
 6686TIP3   OH241472   1.208   3.082   5.049 -0.1383  0.0657 -0.2876
 6686TIP3    H141473   1.177   3.117   5.133 -1.7031 -0.3319 -0.6681
 6686TIP3    H241474   1.243   2.995   5.071  1.2446  0.7291  0.2305
 6687TIP3   OH241475   0.788   2.561   5.563 -0.0370  0.1941  0.2610
 6687TIP3    H141476   0.854   2.506   5.605 -0.1595  0.7456  1.2075
 6687TIP3    H241477   0.707   2.539   5.609 -0.3961 -0.0160 -0.4629
 6688TIP3   OH241478   6.525   3.832  10.509  0.4901  0.1057 -0.1907
 6688TIP3    H141479   6.477   3.820  10.426  1.1808 -2.8036 -0.2488
 6688TIP3    H241480   6.604   3.880  10.484 -0.5426  1.6094 -0.7175
 6689TIP3   OH241481   1.105   6.613   5.290 -0.2128  0.1449 -0.3710
 6689TIP3    H141482   1.198   6.611   5.314 -0.3485 -2.2836  0.2543
 6689TIP3    H241483   1.104   6.592   5.196 -0.1341 -0.4931 -0.2356
 6690TIP3   OH241484   1.247   6.780  14.526 -0.7309 -0.0421 -0.1186
 6690TIP3    H141485   1.254   6.875  14.527 -0.2674 -0.0764  0.6212
 6690TIP3    H241486   1.165   6.762  14.481 -1.7046  0.7668  1.2946
 6691TIP3   OH241487   1.990   6.398  16.891  0.2010  0.0252 -0.5681
 6691TIP3    H141488   1.960   6.346  16.816  1.6502 -1.3178 -0.2824
 6691TIP3    H241489   1.910   6.435  16.928 -1.0535 -2.6349 -0.3505
 6692TIP3   OH241490   5.898   2.202  14.954 -0.2796  0.0150  0.4005
 6692TIP3    H141491   5.914   2.150  15.032 -0.3570 -0.2302  0.2579
 6692TIP3    H241492   5.920   2.292  14.979 -0.5847 -0.0156  0.7881
 6693TIP3   OH241493   2.176   1.462   0.685 -0.7709 -0.2747  0.0184
 6693TIP3    H141494   2.091   1.482   0.645 -0.6649 -0.5151 -0.3252
 6693TIP3    H241495   2.215   1.548   0.702 -0.0077 -0.1479 -2.1142
 6694TIP3   OH241496   1.518   4.212  11.952  0.2459 -0.0182 -0.2681
 6694TIP3    H141497   1.445   4.212  12.015 -0.4758 -0.3052 -1.0810
 6694TIP3    H241498   1.541   4.304  11.942  0.1202  0.0607  0.1411
 6695TIP3   OH241499   4.285   6.756  14.013 -0.1985  0.6156 -0.3510
 6695TIP3    H141500   4.199   6.796  14.026 -0.9779 -1.2711  0.7254
 6695TIP3    H241501   4.309   6.777  13.923 -1.5828  1.5322 -0.5248
 6696TIP3   OH241502   4.136   2.323   1.299  0.7030  0.2833 -0.7057
 6696TIP3    H141503   4.208   2.386   1.307  0.3926  0.7097 -1.2442
 6696TIP3    H241504   4.081   2.358   1.229 -0.1517  0.0797 -0.1516
 6697TIP3   OH241505   5.807   1.405   4.910 -0.2560  0.1949 -0.6079
 6697TIP3    H141506   5.869   1.332   4.909 -0.1984  0.2317 -2.2202
 6697TIP3    H241507   5.800   1.430   5.002  1.9271  0.0173 -0.3437
 6698TIP3   OH241508   4.551   3.792  16.161  0.1590 -0.3856 -0.6290
 6698TIP3    H141509   4.636   3.823  16.191  0.8046 -2.0362 -0.6348
 6698TIP3    H241510   4.491   3.815  16.232  0.5329  0.9961 -0.7225
 6699TIP3   OH241511   1.535   6.673  12.450  0.5342  0.5895 -0.2507
 6699TIP3    H141512   1.499   6.614  12.516  0.6615  0.8441  0.0487
 6699TIP3    H241513   1.459   6.718  12.413  0.5401  1.2055  0.4578
 6700TIP3   OH241514   3.764   3.620  14.617  0.0325  0.4490  0.3261
 6700TIP3    H141515   3.699   3.554  14.596  0.1580  0.1027  1.0139
 6700TIP3    H241516   3.835   3.606  14.553  0.7273 -1.0405  1.3891
 6701TIP3   OH241517   1.212   1.166   3.325 -0.0495 -0.5124 -0.0434
 6701TIP3    H141518   1.284   1.199   3.272  1.4617 -1.4223  1.3650
 6701TIP3    H241519   1.182   1.087   3.280  1.8762 -1.8440  0.8943
 6702TIP3   OH241520   5.566   2.449  11.146 -0.4614 -0.3601  0.2841
 6702TIP3    H141521   5.661   2.464  11.139 -0.6942  1.0276 -0.3272
 6702TIP3    H241522   5.537   2.514  11.210 -1.0138 -0.7107  0.3913
 6703TIP3   OH241523   3.048   1.710  11.075  0.2614  0.3863 -0.3060
 6703TIP3    H141524   3.128   1.736  11.029  0.2533 -0.1211 -0.6219
 6703TIP3    H241525   3.071   1.626  11.115 -0.4564 -0.3601 -1.3747
 6704TIP3   OH241526   3.294   4.035   0.805  0.4290 -0.9124  0.0770
 6704TIP3    H141527   3.310   3.943   0.826  1.0507 -1.3207 -1.9256
 6704TIP3    H241528   3.219   4.060   0.859 -1.4173 -3.3632 -1.1452
 6705TIP3   OH241529   0.044   2.976  15.847 -0.1273  0.1919  0.1699
 6705TIP3    H141530   0.121   2.959  15.901 -2.0812  0.1690  3.1959
 6705TIP3    H241531   0.061   3.062  15.808  1.3646  0.2375  0.8572
 6706TIP3   OH241532   4.841   0.920   2.007 -0.2960 -0.7707  0.7984
 6706TIP3    H141533   4.895   0.888   1.935 -0.0506 -1.1471  1.1450
 6706TIP3    H241534   4.751   0.915   1.973 -0.0581  0.8471 -0.1486
 6707TIP3   OH241535   1.606   2.240   4.470  0.1399 -0.2444  0.3015
 6707TIP3    H141536   1.536   2.305   4.470  0.6889  0.3645 -0.0640
 6707TIP3    H241537   1.573   2.169   4.415  0.1356  0.4147 -0.5722
 6708TIP3   OH241538   5.588   5.112  16.852  0.0028 -0.3132 -0.3527
 6708TIP3    H141539   5.647   5.100  16.777 -0.0143  0.9053 -0.5769
 6708TIP3    H241540   5.501   5.116  16.812  0.0662  1.2406 -0.3868
 6709TIP3   OH241541   6.032   3.906  13.788 -0.2543  0.1370 -0.1407
 6709TIP3    H141542   6.093   3.945  13.724 -0.5041  1.3402  0.3253
 6709TIP3    H241543   5.947   3.913  13.746 -0.3144  0.2086 -0.0085
 6710TIP3   OH241544   3.744   2.450  14.242  0.4170  0.2190 -0.4875
 6710TIP3    H141545   3.700   2.526  14.203  3.0873  2.0973 -0.1425
 6710TIP3    H241546   3.738   2.465  14.337  1.2303  0.2201 -0.4234
 6711TIP3   OH241547   0.048   3.077  15.289 -0.0373  0.0838  0.6145
 6711TIP3    H141548  -0.018   3.108  15.350  0.2579  0.8701  0.5498
 6711TIP3    H241549   0.073   3.156  15.239  2.5440  0.3342  2.1128
 6712TIP3   OH241550   4.131   6.113  14.641 -0.1014 -0.2314 -0.0098
 6712TIP3    H141551   4.113   6.132  14.733  1.3648 -0.1444  0.2876
 6712TIP3    H241552   4.053   6.067  14.610 -0.1344 -1.3853  1.6241
 6713TIP3   OH241553   3.090   4.075   3.650  0.0235  0.2119  0.1417
 6713TIP3    H141554   3.117   3.990   3.683 -1.1114  0.2669  1.3174
 6713TIP3    H241555   3.142   4.138   3.700  1.2040  0.2198 -1.0601
 6714TIP3   OH241556   6.007   6.571  10.584 -0.3505 -0.3305  0.1521
 6714TIP3    H141557   6.046   6.485  10.596  1.2199 -0.0106 -2.0247
 6714TIP3    H241558   6.064   6.631  10.633 -0.1482 -0.2663 -0.1629
 6715TIP3   OH241559   1.910   6.302   2.208  0.4150 -0.2272 -0.4997
 6715TIP3    H141560   1.835   6.269   2.257 -0.4535  1.7996 -0.3618
 6715TIP3    H241561   1.937   6.381   2.255  1.5962 -0.0075 -1.4903
 6716TIP3   OH241562   3.522   5.142  14.132 -0.2932  0.3852 -0.1674
 6716TIP3    H141563   3.493   5.193  14.208  0.4866  0.3406  0.1692
 6716TIP3    H241564   3.613   5.169  14.118 -0.3191  0.1322 -0.8725
 6717TIP3   OH241565   3.247   5.501   1.705 -0.1919  0.2989  0.2915
 6717TIP3    H141566   3.173   5.549   1.743 -0.2693 -0.9157  1.7976
 6717TIP3    H241567   3.212   5.460   1.626 -1.1834 -0.3862  1.0745
 6718TIP3   OH241568   3.392   1.598   4.840 -0.0204 -0.7277  0.1421
 6718TIP3    H141569   3.335   1.523   4.858 -0.0880 -1.3503 -2.3045
 6718TIP3    H241570   3.446   1.607   4.919 -2.5675 -0.9102  2.0658
 6719TIP3   OH241571   3.015   5.044   0.723 -0.3253  0.2868 -0.1958
 6719TIP3    H141572   3.087   5.049   0.785 -0.8330  0.2165  0.4013
 6719TIP3    H241573   3.029   4.962   0.675 -0.7266 -0.3837  0.8135
 6720TIP3   OH241574   6.112   5.517  12.135  0.1841  0.1757  0.3457
 6720TIP3    H141575   6.050   5.590  12.141  1.4072  1.2578  0.3574
 6720TIP3    H241576   6.127   5.507  12.041  0.4566  0.3362  0.3708
 6721TIP3   OH241577   4.494   4.565   4.014  0.3509 -0.6481 -0.7914
 6721TIP3    H141578   4.406   4.595   3.992 -0.1351 -1.2232  0.2707
 6721TIP3    H241579   4.516   4.611   4.096  1.5130  0.3495 -1.6220
 6722TIP3   OH241580   4.229   5.934  10.427 -0.1247 -0.3332 -0.6720
 6722TIP3    H141581   4.272   5.994  10.487 -2.4976 -0.0790  0.8958
 6722TIP3    H241582   4.160   5.987  10.386  0.9842 -0.6806 -3.2162
 6723TIP3   OH241583   2.609   4.063  15.512 -0.1526  0.3802  0.4921
 6723TIP3    H141584   2.631   4.156  15.524  1.0250  0.2902 -0.7291
 6723TIP3    H241585   2.692   4.017  15.521 -0.6962 -0.5455  0.8735
 6724TIP3   OH241586   3.859   5.946   5.316 -0.6298  0.4084 -0.1018
 6724TIP3    H141587   3.934   5.946   5.256 -1.5876 -0.0146 -1.3572
 6724TIP3    H241588   3.844   5.854   5.335  0.3923  0.5829  1.8053
 6725TIP3   OH241589   3.500   6.333  16.772 -0.0694  0.0294 -0.4531
 6725TIP3    H141590   3.468   6.266  16.713 -0.1815 -0.9191  0.6526
 6725TIP3    H241591   3.434   6.402  16.769 -0.0866 -0.0189 -1.3890
 6726TIP3   OH241592   0.865   2.431   4.577 -0.2452  0.0810  0.6873
 6726TIP3    H141593   0.957   2.408   4.561 -0.3959 -0.4567  0.5643
 6726TIP3    H241594   0.859   2.524   4.554 -0.4790 -0.6099 -2.6420
 6727TIP3   OH241595   2.379   4.565  13.226  0.6351  0.2036 -0.5355
 6727TIP3    H141596   2.300   4.513  13.242  1.5179 -0.3032  2.7074
 6727TIP3    H241597   2.362   4.649  13.268  1.4153  0.4946 -0.7808
 6728TIP3   OH241598   0.286   5.547   5.292 -0.0482  0.0557  0.2351
 6728TIP3    H141599   0.291   5.562   5.386 -1.3173 -0.1613  0.3434
 6728TIP3    H241600   0.377   5.529   5.266  0.6846  2.2770  1.0323
 6729TIP3   OH241601   0.661   0.138  11.932  0.7487 -0.0363  0.3106
 6729TIP3    H141602   0.652   0.229  11.901 -0.6765 -0.4392 -0.5819
 6729TIP3    H241603   0.728   0.100  11.875  0.7521  0.2370  0.1271
 6730TIP3   OH241604   1.071   1.054  16.755  0.4997  0.1340  0.2079
 6730TIP3    H141605   1.025   0.975  16.727  1.7444 -0.9395  1.0633
 6730TIP3    H241606   1.054   1.059  16.850 -2.3766  2.8386 -0.2731
 6731TIP3   OH241607   2.101   5.060  13.389  0.0876  0.0790 -0.1879
 6731TIP3    H141608   2.132   5.094  13.305 -0.7758 -2.2104 -1.5183
 6731TIP3    H241609   2.180   5.030  13.433  0.3146 -1.2282 -1.4200
 6732TIP3   OH241610   6.650   2.719  16.565  1.0305 -0.3721 -1.0922
 6732TIP3    H141611   6.631   2.812  16.551  0.0843 -0.3889 -0.0953
 6732TIP3    H241612   6.719   2.719  16.632  0.5636 -0.3868 -0.6044
 6733TIP3   OH241613   5.723   0.806  12.840 -0.6526  0.4599 -0.6105
 6733TIP3    H141614   5.652   0.845  12.891  0.2550  1.7708 -0.3206
 6733TIP3    H241615   5.756   0.878  12.786 -0.1047 -0.3552 -1.3928
 6734TIP3   OH241616   0.178   3.864   1.611 -0.2084 -0.0812  0.0061
 6734TIP3    H141617   0.181   3.777   1.651  0.4782 -0.6018 -1.1407
 6734TIP3    H241618   0.199   3.849   1.519 -0.4787  1.2558 -0.2920
 6735TIP3   OH241619   6.172   3.545   6.086 -0.1485  0.3093  0.1272
 6735TIP3    H141620   6.212   3.571   6.003  1.0056  0.6757  0.7688
 6735TIP3    H241621   6.246   3.517   6.140 -0.8774  0.1000  1.0407
 6736TIP3   OH241622   3.031   2.222   0.329 -0.7872 -0.1595 -0.1468
 6736TIP3    H141623   3.094   2.150   0.332 -0.3662  0.1924  2.5922
 6736TIP3    H241624   2.947   2.180   0.315 -0.4927 -1.1788  0.9835
 6737TIP3   OH241625   0.456   2.520   3.348  0.0652 -0.3437 -0.1600
 6737TIP3    H141626   0.440   2.459   3.420 -2.0890  0.7347  0.3638
 6737TIP3    H241627   0.464   2.465   3.270  0.4902 -1.4065  0.6169
 6738TIP3   OH241628   6.695   0.213  16.830 -0.3865  0.3486 -1.0320
 6738TIP3    H141629   6.704   0.237  16.922 -2.1060 -0.6445 -0.5507
 6738TIP3    H241630   6.675   0.119  16.832 -1.1114  0.4511 -2.3689
 6739TIP3   OH241631   4.951   3.706  14.992 -0.1119  0.3381 -0.3796
 6739TIP3    H141632   4.995   3.749  14.919 -0.2818  1.0247 -0.0863
 6739TIP3    H241633   5.014   3.641  15.024 -0.5042 -0.8264 -1.9076
 6740TIP3   OH241634   4.115   0.223   1.652 -0.4830 -0.3908  0.1952
 6740TIP3    H141635   4.059   0.226   1.729 -1.4118 -1.8876 -0.3855
 6740TIP3    H241636   4.189   0.279   1.674 -3.0792  3.4336  0.2286
 6741TIP3   OH241637   1.693   6.739  16.415 -0.0752  0.6131  0.1254
 6741TIP3    H141638   1.767   6.752  16.357  0.9653  1.4844  1.5993
 6741TIP3    H241639   1.702   6.648  16.445 -0.9661 -0.0558 -1.4538
 6742TIP3   OH241640   1.613   3.722  13.083  0.0626 -0.0987  0.1755
 6742TIP3    H141641   1.636   3.675  13.163 -0.0990 -0.1249  0.2067
 6742TIP3    H241642   1.693   3.766  13.057 -0.5281  2.1162  1.8114
 6743TIP3   OH241643   1.521   6.432   3.524  0.4689  0.1668  0.4022
 6743TIP3    H141644   1.538   6.439   3.618 -0.6006 -0.7818  0.6946
 6743TIP3    H241645   1.534   6.339   3.504 -0.4060  0.1498 -0.1457
 6744TIP3   OH241646   4.652   0.126   2.773 -0.3545  0.2423 -0.1332
 6744TIP3    H141647   4.623   0.179   2.848 -0.8664  0.2502 -0.3295
 6744TIP3    H241648   4.710   0.060   2.811 -1.3942 -0.3844  0.4296
 6745TIP3   OH241649   1.294   3.967   5.725  0.4959  0.1349  0.0657
 6745TIP3    H141650   1.357   4.036   5.706  0.6778  0.0468  0.3418
 6745TIP3    H241651   1.239   4.003   5.794 -1.1216  1.0413 -1.5991
 6746TIP3   OH241652   1.887   5.670   2.780  0.0993  0.3179 -0.0055
 6746TIP3    H141653   1.909   5.617   2.704  0.4300 -0.7981  0.8564
 6746TIP3    H241654   1.971   5.704   2.812  0.5024 -2.2523  2.0363
 6747TIP3   OH241655   4.108   6.493  13.030 -0.2152 -0.5033 -0.0595
 6747TIP3    H141656   4.040   6.524  12.970 -1.4326  0.9043  1.9101
 6747TIP3    H241657   4.161   6.432  12.978 -0.8472  1.0433 -2.6747
 6748TIP3   OH241658   1.150   4.574   5.968  0.4919  0.3065  0.1351
 6748TIP3    H141659   1.227   4.529   6.003  0.6808  1.7885  1.8260
 6748TIP3    H241660   1.167   4.584   5.875  1.6952 -0.6292  0.2357
 6749TIP3   OH241661   6.175   3.012   6.147 -0.2393 -0.1653  0.5556
 6749TIP3    H141662   6.264   3.027   6.177 -0.2012 -0.0663  0.3936
 6749TIP3    H241663   6.122   3.075   6.196 -0.2808 -0.5166  0.9708
 6750TIP3   OH241664   5.249   1.016   2.490 -0.2870 -0.2023  0.2301
 6750TIP3    H141665   5.197   1.096   2.489 -0.0670 -0.0072 -2.1739
 6750TIP3    H241666   5.186   0.946   2.479 -0.2511 -0.1330 -0.4517
 6751TIP3   OH241667   2.058   5.319   5.291 -0.1267 -0.5931  0.3377
 6751TIP3    H141668   2.128   5.385   5.291 -0.6290 -0.0468 -0.5490
 6751TIP3    H241669   2.073   5.270   5.210 -1.0377 -0.1712 -0.0984
 6752TIP3   OH241670   2.442   0.518   4.399 -0.0648  0.5730 -0.2664
 6752TIP3    H141671   2.532   0.550   4.399  0.2224 -0.1934 -0.5739
 6752TIP3    H241672   2.447   0.431   4.440 -0.0355 -1.0193 -3.3291
 6753TIP3   OH241673   3.751   3.069  13.682  0.1794 -0.7671  0.0276
 6753TIP3    H141674   3.744   3.143  13.742 -0.9839 -0.7191 -0.1268
 6753TIP3    H241675   3.817   3.095  13.617 -0.9855  0.6162 -0.6622
 6754TIP3   OH241676   3.986   3.053  13.424 -0.2889  0.0756 -0.2300
 6754TIP3    H141677   3.965   3.127  13.368  1.0928 -0.2104 -1.1648
 6754TIP3    H241678   4.065   3.015  13.386  0.6882 -0.1469  1.8794
 6755TIP3   OH241679   0.403   1.006  15.977  0.6923  0.1756 -0.7516
 6755TIP3    H141680   0.390   0.961  16.060 -3.7983 -0.2535 -1.4212
 6755TIP3    H241681   0.460   0.948  15.926 -0.0750 -1.7679  0.5178
 6756TIP3   OH241682   4.259   0.045  10.743  0.4134 -0.9987  0.1244
 6756TIP3    H141683   4.286  -0.037  10.784  0.3039 -1.9037 -1.5129
 6756TIP3    H241684   4.316   0.053  10.667  1.1609  1.0487  0.8449
 6757TIP3   OH241685   3.325   5.341  15.826 -0.2238 -0.3486  0.3414
 6757TIP3    H141686   3.270   5.312  15.753 -1.1993  1.3312  0.3479
 6757TIP3    H241687   3.316   5.437  15.826 -1.7849 -0.3631  3.7999
 6758TIP3   OH241688   4.296   0.120  12.606 -0.2028 -0.2782 -0.6822
 6758TIP3    H141689   4.226   0.167  12.652  0.6143 -1.7843  2.3561
 6758TIP3    H241690   4.349   0.188  12.565  0.0837  1.4433  2.2923
 6759TIP3   OH241691   5.106   0.990   0.121 -0.7288  0.4496 -0.4817
 6759TIP3    H141692   5.048   1.036   0.182 -0.2408  0.7922 -0.2668
 6759TIP3    H241693   5.119   1.053   0.050 -2.2175 -0.3670 -1.5390
 6760TIP3   OH241694   6.116   2.183  10.453  0.2041  0.3491 -0.2413
 6760TIP3    H141695   6.163   2.215  10.530 -1.0814  0.2153  0.6307
 6760TIP3    H241696   6.151   2.095  10.438 -0.2095 -0.0108  0.7981
 6761TIP3   OH241697   1.903   0.177   4.295  0.3676 -0.0861  0.0111
 6761TIP3    H141698   1.976   0.239   4.299  0.7048 -0.5146  2.5904
 6761TIP3    H241699   1.944   0.091   4.304 -0.3105 -0.5081 -0.7629
 6762TIP3   OH241700   6.066   5.644   2.663 -0.1732  0.4028  0.0769
 6762TIP3    H141701   6.007   5.617   2.593  0.3463  0.4362 -0.3817
 6762TIP3    H241702   6.009   5.684   2.729 -0.6359  0.6081 -0.4397
 6763TIP3   OH241703   2.721   4.021  15.065 -0.0395 -0.2978  0.2943
 6763TIP3    H141704   2.674   4.090  15.112  0.1087  0.0499 -0.0589
 6763TIP3    H241705   2.674   4.012  14.982  0.9180  0.5504 -0.3654
 6764TIP3   OH241706   2.035   6.683  15.919 -0.1640 -0.1407  0.0737
 6764TIP3    H141707   1.949   6.707  15.885 -0.2789 -0.7867 -0.0988
 6764TIP3    H241708   2.054   6.598  15.879  1.3144  0.7543 -1.2185
 6765TIP3   OH241709   4.573   3.485   3.206 -0.1911  0.1718  0.2429
 6765TIP3    H141710   4.597   3.560   3.260 -0.8706 -0.0496  0.8731
 6765TIP3    H241711   4.643   3.478   3.142  0.0893  1.0932  0.4337
 6766TIP3   OH241712   1.619   4.488   3.402  0.4918  0.7384  0.0457
 6766TIP3    H141713   1.667   4.563   3.364 -1.7492  2.3881  0.2780
 6766TIP3    H241714   1.568   4.527   3.473 -0.0190 -1.2372  0.8063
 6767TIP3   OH241715   4.874   4.469  16.282  0.4815  0.1048  0.0311
 6767TIP3    H141716   4.832   4.553  16.300 -1.8017 -1.1033  0.6811
 6767TIP3    H241717   4.841   4.443  16.196  1.6233  0.1134 -0.4265
 6768TIP3   OH241718   5.096   4.870  16.923  0.4175  0.0363 -0.5701
 6768TIP3    H141719   5.031   4.812  16.960 -1.1668  1.0295 -1.6673
 6768TIP3    H241720   5.166   4.812  16.891  0.7119 -0.9633  1.7231
 6769TIP3   OH241721   4.961   5.649  15.800  0.3566  0.7815 -0.6630
 6769TIP3    H141722   4.909   5.665  15.879  0.6878 -0.8171 -0.0812
 6769TIP3    H241723   4.898   5.657  15.728  0.1152  2.5947 -0.3082
 6770TIP3   OH241724   6.565   3.540  16.376  0.0004  0.0584 -0.3914
 6770TIP3    H141725   6.582   3.590  16.296  1.1292 -1.2442 -0.9955
 6770TIP3    H241726   6.476   3.506  16.364  0.6239 -1.2126 -1.7292
 6771TIP3   OH241727   5.765   2.708   5.972  0.1357 -0.4798  0.3025
 6771TIP3    H141728   5.850   2.744   5.950 -0.4106  0.5101 -0.2655
 6771TIP3    H241729   5.739   2.755   6.052 -0.0601 -0.4685  0.2326
 6772TIP3   OH241730   3.481   5.714   3.202  0.2989  0.0678 -0.3796
 6772TIP3    H141731   3.551   5.690   3.262 -1.7755 -3.5568  0.9038
 6772TIP3    H241732   3.512   5.684   3.116  0.1224 -2.3424  0.3116
 6773TIP3   OH241733   0.144   5.244  13.655  0.2774  0.5736 -0.3083
 6773TIP3    H141734   0.137   5.270  13.747  0.2263  0.4052 -0.2634
 6773TIP3    H241735   0.214   5.178  13.654  0.7908  1.1137 -0.5081
 6774TIP3   OH241736   4.250   2.883  17.081  0.1685  0.6953  0.1728
 6774TIP3    H141737   4.321   2.830  17.044 -1.3288 -0.7489 -0.7665
 6774TIP3    H241738   4.274   2.894  17.173  0.9154 -0.9872  0.2127
 6775TIP3   OH241739   3.067   2.774   6.515  0.1937 -0.4386  0.4289
 6775TIP3    H141740   2.975   2.779   6.543  0.7945 -2.8788  3.4715
 6775TIP3    H241741   3.070   2.699   6.456  0.2148 -0.2276  0.1597
 6776TIP3   OH241742   3.918   0.811   0.845  0.0838  0.4398 -0.1014
 6776TIP3    H141743   3.995   0.755   0.856 -0.8597 -0.6093  1.6697
 6776TIP3    H241744   3.875   0.810   0.930 -1.5398  1.5474 -0.8452
 6777TIP3   OH241745   0.237   4.043   0.309  0.1030 -0.5863  0.3345
 6777TIP3    H141746   0.331   4.029   0.319  0.2364 -2.3927 -2.3411
 6777TIP3    H241747   0.226   4.073   0.219 -1.8958 -0.4075  0.5857
 6778TIP3   OH241748   1.137   5.521   1.622 -0.3469  0.0008 -0.1737
 6778TIP3    H141749   1.137   5.438   1.574 -0.3093 -1.0238  1.4985
 6778TIP3    H241750   1.088   5.502   1.702 -2.2794  2.2223 -0.7255
 6779TIP3   OH241751   2.865   0.647  13.977  0.4585 -0.0606 -0.3624
 6779TIP3    H141752   2.818   0.592  13.914  1.3064 -0.8870 -0.2927
 6779TIP3    H241753   2.952   0.609  13.981  1.7456  2.4584 -1.8052
 6780TIP3   OH241754   5.366   5.878  14.019  0.2831 -0.4300 -0.0104
 6780TIP3    H141755   5.380   5.806  13.956  1.4970 -0.9071  0.7501
 6780TIP3    H241756   5.453   5.916  14.030  0.0912 -0.3439  1.3538
 6781TIP3   OH241757   0.036   6.446  11.395  0.7067  0.1088  0.7972
 6781TIP3    H141758  -0.003   6.468  11.480 -0.9627  1.7342 -0.3147
 6781TIP3    H241759  -0.038   6.421  11.340  1.8083 -1.3087 -0.0999
 6782TIP3   OH241760   1.415   4.172   5.563  0.2752 -0.3557  0.9355
 6782TIP3    H141761   1.392   4.265   5.559  0.8073 -0.1932  1.5580
 6782TIP3    H241762   1.339   4.127   5.527  1.1340  0.4650 -2.2989
 6783TIP3   OH241763   1.122   5.246   1.561  0.0841 -0.3427 -0.0897
 6783TIP3    H141764   1.058   5.187   1.603 -0.9579 -0.1175 -1.2834
 6783TIP3    H241765   1.207   5.213   1.590 -0.5415 -1.2303  0.8250
 6784TIP3   OH241766   6.690   3.596   5.734 -0.3307 -0.7397  0.2441
 6784TIP3    H141767   6.743   3.530   5.687  2.3906  0.0713  1.9339
 6784TIP3    H241768   6.601   3.562   5.729  0.6923 -3.7315 -0.3704
 6785TIP3   OH241769   3.445   3.217   5.582 -0.0227  0.5145 -0.3588
 6785TIP3    H141770   3.383   3.176   5.522  0.0724  1.2442 -0.9685
 6785TIP3    H241771   3.494   3.280   5.528  0.4850  0.7460  0.3474
 6786TIP3   OH241772   3.293   0.300   5.345  1.0363  0.4547  0.1604
 6786TIP3    H141773   3.386   0.290   5.325  0.8195  0.4775 -0.9081
 6786TIP3    H241774   3.277   0.238   5.416  1.5722 -0.5677 -0.5819
 6787TIP3   OH241775   0.422   3.920   0.759 -0.2469  0.5101 -0.8355
 6787TIP3    H141776   0.490   3.904   0.694 -0.1862 -0.0626 -0.6366
 6787TIP3    H241777   0.421   4.015   0.771  0.4689  0.5235 -0.8876
 6788TIP3   OH241778   3.622   5.572  11.239  0.1602  0.4727  0.4181
 6788TIP3    H141779   3.560   5.639  11.268  0.5435  0.8428  0.4080
 6788TIP3    H241780   3.662   5.610  11.160  1.9454  1.2192  1.5881
 6789TIP3   OH241781   3.849   1.143  12.044 -0.0704 -0.6171 -0.3260
 6789TIP3    H141782   3.945   1.136  12.046  0.0988  1.1950  2.4951
 6789TIP3    H241783   3.820   1.089  12.117 -1.4514 -2.7177 -2.2929
 6790TIP3   OH241784   5.102   0.326  11.046  0.4082 -0.2509 -0.0743
 6790TIP3    H141785   5.061   0.376  10.975 -0.7040  0.3054  0.9193
 6790TIP3    H241786   5.141   0.392  11.103  0.3642 -0.6209  0.3897
 6791TIP3   OH241787   1.137   2.351  16.134  0.1407 -0.1195  0.4762
 6791TIP3    H141788   1.071   2.346  16.203 -0.2605 -1.0313  0.0490
 6791TIP3    H241789   1.219   2.329  16.178  0.0630  0.3496  0.8707
 6792TIP3   OH241790   6.543   2.559   4.859 -0.7389 -0.1268 -0.2744
 6792TIP3    H141791   6.501   2.551   4.773  0.8808  1.2521 -1.2466
 6792TIP3    H241792   6.589   2.642   4.856  0.7186 -0.8175  1.3343
 6793TIP3   OH241793   1.614   3.238   4.265 -0.3026 -0.0070  0.4024
 6793TIP3    H141794   1.530   3.277   4.290 -0.7254 -0.5491 -0.1226
 6793TIP3    H241795   1.619   3.251   4.171  0.0808 -0.2057  0.3931
 6794TIP3   OH241796   3.169   4.810  12.411 -0.0671 -0.2517 -0.2569
 6794TIP3    H141797   3.078   4.828  12.434  0.4081  0.5501  1.0990
 6794TIP3    H241798   3.220   4.858  12.476  1.3513  0.5438 -1.8893
 6795TIP3   OH241799   3.787   2.491  15.185 -0.6105 -0.2205  0.3609
 6795TIP3    H141800   3.769   2.542  15.107 -0.1044 -1.9883 -0.9700
 6795TIP3    H241801   3.868   2.443  15.165 -1.1637 -1.6966  1.4310
 6796TIP3   OH241802   3.733   3.289  16.361 -0.3337 -0.2568  0.0636
 6796TIP3    H141803   3.649   3.266  16.401  0.3629 -0.1969  1.6700
 6796TIP3    H241804   3.754   3.216  16.305 -1.4725 -0.2571 -0.3933
 6797TIP3   OH241805   3.031   2.424   0.923 -0.4734 -0.2793  0.6461
 6797TIP3    H141806   3.125   2.412   0.908 -0.2189  0.2157  1.7535
 6797TIP3    H241807   2.990   2.397   0.840  0.8855  3.6512 -1.5550
 6798TIP3   OH241808   5.590   3.994  12.619  0.1233 -0.3931 -0.0253
 6798TIP3    H141809   5.523   3.986  12.551  0.2846  1.5698 -0.4940
 6798TIP3    H241810   5.562   4.070  12.670  0.1647 -1.6584  1.9601
 6799TIP3   OH241811   4.482   5.685   2.298  0.2415  0.0274 -0.1074
 6799TIP3    H141812   4.411   5.623   2.312  0.9657 -0.6741  0.5479
 6799TIP3    H241813   4.506   5.715   2.385 -0.2372  1.4160 -0.4277
 6800TIP3   OH241814   4.153   4.036   1.318  0.3466 -0.1802 -0.0323
 6800TIP3    H141815   4.226   3.975   1.329  0.6612  0.3376  0.8702
 6800TIP3    H241816   4.094   3.992   1.256  0.8498 -1.1321  0.1431
 6801TIP3   OH241817   2.667   5.498   4.529  0.2696 -0.0415 -0.0714
 6801TIP3    H141818   2.572   5.491   4.522  0.4686 -2.0889 -1.6051
 6801TIP3    H241819   2.686   5.469   4.618 -0.4046 -2.0989 -0.5508
 6802TIP3   OH241820   5.843   5.661  11.295 -0.3858  0.0371  0.0660
 6802TIP3    H141821   5.874   5.578  11.332 -1.7400 -0.4679  0.1129
 6802TIP3    H241822   5.903   5.678  11.222 -0.0177 -0.9213  0.1271
 6803TIP3   OH241823   6.727   5.406   2.668  0.3519  0.1993  0.8097
 6803TIP3    H141824   6.726   5.314   2.695  2.4933 -0.4388 -0.9898
 6803TIP3    H241825   6.745   5.403   2.574 -1.4860  2.4437  0.3059
 6804TIP3   OH241826   5.289   4.418  14.573  0.2796 -0.3961  0.6006
 6804TIP3    H141827   5.215   4.387  14.626 -0.0661  0.5161  0.6828
 6804TIP3    H241828   5.336   4.478  14.630  0.4067 -0.0728  0.1614
 6805TIP3   OH241829   5.132   3.470   0.208 -0.2349  0.0455 -0.2787
 6805TIP3    H141830   5.101   3.550   0.252 -0.6504 -0.4139  0.2845
 6805TIP3    H241831   5.075   3.401   0.242  0.7109 -0.6436 -0.0497
 6806TIP3   OH241832   5.147   6.645   3.827 -0.6517  0.0518  0.6797
 6806TIP3    H141833   5.188   6.651   3.913  0.0770  2.2183  0.2699
 6806TIP3    H241834   5.054   6.634   3.845 -0.3873 -0.5754  1.7201
 6807TIP3   OH241835   6.348   3.186  16.132  0.8207 -0.1386 -0.6725
 6807TIP3    H141836   6.388   3.274  16.135  0.8361 -0.1023 -1.5816
 6807TIP3    H241837   6.327   3.173  16.040 -2.2562  0.2667 -0.1089
 6808TIP3   OH241838   4.336   3.293   6.055 -0.4356 -0.3828  0.5952
 6808TIP3    H141839   4.268   3.252   6.108  0.7627 -1.5013  1.3195
 6808TIP3    H241840   4.417   3.279   6.104  0.8181 -1.8420 -1.6789
 6809TIP3   OH241841   3.107   1.608   0.963 -0.2475  0.8505  0.2041
 6809TIP3    H141842   3.174   1.674   0.982  1.3000 -1.3041  2.7832
 6809TIP3    H241843   3.132   1.572   0.878  0.9589  1.1488  0.4157
 6810TIP3   OH241844   0.547   1.406  14.304  0.4401 -0.2788  0.5396
 6810TIP3    H141845   0.610   1.456  14.356  1.9428 -1.3026 -0.1939
 6810TIP3    H241846   0.493   1.361  14.369  0.3140  0.7797  1.1953
 6811TIP3   OH241847   1.163   4.930   3.194 -0.1113  0.3102  0.2370
 6811TIP3    H141848   1.188   4.887   3.277  1.5583  1.6018  0.4609
 6811TIP3    H241849   1.095   4.992   3.219  0.0422  0.3513  0.5698
 6812TIP3   OH241850   0.224   2.465  12.152 -0.1496 -0.3980  0.4972
 6812TIP3    H141851   0.180   2.529  12.097  1.2038  0.4164  0.2990
 6812TIP3    H241852   0.261   2.516  12.224  1.2061 -0.8770  0.1816
 6813TIP3   OH241853   0.570   4.214   1.363  0.0325 -0.4171  0.2682
 6813TIP3    H141854   0.518   4.288   1.396 -0.0797  0.8298 -2.4542
 6813TIP3    H241855   0.535   4.138   1.410 -0.6627  1.0561  2.2877
 6814TIP3   OH241856   3.873   2.029  11.771  0.0741 -0.0600 -0.4845
 6814TIP3    H141857   3.931   2.049  11.844 -0.4206  0.0878 -0.1217
 6814TIP3    H241858   3.830   1.947  11.797  2.2861 -1.8554 -2.0726
 6815TIP3   OH241859   2.944   2.008  12.620 -0.4734 -0.6619 -0.2469
 6815TIP3    H141860   2.927   2.080  12.558 -0.4498  0.2872  0.8092
 6815TIP3    H241861   3.038   1.995  12.616 -0.2386  0.5250  0.7521
 6816TIP3   OH241862   3.468   1.032   2.199  0.0364  0.7545 -0.2551
 6816TIP3    H141863   3.526   0.958   2.217 -1.2354 -0.0408  0.8178
 6816TIP3    H241864   3.522   1.109   2.214  0.6736  0.0548  1.3706
 6817TIP3   OH241865   2.714   2.002  14.038  0.0062 -0.0533 -0.1337
 6817TIP3    H141866   2.806   1.983  14.020  0.1367  0.9001 -0.5312
 6817TIP3    H241867   2.700   2.089  14.001 -0.2921  1.0996  2.4452
 6818TIP3   OH241868   3.717   4.795   3.908 -0.3435 -0.0271  0.1079
 6818TIP3    H141869   3.708   4.890   3.913 -2.3328 -0.1613 -0.2039
 6818TIP3    H241870   3.666   4.761   3.982 -2.2171 -0.8957 -1.4818
 6819TIP3   OH241871   1.283   1.575  12.554 -0.0428 -0.0592 -0.5480
 6819TIP3    H141872   1.335   1.508  12.599 -0.7512 -0.0030  0.3687
 6819TIP3    H241873   1.228   1.526  12.493 -1.0102 -0.3951  0.5596
 6820TIP3   OH241874   1.422   0.373   3.870  0.6676  0.8059 -0.4945
 6820TIP3    H141875   1.443   0.380   3.963 -0.9877 -0.1393 -0.0083
 6820TIP3    H241876   1.488   0.314   3.835  1.7124  1.6977 -0.0874
 6821TIP3   OH241877   4.659   0.657  11.724  0.2652 -0.4738  0.0217
 6821TIP3    H141878   4.656   0.680  11.631 -0.1809 -0.5228  0.0223
 6821TIP3    H241879   4.750   0.671  11.749 -0.0061  1.3865  0.0499
 6822TIP3   OH241880   1.681   0.672  11.204 -0.3475 -0.2556  0.0997
 6822TIP3    H141881   1.615   0.649  11.138 -0.0436  0.4846 -0.4859
 6822TIP3    H241882   1.712   0.759  11.177 -0.0917 -0.0101  1.1275
 6823TIP3   OH241883   4.417   6.653   0.730  0.3130  0.3811 -0.5402
 6823TIP3    H141884   4.479   6.596   0.686 -0.8075 -1.8579  0.5854
 6823TIP3    H241885   4.391   6.717   0.664  1.0976 -0.8665 -2.1110
 6824TIP3   OH241886   2.195   4.197  16.465  0.2274 -0.2698  0.2850
 6824TIP3    H141887   2.283   4.232  16.452  0.6675 -0.9519  1.2952
 6824TIP3    H241888   2.190   4.179  16.559 -1.3593  0.7058  0.4234
 6825TIP3   OH241889   2.910   2.400   0.666  0.1776  0.8227 -0.0360
 6825TIP3    H141890   2.967   2.435   0.598  1.4883 -0.9159  0.0878
 6825TIP3    H241891   2.837   2.360   0.619  0.2519  1.0185 -0.3191
 6826TIP3   OH241892   4.151   3.830   2.074  0.1344  0.2116  0.0716
 6826TIP3    H141893   4.242   3.830   2.104  0.2334 -0.6026 -0.2070
 6826TIP3    H241894   4.146   3.903   2.012  0.5168  0.4494  0.3170
 6827TIP3   OH241895   0.602   4.538  10.986  0.2093  0.3420  0.6790
 6827TIP3    H141896   0.568   4.550  11.074  1.1199  1.6043  0.8913
 6827TIP3    H241897   0.642   4.622  10.964 -0.7987  0.3634 -1.3061
 6828TIP3   OH241898   5.469   4.601  11.798 -0.2452  0.5370 -0.2233
 6828TIP3    H141899   5.563   4.588  11.789 -0.3148 -1.4919  1.3519
 6828TIP3    H241900   5.430   4.526  11.755 -0.9829 -0.4415  1.9948
 6829TIP3   OH241901   1.822   0.263  16.808 -0.4420 -0.0958  0.4697
 6829TIP3    H141902   1.766   0.297  16.878 -0.2879  1.0130  0.0752
 6829TIP3    H241903   1.802   0.318  16.732  1.4592  0.6113  0.4355
 6830TIP3   OH241904   5.973   2.643   1.155  0.1115 -0.2398 -0.1173
 6830TIP3    H141905   5.993   2.646   1.248 -1.6569  3.6974  0.3463
 6830TIP3    H241906   6.017   2.565   1.123  2.7118 -0.5176  3.5551
 6831TIP3   OH241907   3.948   4.408   0.536 -0.6194  0.8960 -0.6173
 6831TIP3    H141908   3.961   4.480   0.597  0.3235  0.0713  0.1961
 6831TIP3    H241909   3.861   4.373   0.558 -0.7055  1.2321 -0.4275
 6832TIP3   OH241910   5.720   0.072   2.416 -0.4738 -0.1652  0.1494
 6832TIP3    H141911   5.790   0.133   2.392  0.6884 -1.3084  0.4996
 6832TIP3    H241912   5.765  -0.012   2.428 -2.0811 -1.2290 -0.8380
 6833TIP3   OH241913   4.892   0.611  11.853  0.0785 -0.2790 -0.2585
 6833TIP3    H141914   4.980   0.575  11.869  0.7273  0.7698 -1.2697
 6833TIP3    H241915   4.841   0.584  11.929  1.3548 -0.6686  0.5016
 6834TIP3   OH241916   3.185   0.536   4.082  0.1313  0.6395 -0.3178
 6834TIP3    H141917   3.238   0.474   4.033  0.9221  0.3465  0.8591
 6834TIP3    H241918   3.168   0.608   4.021  1.0645  0.2915 -1.0042
 6835TIP3   OH241919   5.265   4.328  15.002 -0.0137  0.3952  0.5048
 6835TIP3    H141920   5.329   4.390  15.036  0.9246 -0.1987 -0.1219
 6835TIP3    H241921   5.267   4.255  15.065  3.1660 -1.6268 -1.5695
 6836TIP3   OH241922   6.686   1.963   3.293  0.1274 -0.0728 -0.3632
 6836TIP3    H141923   6.622   1.999   3.231 -0.5666 -0.5322  0.0720
 6836TIP3    H241924   6.671   2.013   3.374 -0.1623 -0.6472 -0.0540
 6837TIP3   OH241925   4.478   2.605  15.114  0.6801 -0.0077 -0.2323
 6837TIP3    H141926   4.409   2.576  15.055 -1.4944 -2.8496  3.2778
 6837TIP3    H241927   4.445   2.686  15.152 -0.1684 -0.6983  0.5214
 6838TIP3   OH241928   4.076   0.570   0.736 -0.0067  0.2715 -0.0529
 6838TIP3    H141929   4.036   0.489   0.767 -0.5077 -0.3424 -2.1556
 6838TIP3    H241930   4.024   0.595   0.660  2.8962 -0.0150 -2.3179
 6839TIP3   OH241931   2.638   3.272  13.546 -0.4273  0.5052  0.0955
 6839TIP3    H141932   2.597   3.309  13.467 -0.1059  0.5000 -0.0759
 6839TIP3    H241933   2.607   3.182  13.549  0.3306  0.2018 -0.5821
 6840TIP3   OH241934   4.338   2.365  15.031 -0.4482  0.2271  0.0516
 6840TIP3    H141935   4.313   2.416  15.108  0.6574  0.5700  0.2004
 6840TIP3    H241936   4.327   2.425  14.957 -1.3393 -0.0484 -0.0609
 6841TIP3   OH241937   4.352   0.390   0.959 -0.6224 -0.3006  0.1559
 6841TIP3    H141938   4.395   0.324   0.905 -2.0210 -0.6767 -0.5482
 6841TIP3    H241939   4.320   0.341   1.035 -0.7686 -0.2382  0.1349
 6842TIP3   OH241940   4.067   2.973   2.512 -0.2018  0.0571  0.1089
 6842TIP3    H141941   4.018   2.895   2.539 -2.3064  0.9650 -0.7925
 6842TIP3    H241942   4.008   3.018   2.450  1.3788  1.8005 -0.2355
 6843TIP3   OH241943   0.046   5.551  15.781  0.0601  0.4606 -0.3073
 6843TIP3    H141944   0.032   5.459  15.758 -0.2791  0.4833 -0.2016
 6843TIP3    H241945   0.044   5.597  15.697  0.3426  0.3575 -0.3705
 6844TIP3   OH241946   2.547   4.164  12.633 -0.0318 -0.4861 -0.3688
 6844TIP3    H141947   2.503   4.247  12.652  1.6198  0.4303 -0.3816
 6844TIP3    H241948   2.518   4.105  12.702  0.3888  0.7273  0.8915
 6845TIP3   OH241949   0.663   3.973   2.653  0.1431 -0.0396 -0.0409
 6845TIP3    H141950   0.625   4.006   2.571  0.5870 -1.6964 -0.9693
 6845TIP3    H241951   0.590   3.975   2.715  0.0089  2.0560 -0.1767
 6846TIP3   OH241952   4.967   4.754  15.127  0.0228 -0.4087  0.2174
 6846TIP3    H141953   4.991   4.662  15.136 -1.4411 -0.7086  1.4469
 6846TIP3    H241954   4.916   4.757  15.046 -1.7769 -1.1610  1.2443
 6847TIP3   OH241955   0.217   2.647   0.341  0.0761  0.8378  0.6703
 6847TIP3    H141956   0.214   2.728   0.393  0.6839  1.5837 -0.3976
 6847TIP3    H241957   0.201   2.676   0.251  0.0063 -0.2794  0.3092
 6848TIP3   OH241958   0.698   6.601  11.928  0.0769  0.0107  0.0542
 6848TIP3    H141959   0.737   6.639  12.007  0.8270  2.3730 -1.3343
 6848TIP3    H241960   0.770   6.601  11.864 -0.8183 -0.6965 -0.9863
 6849TIP3   OH241961   0.296   6.171  11.296  0.0743 -0.2482  0.0671
 6849TIP3    H141962   0.291   6.090  11.347 -1.4495 -0.7461 -0.7828
 6849TIP3    H241963   0.321   6.142  11.208  0.6372  0.3565  0.0174
 6850TIP3   OH241964   6.799   5.778   5.432 -0.3803 -0.1870  0.3151
 6850TIP3    H141965   6.868   5.783   5.498 -0.3694 -1.2374  0.3928
 6850TIP3    H241966   6.723   5.743   5.479 -0.6845  0.0578  0.0104
 6851TIP3   OH241967   5.000   4.354   1.489  0.0081  0.3103 -0.1261
 6851TIP3    H141968   4.983   4.295   1.416  1.5862  0.3649 -0.5674
 6851TIP3    H241969   5.041   4.299   1.556 -0.9969  0.3588  0.5502
 6852TIP3   OH241970   2.237   1.825  13.094 -0.1149 -0.0394  0.4477
 6852TIP3    H141971   2.233   1.758  13.162 -3.4494 -0.2051  0.2126
 6852TIP3    H241972   2.227   1.908  13.142 -0.4940 -0.0167  0.3265
 6853TIP3   OH241973   2.301   3.255  13.533  0.7959 -0.2877 -0.6074
 6853TIP3    H141974   2.272   3.288  13.448  3.2263  0.6658 -1.1531
 6853TIP3    H241975   2.292   3.160  13.526  0.1278 -0.1670 -1.5891
 6854TIP3   OH241976   4.496   6.268   4.336 -0.0551  0.0728 -0.3358
 6854TIP3    H141977   4.445   6.248   4.258  0.6993 -0.6535 -0.6556
 6854TIP3    H241978   4.430   6.291   4.402 -0.7782 -0.5063 -0.8339
 6855TIP3   OH241979   5.162   4.446  16.294 -0.1016 -0.0677  0.1167
 6855TIP3    H141980   5.069   4.445  16.315 -0.3820 -1.7177 -1.0280
 6855TIP3    H241981   5.174   4.373  16.233  1.9035  0.2500  0.0593
 6856TIP3   OH241982   5.375   3.421  11.856  0.2768 -0.1988  0.0892
 6856TIP3    H141983   5.349   3.393  11.944  1.7014 -0.4353  0.4587
 6856TIP3    H241984   5.314   3.376  11.798 -0.2057 -0.6319  0.9071
 6857TIP3   OH241985   6.399   2.268  10.174 -0.1791 -0.1571  0.3716
 6857TIP3    H141986   6.423   2.338  10.234 -2.1575  1.2484 -0.3770
 6857TIP3    H241987   6.413   2.188  10.225  1.4411  0.7692  1.4952
 6858TIP3   OH241988   4.077   2.857  11.166 -0.5434 -0.3502 -0.2233
 6858TIP3    H141989   4.022   2.934  11.184 -1.4349 -0.5524 -1.8765
 6858TIP3    H241990   4.046   2.825  11.081  2.3503 -0.3053 -1.4006
 6859TIP3   OH241991   5.105   3.780   3.687 -0.2115  0.0881  0.2467
 6859TIP3    H141992   5.145   3.809   3.605  0.3601  3.8803  1.6868
 6859TIP3    H241993   5.024   3.830   3.693  0.8019  1.5777  2.9149
 6860TIP3   OH241994   3.276   4.407  11.610  0.1437  0.0110 -0.1331
 6860TIP3    H141995   3.204   4.382  11.552  1.6001  0.1756 -2.1289
 6860TIP3    H241996   3.354   4.370  11.569  1.4083  1.2659  1.0116
 6861TIP3   OH241997   3.032   1.866  15.980  0.3898 -0.0472  0.4094
 6861TIP3    H141998   3.038   1.957  15.950 -0.7645  0.1483  0.7346
 6861TIP3    H241999   3.009   1.816  15.902 -0.9039  0.2213  0.6037
 6862TIP3   OH242000   4.553   1.500  16.274 -0.3928 -0.0467 -0.1855
 6862TIP3    H142001   4.641   1.462  16.265 -0.4397 -0.8775  2.1329
 6862TIP3    H242002   4.545   1.561  16.201  3.0703  1.8793  0.8045
 6863TIP3   OH242003   3.011   3.409  11.566 -0.0443  0.0973 -0.5215
 6863TIP3    H142004   3.087   3.351  11.560  0.3954  0.6371 -0.3499
 6863TIP3    H242005   2.992   3.433  11.475 -0.7056 -0.8960 -0.6629
 6864TIP3   OH242006   4.788   1.408  15.859 -0.0691 -0.3581  0.2066
 6864TIP3    H142007   4.701   1.437  15.832 -1.3620 -1.4716  2.7744
 6864TIP3    H242008   4.833   1.488  15.886 -0.9964  0.0571  0.5785
 6865TIP3   OH242009   5.784   0.415  14.421 -0.9113  0.7339  0.4997
 6865TIP3    H142010   5.842   0.458  14.359  0.9734 -0.5344  1.2749
 6865TIP3    H242011   5.803   0.455  14.506  1.1256 -1.6469  1.3008
 6866TIP3   OH242012   6.113   3.566   3.147 -0.4015  1.2327  0.8141
 6866TIP3    H142013   6.141   3.516   3.224 -2.8057 -0.5045  0.6735
 6866TIP3    H242014   6.115   3.504   3.075 -2.3179  1.5975  0.3846
 6867TIP3   OH242015   2.659   2.871   3.877  0.0467  0.0624  0.2071
 6867TIP3    H142016   2.735   2.866   3.819  1.1139 -0.7423  1.5926
 6867TIP3    H242017   2.602   2.801   3.847 -1.0453  1.7718 -1.9637
 6868TIP3   OH242018   1.942   5.856  11.337  0.8787 -0.2908 -0.5529
 6868TIP3    H142019   1.996   5.802  11.279  1.0863 -1.3249  0.5529
 6868TIP3    H242020   1.855   5.817  11.332  1.0559 -0.8451  0.3411
 6869TIP3   OH242021   3.064   2.570  13.189 -0.1323  0.1452  0.7193
 6869TIP3    H142022   3.095   2.501  13.131  1.2232  1.4135 -0.1420
 6869TIP3    H242023   3.066   2.530  13.276 -0.9991 -1.3916  0.0722
 6870TIP3   OH242024   2.592   3.446  12.081 -0.7412  0.2169  0.4864
 6870TIP3    H142025   2.656   3.516  12.094  2.1069 -1.4693 -2.9278
 6870TIP3    H242026   2.516   3.491  12.044  0.8351  1.6509 -1.2401
 6871TIP3   OH242027   5.750   4.920  11.315  0.1957 -0.5555 -0.0700
 6871TIP3    H142028   5.723   5.011  11.302  2.3395  0.1634  0.2055
 6871TIP3    H242029   5.802   4.899  11.238 -3.4745 -2.9774 -2.2139
 6872TIP3   OH242030   4.474   0.293   4.581 -0.6861  0.0259 -0.3807
 6872TIP3    H142031   4.536   0.259   4.646 -0.0231 -0.3458 -1.1887
 6872TIP3    H242032   4.493   0.387   4.576 -0.5373  0.0030 -0.2501
 6873TIP3   OH242033   0.592   3.734   2.835 -0.0623 -0.6737  0.4787
 6873TIP3    H142034   0.564   3.794   2.904 -0.4020 -2.4165  1.9536
 6873TIP3    H242035   0.517   3.728   2.775  0.0738  0.5251  0.1749
 6874TIP3   OH242036   6.150   1.467   1.276  0.7329 -0.2304  0.0634
 6874TIP3    H142037   6.184   1.403   1.338 -1.6188  0.6295  2.4485
 6874TIP3    H242038   6.179   1.551   1.310 -0.6047  0.2610  0.0512
 6875TIP3   OH242039   5.491   4.327   3.151  0.1993 -0.1492 -0.1056
 6875TIP3    H142040   5.462   4.339   3.060  1.9084 -1.8202 -0.9385
 6875TIP3    H242041   5.559   4.393   3.164  0.1979 -0.1371 -0.1588
 6876TIP3   OH242042   5.201   1.063   1.588  0.2798  0.0254 -0.1696
 6876TIP3    H142043   5.257   1.109   1.525  1.9808 -0.5897  0.8248
 6876TIP3    H242044   5.229   0.972   1.583  0.1361 -0.1097  1.1242
 6877TIP3   OH242045   3.597   4.195   2.477  0.2871 -0.5510 -0.3017
 6877TIP3    H142046   3.536   4.245   2.532 -1.8228 -0.2168 -2.7463
 6877TIP3    H242047   3.627   4.258   2.412  4.4196 -0.3646  1.4809
 6878TIP3   OH242048   2.524   1.082  15.536 -0.1616  0.6275 -0.0707
 6878TIP3    H142049   2.501   1.066  15.444 -2.6258  2.2522  0.1784
 6878TIP3    H242050   2.613   1.118  15.532 -0.0673  0.3036 -1.7765
 6879TIP3   OH242051   2.845   3.342   4.666 -0.1051 -0.2354  0.2691
 6879TIP3    H142052   2.902   3.350   4.743  2.2407  0.6908 -1.4185
 6879TIP3    H242053   2.756   3.346   4.701  0.8550  1.3102  2.8301
 6880TIP3   OH242054   4.888   1.033   1.266 -0.9443  0.3943 -0.8562
 6880TIP3    H142055   4.820   1.083   1.221 -0.5484  1.3899 -0.3758
 6880TIP3    H242056   4.933   1.097   1.321 -0.8913 -0.6302  0.3446
 6881TIP3   OH242057   0.721   3.635  16.826  0.8802  0.7122  0.2139
 6881TIP3    H142058   0.708   3.541  16.835 -0.6783  0.7121 -1.5206
 6881TIP3    H242059   0.634   3.670  16.810  1.4987  2.4010  0.3001
 6882TIP3   OH242060   1.673   1.079   0.314 -0.2739  0.6408  0.7309
 6882TIP3    H142061   1.688   1.054   0.405 -1.8437 -0.9720  0.5918
 6882TIP3    H242062   1.651   0.998   0.270 -0.1097  1.4910 -0.9934
 6883TIP3   OH242063   6.765   0.151  10.258  0.4617 -0.0764  0.1801
 6883TIP3    H142064   6.820   0.133  10.334  0.1318  0.4795  0.5596
 6883TIP3    H242065   6.790   0.239  10.229  0.1431 -0.0305  0.0333
 6884TIP3   OH242066   0.095   4.795  12.920 -0.4972 -0.0499 -0.1049
 6884TIP3    H142067   0.154   4.780  12.994 -1.9243 -1.1056  0.8753
 6884TIP3    H242068   0.007   4.778  12.955 -1.4141  1.4625 -1.5118
 6885TIP3   OH242069   6.190   3.489  11.766  0.2367 -0.0001  0.2957
 6885TIP3    H142070   6.224   3.437  11.838 -1.1030 -1.5371 -0.1165
 6885TIP3    H242071   6.180   3.426  11.694 -0.1279  1.1223 -0.6707
 6886TIP3   OH242072   4.940   0.785   0.260 -0.5858  0.5858  0.0697
 6886TIP3    H142073   5.011   0.817   0.205  1.0553 -1.2849  0.9623
 6886TIP3    H242074   4.902   0.864   0.298  1.4941  1.6447  0.0870
 6887TIP3   OH242075   4.967   1.707   1.270 -0.4242 -0.4013  0.5384
 6887TIP3    H142076   5.049   1.748   1.243 -1.2899  0.6319 -0.6485
 6887TIP3    H242077   4.910   1.780   1.295 -1.8198 -0.8524 -1.1129
 6888TIP3   OH242078   2.024   0.994   0.532 -0.3279 -0.4473 -0.2013
 6888TIP3    H142079   1.996   1.068   0.478 -0.6573  0.2239  0.8749
 6888TIP3    H242080   1.946   0.937   0.535  0.0102 -1.0084 -1.2559
 6889TIP3   OH242081   1.056   3.666  15.477 -0.3535 -0.1747 -0.1968
 6889TIP3    H142082   0.980   3.724  15.490 -0.4194 -0.4882  0.9034
 6889TIP3    H242083   1.021   3.590  15.431 -1.0915 -1.0628  1.7090
 6890TIP3   OH242084   4.752   4.868   3.683  0.2416 -0.2187 -0.2052
 6890TIP3    H142085   4.833   4.865   3.734  0.1795  1.5392  0.0657
 6890TIP3    H242086   4.696   4.802   3.723  0.8777 -0.1548  0.8264
 6891TIP3   OH242087   3.026   0.159   5.154  0.2255  0.1565 -0.4398
 6891TIP3    H142088   3.019   0.140   5.248  0.9167 -0.1415 -0.4397
 6891TIP3    H242089   3.104   0.111   5.126 -0.0196  0.1845 -1.1852
 6892TIP3   OH242090   0.250   0.832  14.022 -1.1031 -0.1643  0.6649
 6892TIP3    H142091   0.298   0.909  13.990 -1.2639 -0.3616 -0.0674
 6892TIP3    H242092   0.278   0.823  14.113 -0.9019  0.6193  0.6911
 6893TIP3   OH242093   3.654   4.878   5.957  0.7538 -0.0249  0.6772
 6893TIP3    H142094   3.718   4.936   5.916  1.0715  1.0026  2.5256
 6893TIP3    H242095   3.642   4.914   6.045 -0.3681 -1.7619  1.2792
 6894TIP3   OH242096   0.066   5.167   2.684 -0.5386  0.1086 -0.5385
 6894TIP3    H142097   0.150   5.212   2.675 -1.0220  2.2137  3.3930
 6894TIP3    H242098   0.089   5.074   2.685  1.6595  0.6131 -0.2711
 6895TIP3   OH242099   0.958   4.376   5.889 -0.2736 -0.3987 -0.4024
 6895TIP3    H142100   0.913   4.431   5.825 -0.9298 -0.6765 -0.1895
 6895TIP3    H242101   1.025   4.432   5.926 -1.9699  0.8213  1.0072
 6896TIP3   OH242102   1.442   1.657  10.420 -0.2424 -0.2660  0.4547
 6896TIP3    H142103   1.351   1.650  10.448 -0.9589 -0.0283 -1.6877
 6896TIP3    H242104   1.460   1.751  10.416 -0.0686 -0.3035  0.3367
 6897TIP3   OH242105   2.050   3.054  14.874  0.1334 -0.7764 -0.4718
 6897TIP3    H142106   2.113   2.983  14.891  0.4763 -0.5934 -0.9552
 6897TIP3    H242107   2.080   3.125  14.931  0.1216 -0.8300 -0.3987
 6898TIP3   OH242108   3.121   1.779  14.291 -0.3601  0.4025 -0.2844
 6898TIP3    H142109   3.152   1.837  14.222 -0.9982  0.5804 -0.4323
 6898TIP3    H242110   3.075   1.837  14.352 -1.0655  0.0549 -0.4694
 6899TIP3   OH242111   5.379   5.972  14.332  0.0283 -0.0218 -0.2613
 6899TIP3    H142112   5.311   5.911  14.301  0.2990 -0.5296  0.1278
 6899TIP3    H242113   5.437   5.983  14.257 -2.2228  3.0239 -1.7621
 6900TIP3   OH242114   3.678   0.880  12.476  0.6356 -0.1768 -0.2380
 6900TIP3    H142115   3.692   0.936  12.552  1.5862 -0.7947  0.0584
 6900TIP3    H242116   3.591   0.903  12.445  0.7644  1.0173  0.2499
 6901TIP3   OH242117   2.004   0.273   0.096 -0.4090 -0.1238  0.5480
 6901TIP3    H142118   1.988   0.322   0.176  0.2807  0.8783  0.0965
 6901TIP3    H242119   2.077   0.319   0.054 -2.1446  0.7024 -1.7266
 6902TIP3   OH242120   2.421   3.027  16.343  0.9249  0.3102 -0.2554
 6902TIP3    H142121   2.493   3.085  16.369 -0.2225  0.5388  2.7396
 6902TIP3    H242122   2.464   2.942  16.329  2.0768  0.9632 -0.8619
 6903TIP3   OH242123   2.920   0.761   0.321  0.4444  0.1514  0.2311
 6903TIP3    H142124   3.012   0.763   0.346  0.4212  1.0540  0.2918
 6903TIP3    H242125   2.893   0.853   0.323  0.2763  0.2351 -2.5010
 6904TIP3   OH242126   1.055   1.438   4.310 -0.1849 -0.1685  0.2257
 6904TIP3    H142127   1.127   1.409   4.367 -0.0607  1.0182  0.7012
 6904TIP3    H242128   0.983   1.457   4.371 -0.5969 -0.4481 -0.1676
 6905TIP3   OH242129   1.853   0.865  11.051  0.3135  0.4071  0.1422
 6905TIP3    H142130   1.814   0.952  11.065  0.5621  0.5406  0.0069
 6905TIP3    H242131   1.855   0.856  10.956 -0.2445  0.0098  0.1612
 6906TIP3   OH242132   6.371   2.328   5.363 -0.4604  0.4342  0.4015
 6906TIP3    H142133   6.321   2.325   5.445  1.2225  1.4415  1.5220
 6906TIP3    H242134   6.461   2.312   5.390  0.3725  2.4363 -1.0197
 6907TIP3   OH242135   3.186   1.873  14.686  0.1401 -0.1222 -0.0825
 6907TIP3    H142136   3.209   1.965  14.690  0.9556 -0.3270  0.0997
 6907TIP3    H242137   3.263   1.829  14.651 -0.4780 -0.6616 -0.8221
 6908TIP3   OH242138   3.285   1.751  15.748  0.3947  0.3263  0.1378
 6908TIP3    H142139   3.341   1.811  15.698  1.8285 -0.5466  0.6392
 6908TIP3    H242140   3.303   1.771  15.839  0.6308 -0.6003  0.3109
 6909TIP3   OH242141   4.934   3.620  12.880 -0.4595 -0.6309  0.3115
 6909TIP3    H142142   4.887   3.551  12.928 -2.2252 -0.1049 -0.5909
 6909TIP3    H242143   4.953   3.580  12.795 -0.6310 -0.3469  0.1369
 6910TIP3   OH242144   2.215   4.722   4.978  0.0468  0.3221  0.3632
 6910TIP3    H142145   2.288   4.662   4.962 -0.5169  0.1146 -1.6178
 6910TIP3    H242146   2.226   4.791   4.913 -1.8825 -0.0637 -0.4323
 6911TIP3   OH242147   6.216   5.574  17.096  0.0708 -0.1381 -0.2857
 6911TIP3    H142148   6.258   5.503  17.047  0.3363 -0.5078  0.4678
 6911TIP3    H242149   6.151   5.531  17.151  0.8445  0.0860  0.8344
 6912TIP3   OH242150   0.641   5.850  16.415  0.1863  0.1875  0.2838
 6912TIP3    H142151   0.550   5.825  16.434  0.2098 -0.6017 -0.6164
 6912TIP3    H242152   0.653   5.931  16.465 -1.4246  1.0192 -0.5660
 6913TIP3   OH242153   3.871   1.254   1.521 -0.1006  0.0160 -0.1191
 6913TIP3    H142154   3.964   1.238   1.536 -0.1945 -1.9772 -1.2797
 6913TIP3    H242155   3.864   1.263   1.426 -0.9899  1.0859  0.0311
 6914TIP3   OH242156   0.180   3.637   5.524  0.0058 -0.4483  0.3785
 6914TIP3    H142157   0.182   3.654   5.618 -3.0986  0.0999  0.4611
 6914TIP3    H242158   0.087   3.640   5.501  0.6779 -0.2347 -2.7882
 6915TIP3   OH242159   5.664   6.347  11.602  0.0583 -0.3026  0.3240
 6915TIP3    H142160   5.588   6.291  11.590 -0.8797  1.0354 -0.1264
 6915TIP3    H242161   5.629   6.434  11.617  1.4657  0.0750  1.8141
 6916TIP3   OH242162   1.683   0.754  16.378 -0.2042  0.5049  0.1077
 6916TIP3    H142163   1.621   0.726  16.446 -1.5877 -0.3869 -1.4521
 6916TIP3    H242164   1.721   0.672  16.345  0.3003  0.9167 -0.3531
 6917TIP3   OH242165   1.815   0.818   0.522 -0.3253  0.7888  0.3062
 6917TIP3    H142166   1.754   0.753   0.487  2.8113 -3.9027  2.3641
 6917TIP3    H242167   1.810   0.807   0.617  3.1425  0.4872  0.5871
 6918TIP3   OH242168   0.096   4.882   0.816  0.3230 -0.1682  0.2446
 6918TIP3    H142169   0.083   4.968   0.856 -0.7459 -0.2189  0.0306
 6918TIP3    H242170   0.191   4.873   0.808  0.4718  0.6659  0.9679
 6919TIP3   OH242171   4.491   1.345  15.172 -0.1386  0.0012 -0.1702
 6919TIP3    H142172   4.553   1.288  15.218  1.1460  0.7037 -0.9626
 6919TIP3    H242173   4.507   1.327  15.080 -0.4100  0.9155 -0.4025
 6920TIP3   OH242174   2.690   3.908   5.063  0.1030 -0.0397  0.0570
 6920TIP3    H142175   2.775   3.892   5.022  0.4198 -0.3443  0.8127
 6920TIP3    H242176   2.662   3.822   5.094 -0.3703  0.1009  0.0189
 6921TIP3   OH242177   4.415   2.087   6.806 -0.3605 -0.5144  0.0935
 6921TIP3    H142178   4.457   2.080   6.891 -0.8338 -0.4834  0.3325
 6921TIP3    H242179   4.452   2.014   6.755 -0.3202 -0.7299  0.4267
 6922TIP3   OH242180   1.308   4.008  14.684  0.0607  0.0096  0.8071
 6922TIP3    H142181   1.323   4.096  14.718  1.9713 -0.7876  2.2325
 6922TIP3    H242182   1.394   3.979  14.654 -1.0868 -0.2430 -2.7130
 6923TIP3   OH242183   0.583   4.711  15.291 -0.3019  0.0630 -0.0233
 6923TIP3    H142184   0.657   4.765  15.320 -0.2308 -0.2029  0.2952
 6923TIP3    H242185   0.557   4.750  15.207 -1.5228  1.8375  1.1060
 6924TIP3   OH242186   0.258   1.554  16.971 -0.2681 -0.4668 -0.0402
 6924TIP3    H142187   0.214   1.611  16.907 -1.0964 -1.7974 -0.6954
 6924TIP3    H242188   0.324   1.507  16.919  0.5741  0.0484  0.5424
 6925TIP3   OH242189   4.946   5.179   0.429 -0.4129  0.4518  0.1063
 6925TIP3    H142190   4.928   5.224   0.347 -2.4113  1.2370  0.9010
 6925TIP3    H242191   4.963   5.250   0.492 -0.6135 -0.0360  0.7258
 6926TIP3   OH242192   5.260   2.082  14.447  0.0485  0.0070  0.6663
 6926TIP3    H142193   5.230   2.138  14.518 -1.5321  0.2937 -0.1588
 6926TIP3    H242194   5.224   1.996  14.468  0.4902 -0.1508  0.7646
 6927TIP3   OH242195   0.735   2.477  13.944 -0.1977  0.1972  0.1539
 6927TIP3    H142196   0.642   2.493  13.958  0.1680  2.8307  0.0854
 6927TIP3    H242197   0.775   2.486  14.031  0.1095 -0.0828  0.0481
 6928TIP3   OH242198   6.649   4.541  13.510 -0.4538  0.8968 -0.6287
 6928TIP3    H142199   6.712   4.536  13.438  0.5626  1.7197  0.1684
 6928TIP3    H242200   6.659   4.629  13.545  0.7132 -0.1343  1.9135
 6929TIP3   OH242201   1.002   2.150   1.142 -0.2125 -0.3481  0.3857
 6929TIP3    H142202   0.931   2.099   1.181  0.2201  0.1468  1.9207
 6929TIP3    H242203   1.031   2.099   1.067 -1.8559 -0.7927  0.0317
 6930TIP3   OH242204   4.652   5.607   3.963 -0.0260 -1.0108  0.0183
 6930TIP3    H142205   4.561   5.596   3.992  0.1899 -1.1303  0.6798
 6930TIP3    H242206   4.699   5.534   4.003  0.9060  0.6422  2.1784
 6931TIP3   OH242207   2.737   0.660  14.777  0.0302 -0.5713 -0.6092
 6931TIP3    H142208   2.705   0.630  14.692 -1.7138 -2.8084  0.7396
 6931TIP3    H242209   2.820   0.613  14.788 -0.5050 -1.4840 -0.4202
 6932TIP3   OH242210   1.592   5.615   2.732  0.4546  0.6546  0.0572
 6932TIP3    H142211   1.670   5.669   2.718  0.3297  1.2724  1.5870
 6932TIP3    H242212   1.522   5.678   2.747  0.1598  0.0934  1.1262
 6933TIP3   OH242213   5.196   6.154  13.333 -0.2902 -0.2193  0.4262
 6933TIP3    H142214   5.164   6.064  13.323  0.3758 -0.2578 -1.7086
 6933TIP3    H242215   5.291   6.145  13.337 -0.1921  0.4095 -0.3407
 6934TIP3   OH242216   4.189   1.773  15.703  0.4733  0.1836  0.5352
 6934TIP3    H142217   4.203   1.754  15.796  0.1300  0.1757  0.5871
 6934TIP3    H242218   4.095   1.758  15.690  0.4119  0.7517  0.3218
 6935TIP3   OH242219   3.581   2.328  15.060  0.1171  0.0101  0.1147
 6935TIP3    H142220   3.651   2.338  15.125 -1.5265 -1.7139  2.3244
 6935TIP3    H242221   3.586   2.237  15.034  0.4360  0.5732 -1.9238
 6936TIP3   OH242222   5.269   2.533   0.159 -0.5588 -0.7893 -0.4376
 6936TIP3    H142223   5.334   2.463   0.165 -0.9258 -1.2875 -1.8944
 6936TIP3    H242224   5.192   2.498   0.205  0.1235 -0.2611  1.1490
 6937TIP3   OH242225   4.716   2.884   3.552  0.3477 -0.3000 -0.1224
 6937TIP3    H142226   4.744   2.805   3.598  1.1733 -0.1625 -0.3779
 6937TIP3    H242227   4.778   2.893   3.480 -0.3517  0.0268 -0.6956
 6938TIP3   OH242228   0.908   2.980  12.408  0.2738  0.0543 -0.3235
 6938TIP3    H142229   0.898   3.066  12.450 -0.8126 -0.1790 -0.0589
 6938TIP3    H242230   0.830   2.973  12.352  0.7660 -0.4259 -0.9536
 6939TIP3   OH242231   0.174   1.638   1.135  0.0722  0.6700  0.7382
 6939TIP3    H142232   0.143   1.549   1.123 -0.2234  0.6396  1.6627
 6939TIP3    H242233   0.222   1.658   1.054 -1.4123  0.3334 -0.2676
 6940TIP3   OH242234   3.108   2.047   2.934 -0.5637 -0.0493  0.5052
 6940TIP3    H142235   3.113   2.142   2.940  0.5039 -0.0925  0.4778
 6940TIP3    H242236   3.200   2.018   2.929 -0.8778 -1.0643  0.3588
 6941TIP3   OH242237   4.556   4.205   2.741 -0.4628  0.8994 -0.0455
 6941TIP3    H142238   4.574   4.118   2.779  1.1345  1.7353  1.2729
 6941TIP3    H242239   4.514   4.253   2.812  0.8222  1.9056  0.0750
 6942TIP3   OH242240   6.808   3.836   0.687  0.0184 -0.4420  0.5815
 6942TIP3    H142241   6.735   3.888   0.655 -0.9204 -1.8334  0.3651
 6942TIP3    H242242   6.886   3.886   0.663 -0.7911  0.2400 -0.7132
 6943TIP3   OH242243   3.195   4.492  14.407  0.2402 -0.4879  0.0655
 6943TIP3    H142244   3.270   4.550  14.396 -1.6486  1.7412 -2.5035
 6943TIP3    H242245   3.204   4.427  14.338 -0.5789  0.3471 -0.8637
 6944TIP3   OH242246   5.668   3.269   1.186 -0.2788  0.2711  0.3026
 6944TIP3    H142247   5.740   3.332   1.193 -1.0418  1.1517  0.3281
 6944TIP3    H242248   5.670   3.241   1.095 -0.9420  1.5672 -0.1329
 6945TIP3   OH242249   0.367   2.690  12.656  0.4943 -0.1157  0.9053
 6945TIP3    H142250   0.415   2.648  12.585 -0.5331 -1.5665  1.0425
 6945TIP3    H242251   0.353   2.620  12.720  0.4806  0.9158  2.0677
 6946TIP3   OH242252   2.278   0.825   3.882  0.1799  0.3678 -0.7516
 6946TIP3    H142253   2.198   0.878   3.874  0.4112  0.8592  0.1262
 6946TIP3    H242254   2.347   0.888   3.901  0.5832 -0.1774 -0.3844
 6947TIP3   OH242255   4.531   6.167  14.484 -0.4059  0.2113  0.5159
 6947TIP3    H142256   4.445   6.195  14.453 -0.9143 -0.4270  1.3277
 6947TIP3    H242257   4.579   6.249  14.496 -1.0866  0.6080  0.6065
 6948TIP3   OH242258   3.679   4.982  13.395  0.4769  0.0353  0.4436
 6948TIP3    H142259   3.755   5.006  13.342  0.1522  1.1880  0.4674
 6948TIP3    H242260   3.699   5.019  13.482 -0.0956  0.3243  0.4548
 6949TIP3   OH242261   3.086   3.697   0.559 -0.2934  0.2560 -0.1537
 6949TIP3    H142262   3.112   3.668   0.647 -1.9569 -1.6228 -0.2302
 6949TIP3    H242263   2.991   3.686   0.557 -0.3151  0.5098 -2.1259
 6950TIP3   OH242264   3.732   2.158  15.278 -0.0047 -0.3115 -0.5173
 6950TIP3    H142265   3.677   2.151  15.200 -0.5841 -0.8738 -0.0680
 6950TIP3    H242266   3.684   2.217  15.336 -0.5371 -1.3988  0.1880
 6951TIP3   OH242267   5.585   4.434   0.076 -0.1430 -0.1423 -0.3336
 6951TIP3    H142268   5.497   4.432   0.114 -0.0827  2.1183  0.0880
 6951TIP3    H242269   5.579   4.494   0.002  0.7736 -1.0058 -1.1562
 6952TIP3   OH242270   5.972   4.424   2.405  0.1738 -0.2511 -0.3219
 6952TIP3    H142271   6.047   4.386   2.360  0.0425 -0.3981 -0.4203
 6952TIP3    H242272   6.008   4.496   2.456  0.3966 -0.3880 -0.2849
 6953TIP3   OH242273   3.234   2.206  13.921  0.2616  0.1889 -0.4808
 6953TIP3    H142274   3.177   2.220  13.845  1.3097  2.3101 -0.9329
 6953TIP3    H242275   3.307   2.267  13.909  1.9293 -1.4033  0.8113
 6954TIP3   OH242276   6.799   1.752   5.253  0.0570 -0.2721  0.0169
 6954TIP3    H142277   6.849   1.727   5.331  1.0419 -1.0347 -0.8308
 6954TIP3    H242278   6.796   1.847   5.256 -0.8353 -0.3233  1.5404
 6955TIP3   OH242279   4.247   2.134  15.985 -0.0416  0.4791 -0.1321
 6955TIP3    H142280   4.301   2.092  16.052 -1.6869  0.1283  1.0446
 6955TIP3    H242281   4.279   2.224  15.982  1.6530 -0.0908 -0.6545
 6956TIP3   OH242282   5.279   3.824  15.659  0.3339  0.0758 -0.0894
 6956TIP3    H142283   5.360   3.862  15.693 -0.5182  1.3516  0.5955
 6956TIP3    H242284   5.249   3.886  15.592 -0.8470  0.4206  0.7214
 6957TIP3   OH242285   1.212   6.302   4.512 -0.9235  0.8114 -0.2770
 6957TIP3    H142286   1.239   6.247   4.586 -1.9168 -0.9980 -1.1945
 6957TIP3    H242287   1.127   6.337   4.538 -1.4763 -0.1783 -0.7122
 6958TIP3   OH242288   5.776   0.035  11.424  0.0774 -0.0442 -0.5560
 6958TIP3    H142289   5.846  -0.008  11.473  1.8029  2.4629 -0.5956
 6958TIP3    H242290   5.745   0.105  11.483 -2.0574 -0.7266 -0.7751
 6959TIP3   OH242291   1.919   0.134   0.485  0.3382  0.0562  0.2738
 6959TIP3    H142292   1.827   0.113   0.470 -0.4176  0.7779  3.2653
 6959TIP3    H242293   1.967   0.054   0.460 -1.2930 -1.0439  0.5364
 6960TIP3   OH242294   4.480   4.374  16.395  0.4961 -0.5231  0.1284
 6960TIP3    H142295   4.523   4.292  16.371  0.2046 -0.1747 -1.7496
 6960TIP3    H242296   4.501   4.434  16.323  1.3219  1.3074  1.8034
 6961TIP3   OH242297   5.611   5.357   1.689  0.2316  0.3136 -0.4859
 6961TIP3    H142298   5.647   5.386   1.772  0.2159  1.3663 -0.8323
 6961TIP3    H242299   5.687   5.337   1.635  0.2446 -0.1302 -0.3082
 6962TIP3   OH242300   6.006   6.536  15.666 -0.4470  0.1787 -0.2938
 6962TIP3    H142301   6.017   6.544  15.571 -2.1673 -1.4620 -0.6923
 6962TIP3    H242302   5.913   6.547  15.681 -0.5651 -1.8867  0.8915
 6963TIP3   OH242303   2.502   0.603   1.161  0.2154  0.2951  0.1818
 6963TIP3    H142304   2.418   0.644   1.139  1.2829  2.3195 -0.3329
 6963TIP3    H242305   2.534   0.569   1.077 -0.5696 -1.5399  0.5714
 6964TIP3   OH242306   0.395   3.357  13.806  0.0210  0.4158 -0.1988
 6964TIP3    H142307   0.304   3.378  13.829 -1.2078 -1.7843 -2.5308
 6964TIP3    H242308   0.413   3.413  13.730  0.4068  0.4177 -0.1052
 6965TIP3   OH242309   3.602   3.898  11.774  0.2605  0.5713 -0.1975
 6965TIP3    H142310   3.668   3.835  11.804 -1.1212 -0.4687  0.8425
 6965TIP3    H242311   3.548   3.915  11.852 -0.8247  1.1966 -1.0524
 6966TIP3   OH242312   6.425   0.141   0.171 -0.3609 -0.6812  0.4761
 6966TIP3    H142313   6.426   0.214   0.234 -1.7474 -1.4071  1.3891
 6966TIP3    H242314   6.441   0.183   0.086 -1.7637  0.7968  0.8838
 6967TIP3   OH242315   4.089   3.850   4.583  0.4773  0.1491  0.1463
 6967TIP3    H142316   4.052   3.762   4.592  0.0506  0.4052  1.0400
 6967TIP3    H242317   4.036   3.891   4.515 -0.6815  0.3829  1.1515
 6968TIP3   OH242318   0.800   0.802   1.082  0.4112  0.2260  0.0912
 6968TIP3    H142319   0.869   0.804   1.016  1.2016  1.5394  0.9147
 6968TIP3    H242320   0.834   0.854   1.155 -1.9856  2.1546 -0.0190
 6969TIP3   OH242321   2.261   3.839   4.275  0.2654 -0.3161  0.0525
 6969TIP3    H142322   2.246   3.771   4.340 -1.8792  0.9931  1.0036
 6969TIP3    H242323   2.251   3.795   4.191  2.1526 -1.8198  0.5285
 6970TIP3   OH242324   3.830   1.848   3.777 -0.2036 -0.3131 -0.2009
 6970TIP3    H142325   3.846   1.782   3.844  0.5142  1.3236  1.3213
 6970TIP3    H242326   3.917   1.869   3.742  0.1839  2.4916  2.0678
 6971TIP3   OH242327   1.204   3.347  12.041  0.1421  0.0953  0.1972
 6971TIP3    H142328   1.299   3.348  12.055 -0.0083 -0.0048  1.3314
 6971TIP3    H242329   1.172   3.284  12.105 -0.8509  1.2954  0.9068
 6972TIP3   OH242330   0.653   4.526  14.216 -0.7948  0.3697  0.4201
 6972TIP3    H142331   0.665   4.538  14.122  1.9276 -2.6550  0.1859
 6972TIP3    H242332   0.696   4.601  14.256  0.7950  0.1698 -0.7993
 6973TIP3   OH242333   0.838   5.510  15.962 -0.3849  0.0664 -0.6362
 6973TIP3    H142334   0.879   5.430  15.995 -1.0664 -0.5884 -1.3457
 6973TIP3    H242335   0.781   5.539  16.034 -1.2176 -0.8851 -0.8880
 6974TIP3   OH242336   0.861   5.225   2.112  0.2666  0.4119  0.0382
 6974TIP3    H142337   0.951   5.215   2.081 -0.0232 -0.6301 -0.5086
 6974TIP3    H242338   0.825   5.137   2.110 -1.0587  0.9437 -0.6325
 6975TIP3   OH242339   3.607   2.542  17.101 -0.4416  0.3623  0.5263
 6975TIP3    H142340   3.627   2.553  17.195 -0.8250 -0.3532  0.6996
 6975TIP3    H242341   3.693   2.533  17.060 -0.2879 -1.8736  1.1686
 6976TIP3   OH242342   1.389   6.186   0.253  0.0259 -0.4778 -0.5288
 6976TIP3    H142343   1.356   6.107   0.211 -0.8874 -0.7252  0.6150
 6976TIP3    H242344   1.342   6.258   0.211  1.4730 -0.4231 -2.1748
 6977TIP3   OH242345   5.004   5.872  13.096  0.0621  0.6975 -0.4159
 6977TIP3    H142346   5.092   5.844  13.069  0.3981  0.5478  0.7778
 6977TIP3    H242347   4.988   5.951  13.044  0.8315  0.6345 -0.7738
 6978TIP3   OH242348   3.853   5.384  12.488 -0.2857  0.1540  0.1633
 6978TIP3    H142349   3.890   5.419  12.569 -1.3718  0.1585  0.6769
 6978TIP3    H242350   3.916   5.407  12.421  0.1322  1.0803  0.8512
 6979TIP3   OH242351   4.160   2.024   3.160  0.0454  0.4480  0.1700
 6979TIP3    H142352   4.250   2.030   3.127  0.2640  1.0974  0.8294
 6979TIP3    H242353   4.158   1.942   3.209 -0.1624 -0.3086 -1.0740
 6980TIP3   OH242354   3.307   4.574  13.259 -0.2239 -0.0025 -0.1501
 6980TIP3    H142355   3.373   4.635  13.289  0.1154 -0.5682  0.2774
 6980TIP3    H242356   3.352   4.520  13.193 -0.7365  0.7091 -1.1046
 6981TIP3   OH242357   6.186   2.593  12.778 -0.5672 -0.2321  0.0835
 6981TIP3    H142358   6.277   2.579  12.751 -0.5279 -0.9325  0.5432
 6981TIP3    H242359   6.134   2.551  12.710 -0.7006  2.8752 -1.8768
 6982TIP3   OH242360   0.091   3.926  12.757  0.3894  0.3986  0.3363
 6982TIP3    H142361   0.130   4.005  12.795 -0.9933  1.2728  0.0208
 6982TIP3    H242362   0.155   3.857  12.775  1.3785  1.4677  1.1245
 6983TIP3   OH242363   2.526   4.146   2.906  0.0728  0.0776 -0.2517
 6983TIP3    H142364   2.434   4.162   2.926  0.1033  2.3390 -1.5348
 6983TIP3    H242365   2.570   4.228   2.928  2.2774 -1.6562  2.5780
 6984TIP3   OH242366   4.100   5.691  15.490  0.0000  0.2351  0.1906
 6984TIP3    H142367   4.116   5.659  15.401  1.2283 -1.3495  0.9282
 6984TIP3    H242368   4.132   5.781  15.489 -0.9335  0.5818 -1.2123
 6985TIP3   OH242369   4.867   1.694   5.955 -0.2484  0.4449 -0.7138
 6985TIP3    H142370   4.872   1.705   6.050  0.8350 -1.8305 -0.4480
 6985TIP3    H242371   4.811   1.767   5.925  0.1411  1.7427  1.5269
 6986TIP3   OH242372   6.245   2.848  13.931  0.1283 -0.1846  0.5587
 6986TIP3    H142373   6.203   2.873  14.014 -2.6807  3.5694 -1.6515
 6986TIP3    H242374   6.173   2.815  13.878  1.8211 -2.2940 -0.5499
 6987TIP3   OH242375   0.887   5.150   3.237  0.3143 -0.2053 -0.5991
 6987TIP3    H142376   0.909   5.168   3.145  0.8387  0.6693 -0.3107
 6987TIP3    H242377   0.791   5.160   3.241  0.4213  1.1040 -0.7823
 6988TIP3   OH242378   5.350   1.845   0.839  0.0988  0.2896  0.5016
 6988TIP3    H142379   5.290   1.920   0.836 -1.0694 -0.6283 -1.6127
 6988TIP3    H242380   5.433   1.879   0.805 -0.5770  0.5411 -0.9631
 6989TIP3   OH242381   2.486   6.024  11.980 -0.2417  0.2707 -0.2216
 6989TIP3    H142382   2.578   6.005  11.998 -0.4158  0.3755  0.8303
 6989TIP3    H242383   2.442   6.010  12.063 -0.9612  1.5917 -0.3585
 6990TIP3   OH242384   3.565   5.259   2.014  0.0119 -0.5920  0.2591
 6990TIP3    H142385   3.512   5.244   2.093 -0.9997  3.6249  0.6170
 6990TIP3    H242386   3.501   5.267   1.944  0.4536  0.8151 -0.0064
 6991TIP3   OH242387   5.177   1.386  12.160 -0.0224  0.0898  0.5090
 6991TIP3    H142388   5.159   1.301  12.119 -1.9311  0.5635  0.2692
 6991TIP3    H242389   5.123   1.448  12.111  0.3777  1.2448  1.4818
 6992TIP3   OH242390   0.009   0.510   5.202 -0.3566 -0.3258 -0.7057
 6992TIP3    H142391  -0.002   0.585   5.144 -0.0330  0.0663 -0.2713
 6992TIP3    H242392  -0.074   0.463   5.196 -0.6112  0.1346 -0.8938
 6993TIP3   OH242393   2.070   0.203  13.901  0.0477  0.0324 -0.0739
 6993TIP3    H142394   1.987   0.163  13.875 -0.1714  1.0861 -1.1038
 6993TIP3    H242395   2.060   0.295  13.877  1.0272  0.4520  1.0165
 6994TIP3   OH242396   6.762   0.517   3.217  0.2540  0.2900  0.2827
 6994TIP3    H142397   6.801   0.543   3.134 -0.3200  0.9406  0.2088
 6994TIP3    H242398   6.673   0.551   3.213 -0.7444 -2.1245 -0.0435
 6995TIP3   OH242399   2.120   2.341   5.044  0.1099 -0.3289 -0.1439
 6995TIP3    H142400   2.180   2.303   4.980 -0.1223  0.1117 -0.6242
 6995TIP3    H242401   2.038   2.354   4.997 -0.3777 -0.9392  0.5151
 6996TIP3   OH242402   1.364   6.152   2.675  0.0833  0.3629  0.5336
 6996TIP3    H142403   1.273   6.177   2.690 -0.2063 -1.4561  2.1280
 6996TIP3    H242404   1.413   6.195   2.745  0.3122  0.3876  0.3633
 6997TIP3   OH242405   3.413   0.323  16.586 -0.4852 -0.1674  0.5024
 6997TIP3    H142406   3.451   0.299  16.501  0.9571 -0.5682  1.2483
 6997TIP3    H242407   3.327   0.281  16.585 -0.1011 -0.9835 -0.3626
 6998TIP3   OH242408   5.319   2.526   4.655 -0.3493 -0.3791  0.3166
 6998TIP3    H142409   5.317   2.493   4.566 -0.6341  1.7738 -0.5247
 6998TIP3    H242410   5.263   2.465   4.704 -0.1194 -1.6403 -0.9269
 6999TIP3   OH242411   3.786   2.228   0.344 -0.5963  0.2498 -0.2700
 6999TIP3    H142412   3.782   2.213   0.439 -0.8839 -1.8305 -0.5690
 6999TIP3    H242413   3.866   2.279   0.331  0.2459 -0.7008  0.9653
 7000TIP3   OH242414   2.467   3.844  13.576 -0.0641 -0.2513 -0.0953
 7000TIP3    H142415   2.479   3.932  13.611  0.2427 -0.3556  0.0647
 7000TIP3    H242416   2.552   3.802  13.587 -0.3203 -0.7015  0.2002
 7001TIP3   OH242417   5.406   5.625   6.070  0.3313 -0.0111 -0.2623
 7001TIP3    H142418   5.452   5.698   6.112 -1.1777  1.6775 -1.4305
 7001TIP3    H242419   5.353   5.587   6.140  0.1606  0.8387  0.0832
 7002TIP3   OH242420   5.888   4.328  12.627 -0.0385 -0.0582 -0.0282
 7002TIP3    H142421   5.823   4.398  12.624 -0.0429 -0.0214  0.7632
 7002TIP3    H242422   5.849   4.262  12.685  1.2168  0.5694  1.5866
 7003TIP3   OH242423   3.090   1.005   1.052 -0.4866 -0.1162  0.5883
 7003TIP3    H142424   3.099   1.083   1.106  2.0640 -0.2373  0.4552
 7003TIP3    H242425   3.117   0.933   1.109 -0.3234 -0.5682 -0.0528
 7004TIP3   OH242426   6.522   4.806  12.588 -0.5669 -0.4137  0.2344
 7004TIP3    H142427   6.486   4.733  12.639  1.3855 -1.2338  0.5387
 7004TIP3    H242428   6.482   4.797  12.502 -2.0616 -0.4716  0.9126
 7005TIP3   OH242429   0.887   2.090   5.831 -0.4920  0.1409 -0.4508
 7005TIP3    H142430   0.900   2.177   5.794 -4.6201  1.4902  0.7219
 7005TIP3    H242431   0.917   2.096   5.921  3.3989 -1.2138 -1.4245
 7006TIP3   OH242432   1.508   6.051   4.753  0.0833 -0.1651  0.1259
 7006TIP3    H142433   1.510   5.979   4.816 -1.4738 -0.4449 -0.1200
 7006TIP3    H242434   1.587   6.102   4.773  0.1365 -0.7899  1.6600
 7007TIP3   OH242435   5.046   3.403  13.135 -0.1105  0.1651 -0.0826
 7007TIP3    H142436   4.952   3.396  13.152 -0.5802 -0.3021 -2.5992
 7007TIP3    H242437   5.059   3.495  13.111 -0.0453  0.0657 -0.4261
 7008TIP3   OH242438   3.501   2.682   0.622 -0.3486  0.0064 -0.2545
 7008TIP3    H142439   3.589   2.674   0.660  0.1698  0.3469 -1.3267
 7008TIP3    H242440   3.480   2.594   0.591  0.8341  0.4100 -2.4781
 7009TIP3   OH242441   6.691   6.631  13.533  0.4459 -0.1713 -0.4711
 7009TIP3    H142442   6.735   6.563  13.583 -0.8925 -0.5844  0.1992
 7009TIP3    H242443   6.748   6.648  13.458  1.4591 -1.0381  0.0892
 7010TIP3   OH242444   2.757   3.494  14.250  0.2650 -0.6515 -0.1011
 7010TIP3    H142445   2.773   3.428  14.318 -0.9524  0.7757  1.6840
 7010TIP3    H242446   2.662   3.494  14.238  0.2139  0.8770  0.1090
 7011TIP3   OH242447   1.361   5.077   1.744 -0.0118 -0.0381 -0.2746
 7011TIP3    H142448   1.370   5.127   1.826  0.4743 -0.3594 -0.1312
 7011TIP3    H242449   1.390   4.989   1.767  2.0632  0.3408 -1.2936
 7012TIP3   OH242450   6.001   0.148   4.474 -0.4369 -0.2239  0.2936
 7012TIP3    H142451   5.932   0.083   4.462  1.2261 -1.9563 -0.3277
 7012TIP3    H242452   6.067   0.104   4.526  0.3956  1.2544  0.5473
 7013TIP3   OH242453   6.172   0.531  14.619  0.4579 -0.5897  0.0846
 7013TIP3    H142454   6.252   0.487  14.647  1.4962  1.6532  0.8691
 7013TIP3    H242455   6.201   0.591  14.550 -0.7308 -0.3855 -0.2622
 7014TIP3   OH242456   1.732   4.405  11.386 -0.4864 -0.1997  0.3211
 7014TIP3    H142457   1.700   4.385  11.298 -1.4765  4.0167 -0.4923
 7014TIP3    H242458   1.654   4.399  11.442 -1.2976  2.7230 -0.3027
 7015TIP3   OH242459   3.272   4.002  13.003 -0.3834 -0.3787 -0.5347
 7015TIP3    H142460   3.355   4.048  13.001 -0.1798 -0.7187 -2.5542
 7015TIP3    H242461   3.295   3.913  13.030 -0.6089  0.3023  2.1554
 7016TIP3   OH242462   3.444   3.351   1.082 -0.4785 -0.1686  0.0839
 7016TIP3    H142463   3.355   3.328   1.058 -2.1889  4.2654  1.2247
 7016TIP3    H242464   3.486   3.377   1.000 -2.4058  3.4236  0.0093
 7017TIP3   OH242465   5.793   0.537   6.059 -0.5664  0.0786 -0.1462
 7017TIP3    H142466   5.789   0.627   6.093 -0.1540  0.5706 -1.3483
 7017TIP3    H242467   5.887   0.516   6.059 -0.6865 -0.4656  0.4070
 7018TIP3   OH242468   4.603   4.997  16.520  0.1706 -0.3520  0.1139
 7018TIP3    H142469   4.664   5.012  16.448  1.2031 -1.2433  0.7578
 7018TIP3    H242470   4.641   4.922  16.567 -1.4167 -0.9046  0.5537
 7019TIP3   OH242471   5.371   4.421   3.939  0.0557  0.7234  0.1211
 7019TIP3    H142472   5.312   4.389   3.871 -0.1276  1.2637  0.0256
 7019TIP3    H242473   5.414   4.342   3.973 -0.1475  0.4146 -0.3421
 7020TIP3   OH242474   3.369   6.537   1.452  0.2788 -0.1217  0.1155
 7020TIP3    H142475   3.415   6.582   1.382 -0.3578 -0.5086 -0.5647
 7020TIP3    H242476   3.439   6.505   1.509  0.7294  2.4679  1.1354
 7021TIP3   OH242477   0.950   5.598   5.170 -0.1229 -0.3952  0.3895
 7021TIP3    H142478   0.999   5.617   5.090 -1.2134 -0.2688 -0.2659
 7021TIP3    H242479   0.927   5.505   5.163  0.2244 -0.5177  0.8132
 7022TIP3   OH242480   6.653   4.887  14.923 -0.3082 -0.1793 -0.0871
 7022TIP3    H142481   6.626   4.809  14.875 -1.5517  1.0618 -1.4764
 7022TIP3    H242482   6.743   4.903  14.895 -0.0173 -1.1329  0.2710
 7023TIP3   OH242483   2.268   5.470   4.987 -0.5604 -0.2207  0.3953
 7023TIP3    H142484   2.231   5.508   5.067 -0.8644 -0.5423  0.4089
 7023TIP3    H242485   2.363   5.479   4.998 -0.6201  0.3032  0.5127
 7024TIP3   OH242486   2.149   5.733  12.831  0.7495  0.4124 -0.1529
 7024TIP3    H142487   2.158   5.645  12.867  1.1814  0.2616 -0.6160
 7024TIP3    H242488   2.079   5.726  12.767  0.4663  0.5152  0.1462
 7025TIP3   OH242489   4.287   6.695   3.251 -0.3125 -0.3400  0.2511
 7025TIP3    H142490   4.306   6.715   3.342 -2.5734  1.6851  0.3920
 7025TIP3    H242491   4.357   6.736   3.201 -0.5488  0.9940  0.9858
 7026TIP3   OH242492   5.656   1.271   4.700  0.5451  0.4247  0.2228
 7026TIP3    H142493   5.654   1.189   4.749 -2.7179  1.3033  1.8209
 7026TIP3    H242494   5.735   1.316   4.731  1.3882 -1.2881  0.6802
 7027TIP3   OH242495   1.712   4.833  15.494 -0.1880  0.2080  0.3328
 7027TIP3    H142496   1.783   4.781  15.455  0.2929  0.4687  0.8490
 7027TIP3    H242497   1.681   4.888  15.422  1.3363  1.3820  0.5275
 7028TIP3   OH242498   3.216   5.519  12.534  0.1355 -0.0851 -0.4890
 7028TIP3    H142499   3.259   5.450  12.483 -0.2037 -0.3036 -0.4834
 7028TIP3    H242500   3.286   5.581  12.554  0.3807 -0.2692 -0.7619
 7029TIP3   OH242501   1.532   2.322   1.994  0.1188  0.0083 -0.4438
 7029TIP3    H142502   1.437   2.315   1.986 -0.1800 -3.2959  2.8869
 7029TIP3    H242503   1.545   2.394   2.056 -0.4732 -1.0629  0.9775
 7030TIP3   OH242504   2.604   4.496  12.501  0.4702 -0.0563 -0.6122
 7030TIP3    H142505   2.546   4.459  12.567 -0.3183 -2.1461 -2.3792
 7030TIP3    H242506   2.560   4.577  12.474 -0.7125 -0.6927 -0.6483
 7031TIP3   OH242507   2.426   2.553   1.860  0.2932 -0.3164  0.1476
 7031TIP3    H142508   2.337   2.570   1.890  1.8672  2.5612  4.2364
 7031TIP3    H242509   2.445   2.464   1.889 -0.5631 -0.1193  1.4098
 7032TIP3   OH242510   3.420   6.482   2.095  0.1500  0.0800 -0.0565
 7032TIP3    H142511   3.458   6.557   2.049  0.5479  0.2222  0.4838
 7032TIP3    H242512   3.492   6.450   2.150 -0.3478  0.0043  0.5587
 7033TIP3   OH242513   4.463   2.719   4.789 -0.3913 -1.0421  0.8141
 7033TIP3    H142514   4.494   2.808   4.774 -0.9883 -0.9103  0.2903
 7033TIP3    H242515   4.512   2.688   4.865 -2.6143  0.9975  3.2890
 7034TIP3   OH242516   0.632   5.057  14.240 -0.6563 -0.0655 -0.1517
 7034TIP3    H142517   0.560   5.054  14.176  0.8949 -0.4854 -1.9967
 7034TIP3    H242518   0.669   5.145  14.229  1.2539 -0.9986 -1.8546
 7035TIP3   OH242519   2.947   3.411  11.981 -0.2431  1.0140 -0.2375
 7035TIP3    H142520   2.868   3.426  12.031 -1.2788 -0.6501 -1.2761
 7035TIP3    H242521   2.932   3.455  11.897 -0.2943  0.2818 -0.6221
 7036TIP3   OH242522   6.446   6.194   6.392 -0.3927 -0.1231  0.3273
 7036TIP3    H142523   6.367   6.215   6.442  0.3638  0.7940  1.1678
 7036TIP3    H242524   6.428   6.226   6.304 -1.6631 -1.5666  0.0146
 7037TIP3   OH242525   3.724   3.526   3.394 -0.6891  0.5007 -0.0579
 7037TIP3    H142526   3.637   3.533   3.353 -1.2592 -1.7982  0.5707
 7037TIP3    H242527   3.730   3.601   3.452 -1.6320  1.5118 -1.2186
 7038TIP3   OH242528   2.929   4.045   3.144  0.3324 -0.6699  0.6532
 7038TIP3    H142529   2.887   3.959   3.154  3.0202 -2.0369  1.3310
 7038TIP3    H242530   2.953   4.071   3.233  0.1260  0.5022  0.3855
 7039TIP3   OH242531   5.902   3.751   1.503  0.0281 -0.3716  0.4409
 7039TIP3    H142532   5.838   3.813   1.539 -0.1625 -0.7844  0.8243
 7039TIP3    H242533   5.974   3.752   1.566  0.0482 -0.4957  0.4199
 7040TIP3   OH242534   5.510   4.054   4.634  0.1721  0.4010  0.1827
 7040TIP3    H142535   5.483   4.146   4.641  2.3508  1.0777  0.3052
 7040TIP3    H242536   5.540   4.030   4.722 -0.1223 -0.3560  0.0889
 7041TIP3   OH242537   0.328   3.758  13.411  0.2344  0.6387 -0.1658
 7041TIP3    H142538   0.321   3.847  13.378 -3.1006  0.3609 -0.5363
 7041TIP3    H242539   0.337   3.704  13.332 -2.3557  0.3858 -0.3674
 7042TIP3   OH242540   2.377   0.582  14.180  0.8861 -0.0316 -0.1288
 7042TIP3    H142541   2.375   0.569  14.086 -1.3719  0.3324 -0.1657
 7042TIP3    H242542   2.442   0.519  14.212  0.2261 -1.5502 -1.7077
 7043TIP3   OH242543   5.169   5.674   4.588  0.4426 -0.6158  0.2707
 7043TIP3    H142544   5.203   5.668   4.499  0.1726 -0.2936  0.1443
 7043TIP3    H242545   5.082   5.711   4.578  1.8010  3.2296  0.9116
 7044TIP3   OH242546   0.517   5.726  15.085  0.4920  0.7184  0.2098
 7044TIP3    H142547   0.455   5.656  15.065 -0.6345  1.6292  0.4010
 7044TIP3    H242548   0.508   5.741  15.179  0.0928  1.6864  0.0313
 7045TIP3   OH242549   5.927   3.004  15.211  0.2023  0.5119 -0.2228
 7045TIP3    H142550   5.859   3.029  15.148  0.7377 -0.2637 -1.1343
 7045TIP3    H242551   5.893   3.034  15.295 -0.7082  1.2323 -0.8211
 7046TIP3   OH242552   5.359   5.492  13.312  0.0035 -0.2205  0.1854
 7046TIP3    H142553   5.413   5.549  13.366  0.0341 -1.1973  1.2276
 7046TIP3    H242554   5.272   5.533  13.312 -0.6483 -1.3677  2.9928
 7047TIP3   OH242555   1.987   5.706  12.615 -0.1479  0.2151 -0.0911
 7047TIP3    H142556   1.900   5.728  12.583 -0.0852  1.0446  0.2777
 7047TIP3    H242557   2.040   5.694  12.537 -0.1192  1.6951 -0.3326
 7048TIP3   OH242558   4.571   4.150  11.971  0.4046 -0.7213 -0.7641
 7048TIP3    H142559   4.483   4.126  11.999  0.8549 -1.0501  0.4295
 7048TIP3    H242560   4.623   4.071  11.986  1.4701  0.3033  1.2073
 7049TIP3   OH242561   3.601   0.696   1.895  0.1262 -0.0341 -0.1471
 7049TIP3    H142562   3.516   0.712   1.937  1.0294  0.1306  1.7276
 7049TIP3    H242563   3.605   0.759   1.824 -2.2762 -1.5758 -1.8031
 7050TIP3   OH242564   4.918   4.793  11.202 -0.1576 -0.2576  0.0984
 7050TIP3    H142565   4.948   4.862  11.144 -0.1102 -0.5279 -0.2009
 7050TIP3    H242566   4.910   4.716  11.146 -0.6638 -0.3791  0.3323
 7051TIP3   OH242567   5.446   1.580   6.474  0.4813 -0.6090  0.2170
 7051TIP3    H142568   5.466   1.486   6.478  1.8616 -0.2919  1.7022
 7051TIP3    H242569   5.528   1.623   6.496 -0.3182  0.9586  0.2683
 7052TIP3   OH242570   3.782   1.782   5.785 -0.4982 -0.2397 -0.5500
 7052TIP3    H142571   3.783   1.716   5.715  0.0879  0.0851 -0.8574
 7052TIP3    H242572   3.734   1.740   5.856  1.1270 -1.5854 -0.1774
 7053TIP3   OH242573   5.154   2.439  13.486  0.0891 -0.0915 -0.0921
 7053TIP3    H142574   5.157   2.344  13.483 -0.5785 -0.0945 -1.4917
 7053TIP3    H242575   5.246   2.466  13.486  0.2932 -0.7301  1.2299
 7054TIP3   OH242576   3.569   3.753  13.559  1.0113 -0.4904  0.3736
 7054TIP3    H142577   3.568   3.818  13.489  0.4738 -0.0551  0.7799
 7054TIP3    H242578   3.557   3.803  13.639  0.7853 -1.0676  0.7095
 7055TIP3   OH242579   6.229   3.396  13.422  0.3981  0.1322 -0.0185
 7055TIP3    H142580   6.214   3.348  13.340 -0.2503 -0.3867  0.3986
 7055TIP3    H242581   6.305   3.351  13.461  0.7315  0.4026 -0.3413
 7056TIP3   OH242582   2.045   4.043   0.576  0.7617 -0.1204  0.3013
 7056TIP3    H142583   2.006   4.118   0.620  0.0106 -0.0399 -0.4802
 7056TIP3    H242584   2.135   4.071   0.556  1.0175 -0.0492  1.4732
 7057TIP3   OH242585   5.109   2.505  14.753 -0.8022  0.0543  0.3266
 7057TIP3    H142586   5.045   2.513  14.824 -1.1951 -1.1573  0.1281
 7057TIP3    H242587   5.057   2.494  14.674 -0.3516 -0.1021  0.0472
 7058TIP3   OH242588   6.373   5.776   5.582 -0.7421  0.2614 -0.2121
 7058TIP3    H142589   6.445   5.836   5.564 -0.4257 -0.4354 -1.3393
 7058TIP3    H242590   6.306   5.830   5.624  0.0136  1.1346 -0.1160
 7059TIP3   OH242591   6.190   6.215   3.602  0.0923 -0.0807 -0.1705
 7059TIP3    H142592   6.252   6.282   3.629 -0.9575  0.9969 -0.3481
 7059TIP3    H242593   6.149   6.185   3.683  0.6358 -0.5994 -0.0807
 7060TIP3   OH242594   0.427   3.525  11.116 -0.1480  0.1764 -0.0083
 7060TIP3    H142595   0.339   3.557  11.134 -0.3783  0.3640 -1.4255
 7060TIP3    H242596   0.426   3.435  11.149 -1.2606 -0.2386 -1.1171
 7061TIP3   OH242597   1.196   4.067   3.536 -0.3263  0.4269 -0.2856
 7061TIP3    H142598   1.270   4.041   3.591 -1.1918  0.9319  1.1628
 7061TIP3    H242599   1.137   4.114   3.594 -2.4726 -1.1183 -1.0419
 7062TIP3   OH242600   5.021   0.937   4.073 -0.9350 -0.0514 -0.0614
 7062TIP3    H142601   5.111   0.906   4.075 -0.7220  0.5894  1.7813
 7062TIP3    H242602   4.997   0.935   3.980  1.8824  2.3027 -1.0021
 7063TIP3   OH242603   5.772   2.891   0.111  0.3415 -0.3789  0.1996
 7063TIP3    H142604   5.717   2.954   0.157 -0.1459 -0.9382  0.3873
 7063TIP3    H242605   5.771   2.921   0.020 -1.2313 -1.0388 -0.0310
 7064TIP3   OH242606   1.633   3.119   5.045 -0.6604 -0.3075 -0.5366
 7064TIP3    H142607   1.723   3.149   5.055 -0.3775 -1.4907  0.7197
 7064TIP3    H242608   1.581   3.180   5.097 -0.7126  0.7959 -1.8174
 7065TIP3   OH242609   3.994   3.694   5.519  0.6761 -0.4473 -0.2706
 7065TIP3    H142610   4.082   3.657   5.514  1.1994  0.7503 -0.3348
 7065TIP3    H242611   4.007   3.789   5.512 -0.6639 -0.2744 -0.8816
 7066TIP3   OH242612   1.929   4.348  13.764 -0.1222  0.1399 -0.5595
 7066TIP3    H142613   1.907   4.338  13.856 -1.3085 -2.3808 -1.0367
 7066TIP3    H242614   1.896   4.435  13.741 -0.2812  0.5896  1.2252
 7067TIP3   OH242615   0.328   1.268  14.435  0.3055 -0.0487 -0.4564
 7067TIP3    H142616   0.332   1.289  14.528  0.5164  1.0145 -0.7021
 7067TIP3    H242617   0.247   1.309  14.404  1.4515  1.7587 -1.2460
 7068TIP3   OH242618   2.223   2.318   5.299 -0.5904  0.1534 -0.3659
 7068TIP3    H142619   2.154   2.271   5.347 -0.4918  0.3406 -0.0341
 7068TIP3    H242620   2.200   2.306   5.207 -1.0708  0.2132 -0.2612
 7069TIP3   OH242621   1.578   6.779  16.927 -0.1705 -0.0167 -0.5288
 7069TIP3    H142622   1.590   6.810  16.838 -0.3530  0.6046 -0.3349
 7069TIP3    H242623   1.629   6.840  16.981  0.7186 -0.9289 -0.2879
 7070TIP3   OH242624   3.032   6.131   0.515  0.1749  0.1189  0.1831
 7070TIP3    H142625   3.077   6.087   0.587  2.1155 -1.0500 -1.6136
 7070TIP3    H242626   2.942   6.140   0.545  1.1057  0.6657  3.1462
 7071TIP3   OH242627   3.503   0.413  11.831 -0.1126 -0.7171  0.1147
 7071TIP3    H142628   3.580   0.400  11.886  0.2296 -4.4889 -0.9896
 7071TIP3    H242629   3.539   0.427  11.743 -0.6677 -0.4883 -0.0789
 7072TIP3   OH242630   1.035   1.012   3.550  0.6275 -0.0201  0.2419
 7072TIP3    H142631   1.041   0.995   3.456 -0.5063  0.1806  0.1239
 7072TIP3    H242632   1.084   0.940   3.591 -1.2641 -1.7476 -0.3792
 7073TIP3   OH242633   3.137   1.968  13.745 -0.5766  0.6234 -0.0186
 7073TIP3    H142634   3.091   2.052  13.748  1.4333  1.7735  1.0069
 7073TIP3    H242635   3.106   1.921  13.822 -0.6100  1.0914  0.2610
 7074TIP3   OH242636   0.872   1.721   4.259  0.0914  0.6161 -0.0338
 7074TIP3    H142637   0.933   1.755   4.323  1.8812 -0.6631 -0.9674
 7074TIP3    H242638   0.816   1.661   4.309  1.5928 -0.5297  0.3346
 7075TIP3   OH242639   6.330   0.935   2.330  0.1267 -0.3320  0.3318
 7075TIP3    H142640   6.307   1.027   2.316  0.8490 -0.3174 -0.9032
 7075TIP3    H242641   6.397   0.937   2.399 -0.6995 -0.0558  1.1548
 7076TIP3   OH242642   4.212   4.341   0.197 -0.0828 -0.3632 -0.1535
 7076TIP3    H142643   4.153   4.310   0.128 -0.4383  0.2883 -0.1530
 7076TIP3    H242644   4.168   4.316   0.278  0.8452 -2.0776 -0.1391
 7077TIP3   OH242645   5.580   6.637  16.202  0.2169 -0.0182  0.2753
 7077TIP3    H142646   5.513   6.573  16.225  1.6801 -2.4748 -1.7747
 7077TIP3    H242647   5.641   6.636  16.276 -0.1161 -0.5605  0.5482
 7078TIP3   OH242648   4.769   0.906   5.643 -0.1778 -0.0344 -0.4807
 7078TIP3    H142649   4.703   0.893   5.712 -1.3967  0.1592 -1.5628
 7078TIP3    H242650   4.822   0.979   5.675 -0.7069  0.0331  0.2783
 7079TIP3   OH242651   3.407   0.861  11.151  0.5300 -0.4408 -0.8269
 7079TIP3    H142652   3.471   0.791  11.136 -0.0893 -0.6832 -2.6253
 7079TIP3    H242653   3.323   0.816  11.155  0.3892 -0.0903  1.2304
 7080TIP3   OH242654   0.356   3.877   5.724  0.4665 -0.2728 -0.0817
 7080TIP3    H142655   0.448   3.853   5.713  0.2951 -0.6326 -0.8166
 7080TIP3    H242656   0.315   3.797   5.757  0.3312 -0.2649 -0.2281
 7081TIP3   OH242657   2.206   0.357   1.417  0.3320 -0.3463 -0.0219
 7081TIP3    H142658   2.265   0.284   1.396 -0.1459 -0.7346 -0.0554
 7081TIP3    H242659   2.220   0.374   1.510  2.0985  1.0456 -0.5003
 7082TIP3   OH242660   4.307   6.160   4.571  0.5175  0.7251  0.5467
 7082TIP3    H142661   4.234   6.108   4.605  1.0038 -1.5844 -1.5980
 7082TIP3    H242662   4.384   6.103   4.582  1.0419  0.7983 -2.1032
 7083TIP3   OH242663   5.085   4.989  12.928 -0.2549 -0.0219 -0.3937
 7083TIP3    H142664   5.170   4.980  12.972  0.3395  2.5469 -0.8768
 7083TIP3    H242665   5.046   5.067  12.967 -2.4483 -1.1253 -0.2163
 7084TIP3   OH242666   0.817   2.536  12.886  0.3021 -0.0123  0.4720
 7084TIP3    H142667   0.777   2.619  12.914 -0.3794  0.6033 -2.0146
 7084TIP3    H242668   0.742   2.477  12.874  0.2591  0.3846 -1.8143
 7085TIP3   OH242669   3.876   4.838   1.239  0.2998 -0.1282 -0.1202
 7085TIP3    H142670   3.884   4.930   1.214 -4.3831  1.1974  2.0289
 7085TIP3    H242671   3.956   4.819   1.286  1.6585  2.6730 -1.0712
 7086TIP3   OH242672   5.439   3.841   3.214  0.2097 -0.4109  0.4208
 7086TIP3    H142673   5.348   3.866   3.222 -0.4761 -2.3737 -0.4526
 7086TIP3    H242674   5.444   3.795   3.130  2.1611  0.2329  0.1130
 7087TIP3   OH242675   1.930   6.644   4.070  0.1392  0.3287 -0.4554
 7087TIP3    H142676   1.929   6.656   3.975  1.2128 -1.1556 -0.6950
 7087TIP3    H242677   2.005   6.586   4.086 -1.4943 -1.5248  1.0217
 7088TIP3   OH242678   0.348   1.844   5.144 -0.2155  0.5398  0.5007
 7088TIP3    H142679   0.298   1.770   5.109 -1.0573  1.0475  0.6084
 7088TIP3    H242680   0.433   1.807   5.168 -1.2114 -0.7681  2.1865
 7089TIP3   OH242681   0.792   0.908  12.976  0.6994 -0.2706  0.7024
 7089TIP3    H142682   0.883   0.897  12.949  0.7342 -1.6140  1.3268
 7089TIP3    H242683   0.794   0.982  13.037  1.3132 -0.1012  0.4864
 7090TIP3   OH242684   0.140   6.349   2.515  0.1875  0.3669  0.1387
 7090TIP3    H142685   0.122   6.412   2.445 -0.3440  0.6434  0.5156
 7090TIP3    H242686   0.163   6.403   2.591 -1.3993  0.1837  0.7960
 7091TIP3   OH242687   3.633   6.056   2.212  0.4756 -0.7575 -0.5635
 7091TIP3    H142688   3.707   6.013   2.256 -0.1222 -0.5267  0.6999
 7091TIP3    H242689   3.624   6.008   2.130  0.5793 -2.3150  0.2894
 7092TIP3   OH242690   0.645   4.149   0.917  0.1981 -0.3494 -0.1058
 7092TIP3    H142691   0.719   4.112   0.965  0.6257  0.8205  0.1858
 7092TIP3    H242692   0.570   4.137   0.975  0.1706 -1.3961 -0.3334
 7093TIP3   OH242693   6.139   2.897   5.349  0.2805 -0.2515  0.3314
 7093TIP3    H142694   6.223   2.914   5.308  1.1728  0.0745  2.1938
 7093TIP3    H242695   6.152   2.816   5.399 -0.3538  0.0815  1.0582
 7094TIP3   OH242696   3.292   2.298   4.911 -0.2846 -0.1880 -0.3127
 7094TIP3    H142697   3.296   2.206   4.885 -2.3127  0.1209 -2.0283
 7094TIP3    H242698   3.200   2.323   4.896  0.1820  2.0784  0.2226
 7095TIP3   OH242699   6.355   2.047  15.852  0.0137 -0.1222 -0.4303
 7095TIP3    H142700   6.326   1.983  15.787 -0.6219  0.1217 -0.3991
 7095TIP3    H242701   6.441   2.075  15.821 -1.1486  1.5989 -2.4001
 7096TIP3   OH242702   0.510   3.366   3.894  0.3196  0.5823 -0.1888
 7096TIP3    H142703   0.549   3.300   3.949 -0.6541 -0.0598 -0.2412
 7096TIP3    H242704   0.528   3.449   3.938 -0.3892  0.0915  1.0786
 7097TIP3   OH242705   1.355   1.287   3.124  0.5529 -0.5215  0.6318
 7097TIP3    H142706   1.407   1.338   3.063  1.6316 -1.8966  0.3631
 7097TIP3    H242707   1.276   1.265   3.074 -0.3241  1.4922  1.0153
 7098TIP3   OH242708   4.451   4.264  15.131  0.0381  0.0486  0.2649
 7098TIP3    H142709   4.381   4.266  15.196 -0.5068 -0.0685 -0.3125
 7098TIP3    H242710   4.453   4.174  15.100  0.5265  0.0225  0.3607
 7099TIP3   OH242711   0.697   6.059  15.369  0.0888 -0.3169  0.5699
 7099TIP3    H142712   0.611   6.017  15.377  0.1093 -0.3105  0.8372
 7099TIP3    H242713   0.682   6.148  15.402 -0.6264  0.8102 -2.4928
 7100TIP3   OH242714   3.712   0.791  17.040  0.7664  0.2591 -0.3651
 7100TIP3    H142715   3.747   0.879  17.052 -0.5251  0.8508 -0.7277
 7100TIP3    H242716   3.621   0.805  17.011  0.7576 -1.1774 -1.1287
 7101TIP3   OH242717   5.937   6.066   5.299  0.0336 -0.6188 -0.2895
 7101TIP3    H142718   5.843   6.048   5.296 -0.6850  2.6109 -1.9099
 7101TIP3    H242719   5.964   6.068   5.207  1.7370 -1.5205  0.1508
 7102TIP3   OH242720   3.024   2.530   3.678 -0.1396  0.4498 -0.2063
 7102TIP3    H142721   2.945   2.540   3.731 -1.2199 -1.4387 -1.3415
 7102TIP3    H242722   3.017   2.597   3.610 -0.5067  0.6240  0.0050
 7103TIP3   OH242723   0.577   2.449  13.052 -0.1021  0.0579 -0.1584
 7103TIP3    H142724   0.580   2.543  13.035  0.8528 -0.4091 -3.0324
 7103TIP3    H242725   0.502   2.438  13.111  1.6252  2.8845  2.8706
 7104TIP3   OH242726   4.481   0.922  13.553  0.1365 -0.1949  0.3190
 7104TIP3    H142727   4.550   0.972  13.508 -1.0972 -0.0581 -1.5212
 7104TIP3    H242728   4.481   0.837  13.507 -2.8362  0.8045 -1.7934
 7105TIP3   OH242729   4.248   1.827  11.045  0.0426 -0.9009 -0.4668
 7105TIP3    H142730   4.279   1.895  10.985 -0.0506 -0.1805  0.2934
 7105TIP3    H242731   4.284   1.746  11.009  0.7415 -0.3747 -0.9875
 7106TIP3   OH242732   0.221   0.386  10.812 -1.0372  0.7146  0.0537
 7106TIP3    H142733   0.282   0.313  10.814 -0.1332  1.4261 -0.7089
 7106TIP3    H242734   0.162   0.366  10.739 -0.0319  1.3146 -0.9501
 7107TIP3   OH242735   3.832   3.721   1.002  0.2147  0.1065 -0.4700
 7107TIP3    H142736   3.814   3.704   0.910 -1.0444  1.3850 -0.4816
 7107TIP3    H242737   3.809   3.639   1.047 -3.2324  0.7493 -0.8243
 7108TIP3   OH242738   1.533   2.635  13.145  0.1954  0.7572  0.1105
 7108TIP3    H142739   1.516   2.541  13.145 -2.0544  1.0700  1.5328
 7108TIP3    H242740   1.448   2.675  13.127  0.5557  2.5117  1.8896
 7109TIP3   OH242741   5.070   3.238   5.426 -0.0724  0.2815  0.0031
 7109TIP3    H142742   5.054   3.315   5.371  0.8969  0.2954 -0.2729
 7109TIP3    H242743   5.023   3.167   5.381  0.5689  0.3280 -0.7672
 7110TIP3   OH242744   4.501   3.915   5.998  0.2446  0.0777  0.3263
 7110TIP3    H142745   4.432   3.888   5.937  0.7689  0.1271 -0.2998
 7110TIP3    H242746   4.456   3.928   6.081 -0.6980  1.2310 -0.3411
 7111TIP3   OH242747   3.346   3.010  11.312  1.0253 -0.6512 -0.6037
 7111TIP3    H142748   3.258   2.975  11.325  0.1523  1.5518 -0.1684
 7111TIP3    H242749   3.338   3.067  11.235  1.6516  0.8559  0.4138
 7112TIP3   OH242750   5.111   6.799  11.477  0.0801 -0.6626 -0.1937
 7112TIP3    H142751   5.201   6.822  11.498  0.4914 -0.0469 -2.3584
 7112TIP3    H242752   5.083   6.867  11.416 -1.4707 -1.4688 -0.4215
 7113TIP3   OH242753   4.583   0.503  16.624  0.5279  0.2915 -0.1824
 7113TIP3    H142754   4.616   0.452  16.549  1.2490 -0.5995  0.7156
 7113TIP3    H242755   4.518   0.562  16.586  0.8677 -0.1547 -1.5115
 7114TIP3   OH242756   0.595   4.314   2.449  0.1991  0.6680  0.2468
 7114TIP3    H142757   0.687   4.339   2.465  0.7943  0.2581 -2.1967
 7114TIP3    H242758   0.601   4.233   2.399 -1.5691  0.0313  0.9909
 7115TIP3   OH242759   3.331   3.821   1.409 -0.2528 -0.1019 -0.1887
 7115TIP3    H142760   3.400   3.885   1.428  0.1661 -0.2835 -1.0572
 7115TIP3    H242761   3.349   3.791   1.320 -0.7388 -1.0625  0.0191
 7116TIP3   OH242762   1.224   4.862   2.524  0.8647  0.1913  0.2532
 7116TIP3    H142763   1.150   4.921   2.538  0.1293 -0.4357 -0.8244
 7116TIP3    H242764   1.193   4.800   2.458  3.0166  1.1086 -1.7703
 7117TIP3   OH242765   1.868   2.878  13.983  0.3585 -0.4277 -0.2084
 7117TIP3    H142766   1.775   2.855  13.989  0.0962  0.3220 -1.2321
 7117TIP3    H242767   1.913   2.804  14.024 -0.7131 -0.4916  0.9182
 7118TIP3   OH242768   4.029   3.428  11.697 -0.0992 -0.1791  0.1232
 7118TIP3    H142769   4.003   3.349  11.743  0.4377 -1.1913 -1.2272
 7118TIP3    H242770   4.094   3.398  11.634 -1.3620  0.9597 -1.8367
 7119TIP3   OH242771   0.208   0.509  12.518 -0.3331 -0.5602  0.2671
 7119TIP3    H142772   0.260   0.526  12.596  0.9189  0.1779 -0.6960
 7119TIP3    H242773   0.203   0.413  12.513  1.3440 -0.6621  0.1229
 7120TIP3   OH242774   0.273   5.936  13.424 -0.4250  0.1308 -0.7439
 7120TIP3    H142775   0.332   5.976  13.488 -0.7642 -1.1680  0.4182
 7120TIP3    H242776   0.331   5.893  13.362 -0.0356 -2.8356  1.4758
 7121TIP3   OH242777   5.587   1.078  12.140 -0.4741 -0.2007  0.4866
 7121TIP3    H142778   5.676   1.059  12.108  0.1723 -0.7883  2.4711
 7121TIP3    H242779   5.546   1.125  12.068  2.7953  3.9499  0.9449
 7122TIP3   OH242780   2.026   3.128  15.280  0.2456  0.0752 -0.5253
 7122TIP3    H142781   2.031   3.040  15.245 -1.0492  0.5313 -1.9381
 7122TIP3    H242782   2.059   3.184  15.210 -2.3811  1.0060 -1.1114
 7123TIP3   OH242783   0.646   5.618   3.820 -0.8361  0.2593  0.0446
 7123TIP3    H142784   0.689   5.635   3.904 -0.6943  0.6002 -0.0963
 7123TIP3    H242785   0.665   5.696   3.767  1.4162 -1.0554 -1.2685
 7124TIP3   OH242786   4.589   4.434  15.812 -0.4755 -0.0619 -0.1285
 7124TIP3    H142787   4.643   4.403  15.884  1.4540 -1.1779 -1.9289
 7124TIP3    H242788   4.517   4.371  15.806 -0.0789 -0.5494  0.1905
 7125TIP3   OH242789   2.976   4.108   5.524  0.4278  0.7608 -0.1007
 7125TIP3    H142790   2.918   4.174   5.561 -1.2959 -1.2061  0.9033
 7125TIP3    H242791   2.955   4.107   5.431  0.1671  1.3053 -0.0528
 7126TIP3   OH242792   0.340   4.445  16.560 -0.0285 -0.1920  0.3124
 7126TIP3    H142793   0.387   4.461  16.478 -0.2722  0.5082  0.2976
 7126TIP3    H242794   0.399   4.476  16.628  0.2518 -0.9535  0.4132
 7127TIP3   OH242795   3.027   0.411   3.736 -0.4147 -0.0279 -0.6006
 7127TIP3    H142796   3.108   0.452   3.766  1.3369 -3.2297 -0.4648
 7127TIP3    H242797   2.958   0.452   3.788  1.0560  2.7756 -0.6671
 7128TIP3   OH242798   5.176   2.793   3.334  0.0118 -0.0550 -0.4771
 7128TIP3    H142799   5.233   2.832   3.400  0.1097 -2.7535  1.1603
 7128TIP3    H242800   5.225   2.800   3.252  0.9254  1.2174  0.1438
 7129TIP3   OH242801   3.712   4.641  13.098 -0.8275  0.3306  0.2228
 7129TIP3    H142802   3.682   4.728  13.070  0.6687  0.7862 -0.0326
 7129TIP3    H242803   3.803   4.637  13.071 -0.7537 -1.1705  0.6214
 7130TIP3   OH242804   0.669   0.481  14.923  0.5237  0.0274  0.2940
 7130TIP3    H142805   0.663   0.560  14.869 -0.7642  1.1958  2.0296
 7130TIP3    H242806   0.616   0.415  14.876  0.1967  0.7228 -0.3324
 7131TIP3   OH242807   4.394   4.446  12.200  0.4537  0.2109 -0.1765
 7131TIP3    H142808   4.469   4.478  12.251 -0.5456  0.3318  1.2959
 7131TIP3    H242809   4.365   4.367  12.246 -0.7972  0.6024 -0.2483
 7132TIP3   OH242810   6.600   1.544   4.455 -0.5494  0.2066  0.0495
 7132TIP3    H142811   6.581   1.452   4.475  0.3225  0.0866  0.3374
 7132TIP3    H242812   6.624   1.543   4.363 -1.2642  0.2645 -0.1463
 7133TIP3   OH242813   5.874   6.680  10.304 -0.1425  0.2990 -0.0045
 7133TIP3    H142814   5.920   6.686  10.220  0.1788  0.1733  0.1587
 7133TIP3    H242815   5.904   6.757  10.352 -0.3796  0.4079 -0.0330
 7134TIP3   OH242816   1.482   2.505  15.518 -0.1327  0.0539  0.5211
 7134TIP3    H142817   1.558   2.452  15.494  1.0292  1.1617  1.5800
 7134TIP3    H242818   1.420   2.443  15.555  0.7402 -0.7296  0.7154
 7135TIP3   OH242819   2.484   0.018  15.269 -0.1281 -0.1697 -0.1337
 7135TIP3    H142820   2.577   0.031  15.251 -0.0733 -0.9938 -0.4747
 7135TIP3    H242821   2.439   0.062  15.197  0.0253 -0.8511 -0.6466
 7136TIP3   OH242822   5.082   0.540  15.056  0.1600 -0.0132  0.3074
 7136TIP3    H142823   5.096   0.491  15.137 -0.7590 -0.0265  0.4685
 7136TIP3    H242824   4.988   0.535  15.041  0.2340  0.5566 -0.4061
 7137TIP3   OH242825   4.921   4.462   1.059 -0.2766 -0.0315 -0.1486
 7137TIP3    H142826   4.967   4.511   1.127 -2.0967  2.0285 -0.2950
 7137TIP3    H242827   4.853   4.413   1.106 -1.9984  1.9399 -0.4158
 7138TIP3   OH242828   4.772   0.847  14.224 -0.3889 -0.3047 -0.5344
 7138TIP3    H142829   4.782   0.882  14.313  4.5233  2.3262 -1.7862
 7138TIP3    H242830   4.822   0.764  14.226  1.5369  0.7694 -1.1504
 7139TIP3   OH242831   6.657   4.193  12.596 -0.4682 -0.2271  0.0536
 7139TIP3    H142832   6.676   4.205  12.689  1.2980  0.5990 -0.3687
 7139TIP3    H242833   6.566   4.222  12.586  0.6998  4.5621  0.7495
 7140TIP3   OH242834   5.309   6.410  16.060 -0.2287  0.2984 -0.3397
 7140TIP3    H142835   5.278   6.340  16.002 -0.6202  1.4441 -1.5508
 7140TIP3    H242836   5.335   6.364  16.140 -0.6620 -1.2117 -1.0213
 7141TIP3   OH242837   4.197   3.080  15.989 -0.0361  0.6630  0.1122
 7141TIP3    H142838   4.183   3.103  15.897  2.0740  0.6658 -0.2702
 7141TIP3    H242839   4.217   2.987  15.988  0.6684  0.7988  0.4579
 7142TIP3   OH242840   3.886   0.654  11.619 -0.3751  0.0833 -0.4226
 7142TIP3    H142841   3.859   0.684  11.705 -0.8776 -1.6353  0.0521
 7142TIP3    H242842   3.969   0.609  11.634 -0.6522 -0.5556 -0.7604
 7143TIP3   OH242843   2.919   4.024  15.544  0.2303  0.9203  0.4432
 7143TIP3    H142844   2.943   4.075  15.466  1.3832  0.1125  0.2533
 7143TIP3    H242845   2.978   4.057  15.613  1.0507 -0.1780  0.2979
 7144TIP3   OH242846   4.418   5.865   1.108 -0.1241 -0.3615  0.0630
 7144TIP3    H142847   4.324   5.853   1.123 -0.3273  1.1070  0.1139
 7144TIP3    H242848   4.423   5.906   1.022  0.4384  0.1643  0.3453
 7145TIP3   OH242849   2.740   0.763  15.257  0.4814 -0.4271  0.0011
 7145TIP3    H142850   2.748   0.668  15.267 -1.1763 -0.6014  0.0006
 7145TIP3    H242851   2.776   0.781  15.170  0.7063 -1.0590 -0.0451
 7146TIP3   OH242852   5.273   4.106   2.939 -0.4528 -0.0198  0.3311
 7146TIP3    H142853   5.194   4.136   2.984  0.1233  1.7144  0.2657
 7146TIP3    H242854   5.321   4.186   2.920  1.8298 -1.0795  1.2908
 7147TIP3   OH242855   1.886   0.097  12.927 -1.0969  0.4579 -0.1765
 7147TIP3    H142856   1.852   0.007  12.933  1.2683 -0.6343 -1.6838
 7147TIP3    H242857   1.807   0.151  12.918 -2.5962 -1.9012 -3.5003
 7148TIP3   OH242858   5.593   1.718  11.032 -0.5353 -0.4164 -0.3240
 7148TIP3    H142859   5.565   1.681  10.948 -0.3950  1.3500 -1.2061
 7148TIP3    H242860   5.535   1.793  11.045  0.1310 -0.0621  0.6357
 7149TIP3   OH242861   1.170   5.628  15.247 -0.4174  0.4862  0.1952
 7149TIP3    H142862   1.213   5.679  15.315  0.2175 -0.3112  0.4027
 7149TIP3    H242863   1.076   5.639  15.264 -0.2667  0.1870  1.2851
 7150TIP3   OH242864   6.399   3.513   5.665  0.0661  0.6446 -0.3606
 7150TIP3    H142865   6.367   3.553   5.584 -2.0938  0.8445  0.5268
 7150TIP3    H242866   6.381   3.579   5.732  0.5921 -0.0546  0.4808
 7151TIP3   OH242867   3.810   5.547  15.335  0.6935 -0.1252  0.0729
 7151TIP3    H142868   3.849   5.480  15.391  0.6102 -0.6080 -0.4326
 7151TIP3    H242869   3.720   5.555  15.366  1.6484  2.4446  2.5810
 7152TIP3   OH242870   1.131   2.745  13.350 -0.0559  0.1353 -0.3153
 7152TIP3    H142871   1.179   2.679  13.400  2.5374  1.4162 -0.8939
 7152TIP3    H242872   1.112   2.815  13.413 -1.3134 -0.4045 -0.0687
 7153TIP3   OH242873   4.312   3.405  12.924 -0.1884  0.0189  0.1414
 7153TIP3    H142874   4.361   3.377  13.001  2.0901  2.4847 -0.2744
 7153TIP3    H242875   4.224   3.369  12.937 -0.2392  1.1829  4.4390
 7154TIP3   OH242876   0.031   1.036  14.429  0.3158  0.1891 -0.0108
 7154TIP3    H142877   0.064   1.074  14.510 -1.3083  0.4964  0.5380
 7154TIP3    H242878   0.026   0.942  14.448 -1.9664  0.4638  1.0029
 7155TIP3   OH242879   1.818   4.216   0.851  0.7600 -0.6112 -0.1938
 7155TIP3    H142880   1.765   4.151   0.805 -0.4269 -0.3555  0.7293
 7155TIP3    H242881   1.837   4.175   0.936  0.4165  0.0268  0.2065
 7156TIP3   OH242882   5.843   4.045   6.023  0.5201 -0.1920  0.1393
 7156TIP3    H142883   5.884   3.968   6.063  0.6236 -0.5106 -0.5644
 7156TIP3    H242884   5.762   4.012   5.985 -0.3831  0.4179  1.4431
 7157TIP3   OH242885   1.979   0.517   3.516  0.0723 -0.6975 -0.2579
 7157TIP3    H142886   2.019   0.495   3.600  0.1489  0.1760 -0.0646
 7157TIP3    H242887   1.896   0.469   3.517 -0.9486  1.0012  1.2670
 7158TIP3   OH242888   5.517   2.220   0.933  0.3052 -0.6919  0.1130
 7158TIP3    H142889   5.533   2.314   0.946 -2.1984 -0.3395  1.0713
 7158TIP3    H242890   5.433   2.216   0.888 -0.8325 -2.4981  2.2209
 7159TIP3   OH242891   6.718   2.894  14.419  0.2434 -0.0760  0.0359
 7159TIP3    H142892   6.671   2.931  14.494 -1.8416  1.2138 -1.7785
 7159TIP3    H242893   6.803   2.937  14.420 -0.1707  0.7590  1.0239
 7160TIP3   OH242894   6.647   1.595   4.901 -0.7299  0.3943  0.1377
 7160TIP3    H142895   6.589   1.666   4.927  0.9683  1.4947  1.1145
 7160TIP3    H242896   6.635   1.529   4.969  0.4472  1.3883  1.3552
 7161TIP3   OH242897   2.261   3.518   2.434 -0.1234  0.0447  0.0847
 7161TIP3    H142898   2.330   3.585   2.439 -1.0515  1.0666 -0.4730
 7161TIP3    H242899   2.212   3.527   2.515  1.9587 -2.5380  1.8335
 7162TIP3   OH242900   5.578   4.187  15.097 -0.1573 -0.4452  0.5927
 7162TIP3    H142901   5.521   4.231  15.160 -1.7672 -0.5056 -0.7457
 7162TIP3    H242902   5.518   4.140  15.039  1.2450 -0.2950 -1.0707
 7163TIP3   OH242903   2.815   1.211  15.188  0.0405  0.1572 -0.2765
 7163TIP3    H142904   2.739   1.217  15.131 -0.4374 -1.7621  0.0766
 7163TIP3    H242905   2.882   1.168  15.134 -0.0709 -0.7021  0.2485
 7164TIP3   OH242906   0.941   5.077   0.478 -0.4603 -0.1068 -0.0833
 7164TIP3    H142907   0.964   5.154   0.425  0.9938  0.2046  0.9466
 7164TIP3    H242908   0.848   5.064   0.461 -0.2045  0.4135 -2.1496
 7165TIP3   OH242909   1.793   5.661  12.860 -0.1725  0.6729 -0.2632
 7165TIP3    H142910   1.791   5.756  12.872  1.5079  0.6526  0.4893
 7165TIP3    H242911   1.870   5.646  12.804  1.7467 -0.4273  2.4532
 7166TIP3   OH242912   0.613   4.971   1.466  0.3852  0.2608 -0.6737
 7166TIP3    H142913   0.535   5.010   1.504  1.4973  0.9783  0.9748
 7166TIP3    H242914   0.606   4.991   1.372 -1.8378 -0.5299 -0.7379
 7167TIP3   OH242915   0.975   2.015   3.845  0.2608 -0.0809  0.2307
 7167TIP3    H142916   1.066   1.997   3.824 -0.0039 -0.4900 -0.6217
 7167TIP3    H242917   0.952   1.948   3.909  0.2156 -0.7659 -0.4872
 7168TIP3   OH242918   0.642   1.670   1.880  0.5091 -0.4580 -0.0141
 7168TIP3    H142919   0.640   1.632   1.968  1.0488  1.0919  0.7043
 7168TIP3    H242920   0.556   1.648   1.843 -0.5622  0.5856  1.6804
 7169TIP3   OH242921   2.764   5.998   3.655  0.6112  0.2991 -0.2624
 7169TIP3    H142922   2.671   6.020   3.662  0.2277 -1.4056  0.6268
 7169TIP3    H242923   2.806   6.050   3.723  0.2353  0.6881 -0.3222
 7170TIP3   OH242924   4.499   3.744   2.033 -0.2252 -0.2157  0.1264
 7170TIP3    H142925   4.566   3.681   2.005 -0.4567 -0.2715 -0.3137
 7170TIP3    H242926   4.431   3.690   2.074 -0.4728 -0.2677 -0.3460
 7171TIP3   OH242927   3.352   6.010   0.404  0.2294 -0.8051 -0.2253
 7171TIP3    H142928   3.325   5.921   0.383 -0.4016 -0.3973 -1.2212
 7171TIP3    H242929   3.365   6.052   0.319 -0.2242  0.2744  0.2150
 7172TIP3   OH242930   0.114   4.610   6.416 -0.0892  0.2622  0.3124
 7172TIP3    H142931   0.196   4.606   6.367 -0.2698 -0.1436  0.0360
 7172TIP3    H242932   0.129   4.556   6.493 -0.2897 -0.3117 -0.0411
 7173TIP3   OH242933   5.474   5.682   2.519  0.1034 -0.3763 -0.1682
 7173TIP3    H142934   5.420   5.606   2.495  0.8955 -1.0934  0.2576
 7173TIP3    H242935   5.556   5.670   2.470  0.1736  0.3034 -0.2325
 7174TIP3   OH242936   2.983   6.667   0.426 -0.4485 -0.1055  0.4495
 7174TIP3    H142937   2.951   6.735   0.486 -0.7582 -1.2461  1.6422
 7174TIP3    H242938   3.063   6.635   0.467  0.3908  0.3899 -0.7583
 7175TIP3   OH242939   0.611   2.821   1.299 -0.3205 -0.1504  0.0126
 7175TIP3    H142940   0.619   2.730   1.272  1.0522 -1.1583  3.3113
 7175TIP3    H242941   0.701   2.855   1.297 -0.6296  0.6992  0.1082
 7176TIP3   OH242942   0.227   1.645   2.321 -0.2165  0.2354  0.4131
 7176TIP3    H142943   0.158   1.632   2.256 -2.0124 -2.6015  2.5820
 7176TIP3    H242944   0.206   1.728   2.363 -1.7433 -0.0755  0.3182
 7177TIP3   OH242945   6.060   5.188  10.809 -0.2138  0.5836  1.1757
 7177TIP3    H142946   6.126   5.225  10.750 -0.1408 -0.0560  0.8518
 7177TIP3    H242947   5.982   5.240  10.792 -0.1291  0.5593  0.6803
 7178TIP3   OH242948   1.297   2.028   5.289  0.0615 -0.1529 -0.1669
 7178TIP3    H142949   1.282   1.938   5.260 -0.7450  0.5751 -2.1958
 7178TIP3    H242950   1.252   2.082   5.223  0.7252  1.7382  0.8646
 7179TIP3   OH242951   4.702   3.334   0.335  0.3545  0.0901 -0.2548
 7179TIP3    H142952   4.606   3.340   0.338  0.4485  1.9894  0.2558
 7179TIP3    H242953   4.731   3.395   0.403  1.9436 -0.2625 -0.5945
 7180TIP3   OH242954   0.381   5.336   0.028 -0.0222  0.6713 -0.2058
 7180TIP3    H142955   0.446   5.398  -0.006 -0.2592  0.8644 -0.3103
 7180TIP3    H242956   0.401   5.254  -0.016  1.8511  0.0079  1.7166
 7181TIP3   OH242957   6.160   2.423   0.305  0.0975  0.2560  0.3355
 7181TIP3    H142958   6.160   2.336   0.346 -2.0210  0.5582  1.1263
 7181TIP3    H242959   6.223   2.474   0.355  3.4315 -1.4392 -1.7962
 7182TIP3   OH242960   5.513   2.969   5.974  0.3160  0.4484 -0.4605
 7182TIP3    H142961   5.606   2.994   5.968  1.1280 -1.4065  2.3392
 7182TIP3    H242962   5.505   2.928   6.060 -2.9836 -0.1277 -0.9218
 7183TIP3   OH242963   5.313   1.836  13.414 -0.3892  0.3075  0.1045
 7183TIP3    H142964   5.383   1.771  13.424 -0.7674 -0.4093 -1.6014
 7183TIP3    H242965   5.344   1.911  13.464  1.1052 -0.3824  0.2876
 7184TIP3   OH242966   2.529   0.772   0.565  0.1792  0.1260  0.6181
 7184TIP3    H142967   2.601   0.709   0.561  0.8037  0.8854 -0.6870
 7184TIP3    H242968   2.559   0.838   0.627  0.0953 -0.1405  0.9516
 7185TIP3   OH242969   2.723   6.751   3.670  0.2371 -0.6981 -0.2196
 7185TIP3    H142970   2.633   6.751   3.640 -0.4233  1.3599  1.4620
 7185TIP3    H242971   2.775   6.760   3.591 -0.9330 -2.7806 -1.2965
 7186TIP3   OH242972   3.579   3.502  15.340  0.1220 -0.1724 -0.1438
 7186TIP3    H142973   3.601   3.501  15.247 -1.8703 -1.2202 -0.6619
 7186TIP3    H242974   3.571   3.595  15.362 -3.2910  0.1532 -2.0976
 7187TIP3   OH242975   2.396   3.627  12.421 -0.3061  0.5451  0.6590
 7187TIP3    H142976   2.325   3.628  12.486 -1.5798  1.3818 -0.6913
 7187TIP3    H242977   2.373   3.697  12.360  2.0400  1.2654  0.5162
 7188TIP3   OH242978   5.688   1.452  17.006 -0.0548  0.3391 -0.2177
 7188TIP3    H142979   5.718   1.526  16.953  0.8836 -0.4943 -0.8790
 7188TIP3    H242980   5.623   1.409  16.952 -0.0625  0.2552 -0.1417
 7189TIP3   OH242981   0.434   5.365  12.632  0.0772  0.4448 -0.2421
 7189TIP3    H142982   0.518   5.406  12.611  0.4500 -0.4169 -0.4854
 7189TIP3    H242983   0.417   5.307  12.557 -0.8887  0.8510 -0.3433
 7190TIP3   OH242984   4.135   3.583   1.153  0.4581 -0.6232  0.3148
 7190TIP3    H142985   4.105   3.503   1.111  1.1418 -0.7354  0.0315
 7190TIP3    H242986   4.104   3.654   1.097  1.4567 -0.7757 -0.4503
 7191TIP3   OH242987   5.736   4.332  12.171  0.4459  0.0891 -0.7335
 7191TIP3    H142988   5.724   4.329  12.266  1.7683 -0.7467 -0.5716
 7191TIP3    H242989   5.725   4.424  12.148 -1.0364  0.1455  0.0492
 7192TIP3   OH242990   0.881   2.293   5.152 -0.1053  0.5101  0.4638
 7192TIP3    H142991   0.799   2.262   5.191 -0.5779  0.5065 -0.5230
 7192TIP3    H242992   0.865   2.294   5.058  0.7331  1.3622  0.3119
 7193TIP3   OH242993   5.316   2.849  14.823 -0.1796  0.2261 -0.0419
 7193TIP3    H142994   5.354   2.800  14.896  0.1755  1.0194  0.3197
 7193TIP3    H242995   5.364   2.817  14.746  0.0664  0.0206  0.1921
 7194TIP3   OH242996   1.990   5.180   2.041  0.0267 -0.8627  0.0070
 7194TIP3    H142997   1.938   5.255   2.068  0.8755 -0.1231 -0.3524
 7194TIP3    H242998   2.034   5.151   2.120  2.1416  1.0033 -0.3799
 7195TIP3   OH242999   6.557   4.148  15.698 -0.4319 -0.4376  0.2539
 7195TIP3    H143000   6.483   4.186  15.747  0.5557  0.2012  1.3114
 7195TIP3    H243001   6.586   4.074  15.752  1.3062  0.8788  1.2288
 7196TIP3   OH243002   4.201   4.722  12.902 -0.6114  0.1862  0.0928
 7196TIP3    H143003   4.248   4.802  12.877 -1.6444  0.1699 -2.1653
 7196TIP3    H243004   4.199   4.670  12.822 -1.9981 -1.0524  0.8946
 7197TIP3   OH243005   3.831   4.328   5.494  0.0916 -0.0301 -0.0798
 7197TIP3    H143006   3.846   4.278   5.413 -1.3202 -2.8817  1.2711
 7197TIP3    H243007   3.799   4.413   5.463  2.2919  0.0617 -2.5066
 7198TIP3   OH243008   2.693   4.149  13.605  0.3399  0.0640  1.1614
 7198TIP3    H143009   2.667   4.150  13.512  1.6001 -0.9939  0.7722
 7198TIP3    H243010   2.648   4.224  13.643 -0.4514  0.3383 -0.2424
 7199TIP3   OH243011   1.788   0.006  13.840 -0.4193  0.1529  0.5083
 7199TIP3    H143012   1.705   0.042  13.870 -0.6220 -0.4040  0.6208
 7199TIP3    H243013   1.783  -0.087  13.861  0.3224  0.1521  0.7312
 7200TIP3   OH243014   4.573   1.626   2.505 -0.5600  0.2195 -0.2491
 7200TIP3    H143015   4.607   1.541   2.535 -1.8336 -0.5030 -0.7630
 7200TIP3    H243016   4.649   1.671   2.469  0.4995  0.0508  1.6575
 7201TIP3   OH243017   4.900   2.453  14.917 -0.2574  0.0391  0.1216
 7201TIP3    H143018   4.822   2.505  14.902 -0.1429  0.0915 -0.3092
 7201TIP3    H243019   4.877   2.365  14.887  0.0009  0.1653 -0.4731
 7202TIP3   OH243020   4.390   0.868   1.940 -0.0212 -0.0242 -0.7099
 7202TIP3    H143021   4.480   0.881   1.910  0.7494  0.4535  1.5487
 7202TIP3    H243022   4.374   0.774   1.929  1.7047 -0.5947  1.0978
 7203TIP3   OH243023   3.282   1.840   3.634 -0.5475  0.0377 -0.0620
 7203TIP3    H143024   3.288   1.745   3.641  0.5620  0.1622  0.9081
 7203TIP3    H243025   3.267   1.870   3.724 -2.2074  0.7270 -0.5132
 7204TIP3   OH243026   2.097   5.434  15.569 -0.1853  0.3418 -0.1021
 7204TIP3    H143027   2.117   5.515  15.522 -2.3995  0.8886 -0.2260
 7204TIP3    H243028   2.105   5.457  15.661 -0.3971  0.5924 -0.1447
 7205TIP3   OH243029   5.118   4.501   2.711 -0.7668  0.6278 -0.0879
 7205TIP3    H143030   5.037   4.477   2.667 -0.7655  0.6050 -0.0773
 7205TIP3    H243031   5.187   4.468   2.653 -0.7505 -1.2006  0.9104
 7206TIP3   OH243032   1.278   4.119  11.767 -0.4131  0.2366 -0.1025
 7206TIP3    H143033   1.300   4.070  11.688  0.6998 -0.3910  0.5584
 7206TIP3    H243034   1.340   4.087  11.833 -1.4154  0.6104  1.0740
 7207TIP3   OH243035   3.502   6.317  13.950  0.0007  0.0908 -0.2036
 7207TIP3    H143036   3.447   6.294  13.875  1.2676 -2.7719 -0.3580
 7207TIP3    H243037   3.441   6.354  14.014 -1.8365 -1.4088 -0.9943
 7208TIP3   OH243038   6.710   4.356  12.393 -0.1996  0.0747 -0.1922
 7208TIP3    H143039   6.803   4.365  12.370  0.2029 -3.8541 -0.9264
 7208TIP3    H243040   6.707   4.277  12.448 -3.1650 -0.2788 -0.7053
 7209TIP3   OH243041   5.263   3.753   5.813  0.1554 -0.2426  0.1089
 7209TIP3    H143042   5.270   3.834   5.763 -0.5823  0.0799  0.5279
 7209TIP3    H243043   5.331   3.697   5.775 -0.0557  0.1693 -0.9253
 7210TIP3   OH243044   0.605   3.603  15.097 -0.3400  0.1315  0.1676
 7210TIP3    H143045   0.686   3.643  15.129  0.8129 -0.5960 -1.6786
 7210TIP3    H243046   0.587   3.648  15.014 -1.2386 -0.4411  0.0365
 7211TIP3   OH243047   4.334   1.820  12.545 -0.0046 -0.4315 -0.2277
 7211TIP3    H143048   4.339   1.789  12.454 -0.7552 -1.5071  0.0835
 7211TIP3    H243049   4.337   1.740  12.598  2.0064  0.2457  0.7941
 7212TIP3   OH243050   0.841   1.163  13.106  0.8375 -0.2770 -0.3617
 7212TIP3    H143051   0.863   1.197  13.020 -2.1228  1.5492 -0.5314
 7212TIP3    H243052   0.877   1.227  13.167 -0.3216  0.5105 -0.4669
 7213TIP3   OH243053   0.859   4.323   1.183 -0.0665 -0.7596  0.4656
 7213TIP3    H143054   0.922   4.330   1.254  0.3052  0.2226  0.0622
 7213TIP3    H243055   0.798   4.255   1.211  1.3713 -2.0026  0.6954
 7214TIP3   OH243056   4.984   3.706   5.170 -0.1440 -0.0990 -0.3207
 7214TIP3    H143057   5.026   3.767   5.108 -0.9676  0.7893 -0.0312
 7214TIP3    H243058   4.926   3.762   5.222  0.1941 -0.9025  0.9613
 7215TIP3   OH243059   3.408   3.106   1.830 -0.0946 -0.6499 -0.4366
 7215TIP3    H143060   3.444   3.192   1.850 -1.9594  0.3674 -1.2294
 7215TIP3    H243061   3.483   3.046   1.839  1.7841  1.3089 -1.9955
 7216TIP3   OH243062   3.847   5.201   4.580 -0.4615 -0.6779 -0.0820
 7216TIP3    H143063   3.873   5.114   4.609  1.7321 -0.6197 -1.6547
 7216TIP3    H243064   3.832   5.192   4.486  1.8824  0.9957 -0.7081
 7217TIP3   OH243065   6.224   0.860  16.180  0.6510 -0.7274 -0.4722
 7217TIP3    H143066   6.136   0.824  16.190  0.7516 -1.1586 -1.0886
 7217TIP3    H243067   6.281   0.783  16.175  1.1865 -0.4554  0.8710
 7218TIP3   OH243068   1.952   3.076   4.422  0.3448 -0.2184  0.2111
 7218TIP3    H143069   2.008   3.000   4.437 -0.1224 -1.3301 -2.8760
 7218TIP3    H243070   2.011   3.151   4.427  1.5237 -1.0939 -0.0527
 7219TIP3   OH243071   0.101   0.248  12.435 -0.3001 -0.6276 -0.3584
 7219TIP3    H143072   0.189   0.221  12.410 -0.2877  0.4091 -1.5166
 7219TIP3    H243073   0.086   0.206  12.520  1.1538 -1.1150 -0.3224
 7220TIP3   OH243074   4.139   2.240  14.113  0.0418  0.0649  0.0764
 7220TIP3    H143075   4.144   2.267  14.205  0.3538  1.6047 -0.3579
 7220TIP3    H243076   4.225   2.260  14.078  0.0078 -0.7718 -0.4908
 7221TIP3   OH243077   2.644   6.252  10.989 -0.2773  0.3748 -0.0404
 7221TIP3    H143078   2.592   6.277  10.912 -0.5062  1.3853  0.4275
 7221TIP3    H243079   2.688   6.333  11.016  2.8320 -0.7268 -1.3322
 7222TIP3   OH243080   1.662   5.185  14.278  0.6402  0.2857  0.1633
 7222TIP3    H143081   1.585   5.174  14.333  0.9872  3.7059  1.5920
 7222TIP3    H243082   1.726   5.122  14.313 -0.6050 -0.7130  0.7099
 7223TIP3   OH243083   6.222   5.852   5.823  0.0198  0.0200 -0.3084
 7223TIP3    H143084   6.292   5.845   5.888 -1.1700 -2.3599  0.8484
 7223TIP3    H243085   6.185   5.939   5.838  1.7793  0.7769 -0.0027
 7224TIP3   OH243086   2.691   4.666   4.067 -0.3720  0.6556  0.0908
 7224TIP3    H143087   2.776   4.707   4.087 -0.2581  0.1183  0.7714
 7224TIP3    H243088   2.627   4.735   4.083  0.0016  1.4506 -1.6431
 7225TIP3   OH243089   3.062   3.902  12.837  0.3424 -1.1316 -0.4448
 7225TIP3    H143090   3.104   3.917  12.752  0.8743  3.0174  0.3522
 7225TIP3    H243091   3.135   3.904  12.899 -0.4005 -0.3311  0.4097
 7226TIP3   OH243092   6.656   3.374   3.592 -0.2015  0.4521  0.0060
 7226TIP3    H143093   6.611   3.385   3.509 -1.2512  1.9535  0.7059
 7226TIP3    H243094   6.638   3.284   3.619 -2.5483  0.8793  0.0685
 7227TIP3   OH243095   0.142   5.908  11.928 -0.4135  0.0351  0.3147
 7227TIP3    H143096   0.188   5.912  11.844 -2.4503 -0.6995 -0.9029
 7227TIP3    H243097   0.198   5.852  11.982  0.8820  0.4162 -0.5676
 7228TIP3   OH243098   4.310   1.935   1.186  0.1787 -0.1442  0.5033
 7228TIP3    H143099   4.389   1.892   1.151 -0.3590 -0.9098  0.2066
 7228TIP3    H243100   4.239   1.903   1.130 -0.1954  1.4565  0.0155
 7229TIP3   OH243101   6.133   0.186  16.293  0.4590 -0.0103 -0.3126
 7229TIP3    H143102   6.064   0.215  16.354  0.9353  2.6069 -0.8851
 7229TIP3    H243103   6.086   0.168  16.212  0.1347 -0.9293  0.0711
 7230TIP3   OH243104   2.784   4.210  14.029 -0.3632  0.2466  0.1257
 7230TIP3    H143105   2.813   4.170  13.947 -0.8306 -0.6705  0.4004
 7230TIP3    H243106   2.826   4.159  14.097 -0.8884  0.2738  0.4777
 7231TIP3   OH243107   0.824   1.917   4.962 -0.4168  0.5082 -0.4198
 7231TIP3    H143108   0.771   1.983   5.007  0.9492  1.2423  0.1803
 7231TIP3    H243109   0.871   1.872   5.033 -0.3409 -0.2305 -0.9248
 7232TIP3   OH243110   5.106   4.196  15.820 -0.4570 -0.0563 -0.1085
 7232TIP3    H143111   5.186   4.213  15.871 -0.4413 -1.3073  0.3143
 7232TIP3    H243112   5.129   4.219  15.731  1.4255 -3.1953 -0.5843
 7233TIP3   OH243113   4.483   2.157  15.095  0.7821  0.7514  0.2259
 7233TIP3    H143114   4.465   2.129  15.185  0.2297  1.9598  0.5234
 7233TIP3    H243115   4.439   2.243  15.088  0.2109  0.3673 -1.4062
 7234TIP3   OH243116   1.299   3.007  16.234  0.1347 -0.0575  0.3075
 7234TIP3    H143117   1.302   2.958  16.153  0.1584 -1.0953  0.9183
 7234TIP3    H243118   1.334   3.094  16.212  1.8270 -0.8812 -0.3928
 7235TIP3   OH243119   4.146   4.920   3.739 -0.2800 -0.2141 -0.3958
 7235TIP3    H143120   4.124   4.963   3.656 -0.3139 -0.4203 -0.4952
 7235TIP3    H243121   4.094   4.967   3.804  0.4702  0.5724 -0.3473
 7236TIP3   OH243122   4.073   1.435  13.916  0.0469 -0.7422  0.4385
 7236TIP3    H143123   4.114   1.458  14.000 -1.5588  2.8419  0.4287
 7236TIP3    H243124   4.000   1.378  13.940  0.5641 -1.0744  1.2708
 7237TIP3   OH243125   3.245   0.542  17.010 -0.0203 -0.0233  0.0554
 7237TIP3    H143126   3.196   0.535  16.929 -2.0218  2.0319  0.9677
 7237TIP3    H243127   3.256   0.452  17.040 -0.8597 -0.6868 -1.5490
 7238TIP3   OH243128   5.251   1.000  17.003 -0.1431 -0.1570  0.3548
 7238TIP3    H143129   5.309   0.995  17.079 -0.5686 -0.6010  0.6530
 7238TIP3    H243130   5.310   1.012  16.929  0.2675  0.4632  0.7706
 7239TIP3   OH243131   3.761   6.400  10.555  0.7405 -0.6059  0.4224
 7239TIP3    H143132   3.758   6.428  10.463  1.3175 -0.5283  0.4228
 7239TIP3    H243133   3.837   6.343  10.560  0.6731 -0.6614  0.8401
 7240TIP3   OH243134   5.738   5.712   1.390  0.4448 -0.3715  0.2083
 7240TIP3    H143135   5.707   5.797   1.421 -1.2669 -0.6565 -0.5881
 7240TIP3    H243136   5.738   5.656   1.467 -0.5624 -0.2124  0.3335
 7241TIP3   OH243137   3.554   5.828  13.484 -0.7878  0.3208  0.8604
 7241TIP3    H143138   3.496   5.765  13.442 -2.4046  1.3751  1.4111
 7241TIP3    H243139   3.639   5.784  13.487 -1.6132 -1.4075  0.3138
 7242TIP3   OH243140   6.045   6.084  16.136  0.2909  0.6598  0.1744
 7242TIP3    H143141   5.962   6.066  16.092  0.2793  0.5215  0.2523
 7242TIP3    H243142   6.083   5.997  16.151 -0.0439  0.6584  1.0896
 7243TIP3   OH243143   1.198   4.307  11.293 -0.1077 -0.4146  0.0067
 7243TIP3    H143144   1.268   4.251  11.261  0.8572  0.8422 -0.1794
 7243TIP3    H243145   1.209   4.308  11.388  2.3005  2.3321 -0.1391
 7244TIP3   OH243146   4.068   3.609  15.356  0.3057  0.4295  0.5682
 7244TIP3    H143147   3.981   3.638  15.381 -0.6008 -1.6609  0.0504
 7244TIP3    H243148   4.053   3.532  15.301  2.4125  1.2712 -1.3481
 7245TIP3   OH243149   3.340   2.534  14.189 -0.2269  0.6610  0.0396
 7245TIP3    H143150   3.296   2.616  14.165 -1.9844 -0.3830 -0.4746
 7245TIP3    H243151   3.413   2.527  14.128 -0.5288  1.4530 -0.4356
 7246TIP3   OH243152   4.925   5.005   1.014  0.0521  0.1535  0.2459
 7246TIP3    H143153   4.971   5.084   1.041 -0.2116  0.4742 -0.2337
 7246TIP3    H243154   4.854   5.036   0.958 -0.3102 -0.3898  0.3920
 7247TIP3   OH243155   4.965   5.483  11.491  0.5105  0.3503 -0.4496
 7247TIP3    H143156   5.058   5.463  11.483  0.3125  0.0390 -3.0902
 7247TIP3    H243157   4.922   5.416  11.437 -1.3913 -0.2485  1.6645
 7248TIP3   OH243158   5.604   5.158  11.670 -0.0239  0.5609 -0.3323
 7248TIP3    H143159   5.573   5.194  11.753  0.1849 -1.2556  0.5743
 7248TIP3    H243160   5.566   5.071  11.666  0.4700  0.3890 -1.8765
 7249TIP3   OH243161   6.464   1.393   1.354  0.7133 -0.1572 -0.1644
 7249TIP3    H143162   6.423   1.478   1.340  0.3091 -0.7296 -3.0753
 7249TIP3    H243163   6.402   1.344   1.409  0.3413  0.9585  0.4289
 7250TIP3   OH243164   1.573   0.071   4.356  0.1398 -0.4082 -0.0701
 7250TIP3    H143165   1.667   0.071   4.341  0.4008 -0.8651  1.4383
 7250TIP3    H243166   1.553   0.157   4.393 -0.2703  0.1755 -1.5687
 7251TIP3   OH243167   1.869   0.589   0.963  0.8056  0.4017 -0.4098
 7251TIP3    H143168   1.904   0.500   0.957 -1.1889 -0.3269 -3.1786
 7251TIP3    H243169   1.932   0.643   0.915 -0.5007 -0.5161 -3.3649
 7252TIP3   OH243170   1.264   1.683  15.973  0.5710 -0.3239  0.2224
 7252TIP3    H143171   1.327   1.650  15.908  1.0487  0.2914  0.3688
 7252TIP3    H243172   1.282   1.631  16.052 -0.0721 -1.1381 -0.1446
 7253TIP3   OH243173   4.186   3.059   4.304  0.5132 -0.4752  0.1922
 7253TIP3    H143174   4.158   3.094   4.389 -0.4974 -2.3718  0.6960
 7253TIP3    H243175   4.243   2.985   4.327 -0.0992 -1.2659 -0.7687
 7254TIP3   OH243176   0.538   6.447  13.847 -0.2793  0.0087  0.5204
 7254TIP3    H143177   0.591   6.388  13.794  0.0175 -0.3106  1.1606
 7254TIP3    H243178   0.508   6.514  13.786  0.8847  0.2082  0.1475
 7255TIP3   OH243179   5.955   4.006  12.420  0.3328 -0.0258  0.0673
 7255TIP3    H143180   5.959   3.911  12.406 -1.0883 -0.3134  1.3925
 7255TIP3    H243181   5.950   4.016  12.515  0.0415  1.3721 -0.0748
 7256TIP3   OH243182   2.296   4.506   0.368  0.2378 -0.0271 -0.1051
 7256TIP3    H143183   2.238   4.581   0.357  0.8299  0.2876 -1.3290
 7256TIP3    H243184   2.384   4.543   0.371  0.6058 -0.6864 -1.5926
 7257TIP3   OH243185   5.693   1.843  12.141 -0.6148 -0.1826 -0.1850
 7257TIP3    H143186   5.601   1.852  12.166 -0.6167 -1.0102  0.1322
 7257TIP3    H243187   5.690   1.828  12.046 -0.9047 -1.5170  0.0157
 7258TIP3   OH243188   5.461   5.597   4.856  0.0068  0.2879  0.1991
 7258TIP3    H143189   5.404   5.530   4.819 -1.9065  1.3522  1.0789
 7258TIP3    H243190   5.481   5.655   4.783  0.7130 -0.5819 -0.3103
 7259TIP3   OH243191   3.037   3.840  11.831  0.2123 -0.2022  0.1486
 7259TIP3    H143192   3.011   3.763  11.780 -0.4220  0.9903 -1.4076
 7259TIP3    H243193   2.974   3.845  11.902 -0.6150 -0.3246 -0.5658
 7260TIP3   OH243194   2.045   4.848   0.671 -0.9869  0.7764  0.1912
 7260TIP3    H143195   2.114   4.879   0.611  0.2869  2.0516  2.1728
 7260TIP3    H243196   2.017   4.927   0.718 -2.1897 -0.1077  1.0318
 7261TIP3   OH243197   3.263   1.743   2.977 -0.3891  0.2512  0.1311
 7261TIP3    H143198   3.335   1.786   3.024  0.8219  0.8358 -2.0987
 7261TIP3    H243199   3.303   1.665   2.938 -0.9746  0.5065 -1.0243
 7262TIP3   OH243200   3.086   6.399   4.647  0.1219 -0.0136 -0.0513
 7262TIP3    H143201   3.055   6.313   4.619  0.2645 -0.0768 -0.0161
 7262TIP3    H243202   3.022   6.461   4.611 -0.5375 -0.2041  0.7637
 7263TIP3   OH243203   2.242   1.199  10.339  0.7010  0.3663 -0.2597
 7263TIP3    H143204   2.300   1.134  10.300 -0.5419 -0.1400 -1.3393
 7263TIP3    H243205   2.299   1.252  10.396  1.8629 -1.1955  0.0833
 7264TIP3   OH243206   5.973   1.812   1.506 -0.0123 -0.2588  0.4781
 7264TIP3    H143207   6.001   1.757   1.578 -0.0544 -1.2859 -0.2668
 7264TIP3    H243208   5.877   1.814   1.513 -0.1000 -1.2608 -0.1584
 7265TIP3   OH243209   0.584   1.244  17.016  0.0608 -0.3681  0.1586
 7265TIP3    H143210   0.491   1.245  16.991 -0.1883 -2.5783  0.7349
 7265TIP3    H243211   0.630   1.270  16.936 -1.0496  1.3348  0.0205
 7266TIP3   OH243212   5.757   4.071  11.387 -0.4011 -0.1653 -0.2753
 7266TIP3    H143213   5.761   4.153  11.436  1.9145 -0.8985  0.9258
 7266TIP3    H243214   5.820   4.082  11.316 -0.0216 -0.8964 -0.0682
 7267TIP3   OH243215   4.380   6.118   5.255 -0.2098  0.3631  0.4384
 7267TIP3    H143216   4.394   6.204   5.293 -2.1772  1.3108 -0.7743
 7267TIP3    H243217   4.314   6.077   5.311  1.8051 -1.0718  1.9135
 7268TIP3   OH243218   4.536   1.181   3.042  0.0207  0.5710  0.2146
 7268TIP3    H143219   4.470   1.249   3.031 -1.1739 -0.8016 -1.7103
 7268TIP3    H243220   4.562   1.158   2.952  3.1825  1.0627  0.8813
 7269TIP3   OH243221   0.947   2.541   0.860  0.3208 -0.6770  0.3556
 7269TIP3    H143222   0.941   2.552   0.955 -0.1910 -0.0795  0.2583
 7269TIP3    H243223   0.899   2.615   0.824  0.9950 -0.5868 -0.3842
 7270TIP3   OH243224   1.102   5.890   3.035  0.3295  0.0639  0.3368
 7270TIP3    H143225   1.052   5.900   3.116 -0.6471  0.3462 -0.2874
 7270TIP3    H243226   1.065   5.955   2.976  0.9981 -0.1821 -0.3647
 7271TIP3   OH243227   4.272   4.025   2.779  0.3865 -0.7193 -0.2756
 7271TIP3    H143228   4.195   3.970   2.768  0.0858 -0.1824 -0.8970
 7271TIP3    H243229   4.318   3.987   2.854 -0.4296 -1.0933  0.0465
 7272TIP3   OH243230   5.539   1.440  13.185  0.2192  0.0679  0.2591
 7272TIP3    H143231   5.586   1.408  13.262 -1.9490 -1.7122  0.9715
 7272TIP3    H243232   5.458   1.478  13.220 -0.1379  0.5703 -1.0562
 7273TIP3   OH243233   6.277   1.461   1.967 -0.2273  0.7585  0.1730
 7273TIP3    H143234   6.345   1.399   1.994  0.0559  1.4162  1.0328
 7273TIP3    H243235   6.212   1.458   2.037  0.0276  1.7712  0.4679
 7274TIP3   OH243236   1.975   4.751   1.329 -0.1911  0.1689  0.3081
 7274TIP3    H143237   2.057   4.776   1.287 -0.9967  0.7580 -1.0136
 7274TIP3    H243238   1.944   4.677   1.277 -1.6038  1.4135 -0.7362
 7275TIP3   OH243239   1.389   2.929   6.446 -0.5808  0.0403  0.3190
 7275TIP3    H143240   1.376   2.909   6.354  0.3002 -0.1706  0.2267
 7275TIP3    H243241   1.372   2.846   6.491  2.8442 -1.0276 -0.0431
 7276TIP3   OH243242   2.714   2.519  15.220 -0.3651  0.0707 -0.0894
 7276TIP3    H143243   2.656   2.522  15.297 -1.2019 -1.6910 -0.6058
 7276TIP3    H243244   2.675   2.454  15.163 -0.2081  1.8896 -2.4274
 7277TIP3   OH243245   2.674   6.780  14.975  0.2213  0.1333 -0.1294
 7277TIP3    H143246   2.760   6.798  14.937  0.6092 -1.2670  0.0156
 7277TIP3    H243247   2.680   6.815  15.064 -0.1357  1.9792 -0.7929
 7278TIP3   OH243248   2.707   3.182   3.218  0.0073  0.1258 -0.4756
 7278TIP3    H143249   2.686   3.090   3.237 -0.5096  0.4236  0.4519
 7278TIP3    H243250   2.800   3.190   3.239 -0.2891  0.1675  0.8809
 7279TIP3   OH243251   2.212   6.409  15.146  0.0943  0.8373 -0.0481
 7279TIP3    H143252   2.234   6.501  15.160  0.8035  0.6501  0.1033
 7279TIP3    H243253   2.247   6.364  15.222  2.3897  0.0586 -1.4559
 7280TIP3   OH243254   3.632   1.260  15.536 -0.2441  0.4846  0.0137
 7280TIP3    H143255   3.549   1.258  15.583 -0.1270 -0.4760  0.1991
 7280TIP3    H243256   3.690   1.205  15.588  0.0834 -0.0324 -0.8755
 7281TIP3   OH243257   1.529   4.029  16.880 -0.3991 -0.5047 -0.3170
 7281TIP3    H143258   1.580   3.992  16.951 -0.5427 -1.9698 -0.9374
 7281TIP3    H243259   1.472   4.093  16.922 -1.2939 -2.1427  1.0797
 7282TIP3   OH243260   5.690   3.942  16.861  0.4165 -0.0110  0.2347
 7282TIP3    H143261   5.635   3.933  16.783  2.1558 -0.3781 -1.0078
 7282TIP3    H243262   5.679   3.859  16.908 -0.9975  0.3883  0.6841
 7283TIP3   OH243263   3.049   4.287   0.581  0.1388 -0.5396  0.0952
 7283TIP3    H143264   3.009   4.229   0.646 -1.0284  1.6128  1.4470
 7283TIP3    H243265   3.142   4.288   0.604 -0.1417 -0.3778  1.3556
 7284TIP3   OH243266   5.615   3.164  16.761 -0.2735  0.2880 -0.0658
 7284TIP3    H143267   5.676   3.127  16.825  1.5868  0.4786 -1.6208
 7284TIP3    H243268   5.584   3.245  16.802  1.5301  0.8451  0.2942
 7285TIP3   OH243269   0.471   5.315  12.907 -0.3311 -0.0583  0.3876
 7285TIP3    H143270   0.400   5.282  12.962 -0.7775  3.6873  2.3819
 7285TIP3    H243271   0.437   5.310  12.818 -1.8593 -1.1039  0.9858
 7286TIP3   OH243272   2.530   0.714   3.063  0.1823 -0.0690 -0.2559
 7286TIP3    H143273   2.443   0.753   3.054  0.5737  0.5755 -1.6163
 7286TIP3    H243274   2.526   0.633   3.013  0.5465  0.3184 -0.9351
 7287TIP3   OH243275   4.784   1.366  13.409 -0.2845 -0.1584 -0.0812
 7287TIP3    H143276   4.812   1.443  13.458 -1.4571 -0.6885  1.4970
 7287TIP3    H243277   4.719   1.400  13.346 -3.0143 -0.1014  2.5228
 7288TIP3   OH243278   5.459   1.842  16.540 -0.1866 -0.2815  0.6538
 7288TIP3    H143279   5.380   1.792  16.520  0.4243 -1.7314  1.6267
 7288TIP3    H243280   5.496   1.864  16.455  0.1920 -2.6748  0.1013
 7289TIP3   OH243281   4.708   2.899  11.445 -0.0437 -0.1648 -1.1651
 7289TIP3    H143282   4.626   2.855  11.464 -0.2880  1.1744  1.2683
 7289TIP3    H243283   4.771   2.828  11.431 -0.5859 -1.3718  1.7914
 7290TIP3   OH243284   4.763   6.073   3.860 -0.2451  0.1200  0.0058
 7290TIP3    H143285   4.719   6.117   3.932 -1.0038 -0.2783 -0.2088
 7290TIP3    H243286   4.704   6.083   3.785 -0.2250 -0.8628 -0.1558
 7291TIP3   OH243287   3.764   4.275  11.133  0.3435 -0.3132  0.2741
 7291TIP3    H143288   3.669   4.264  11.138 -0.0852  2.7686  0.8146
 7291TIP3    H243289   3.786   4.253  11.043 -1.0248 -0.2708 -0.0930
 7292TIP3   OH243290   6.589   1.496   2.562 -0.1355  0.7750 -0.2038
 7292TIP3    H143291   6.623   1.507   2.651  0.9473 -1.0443 -0.3331
 7292TIP3    H243292   6.494   1.498   2.572 -0.0403 -0.0206  1.1039
 7293TIP3   OH243293   4.774   4.725  16.278 -0.1222  0.4412 -0.4023
 7293TIP3    H143294   4.820   4.808  16.290  0.4272  0.3315 -1.6103
 7293TIP3    H243295   4.710   4.722  16.349  0.0957  1.7227 -0.1376
 7294TIP3   OH243296   5.728   5.792  13.846 -0.3202 -0.2557  0.2389
 7294TIP3    H143297   5.759   5.786  13.937 -0.5973 -2.0281  0.2445
 7294TIP3    H243298   5.635   5.809  13.853  0.0502  2.1119  0.2322
 7295TIP3   OH243299   2.452   6.121   5.102  0.0629 -0.3448 -0.6250
 7295TIP3    H143300   2.419   6.078   5.024 -0.2821  0.7964 -1.1356
 7295TIP3    H243301   2.497   6.199   5.070 -0.6958  0.5202  0.3314
 7296TIP3   OH243302   3.635   3.581  13.982 -0.1753  0.3151  0.6823
 7296TIP3    H143303   3.552   3.580  13.934  1.0798  0.7301 -1.6074
 7296TIP3    H243304   3.664   3.490  13.980  0.7809  0.6243 -1.0801
 7297TIP3   OH243305   4.126   1.643   0.458 -0.0024 -0.1101  0.0863
 7297TIP3    H143306   4.201   1.598   0.422  1.7186  0.3703  2.7496
 7297TIP3    H243307   4.107   1.596   0.540 -0.8343  1.4040  0.8149
 7298TIP3   OH243308   1.128   2.964  11.557 -0.1256 -0.0397 -0.2625
 7298TIP3    H143309   1.139   3.045  11.506 -0.3904 -0.8373 -1.6209
 7298TIP3    H243310   1.060   2.985  11.620 -0.1175  0.8371 -0.5252
 7299TIP3   OH243311   2.844   3.644   1.449  0.2627 -0.0546  0.7061
 7299TIP3    H143312   2.804   3.728   1.426  2.4151  1.0337  0.7052
 7299TIP3    H243313   2.887   3.660   1.533 -0.8939 -1.7413  1.6818
 7300TIP3   OH243314   2.393   5.346  11.334 -0.8173 -0.0280  0.7545
 7300TIP3    H143315   2.304   5.362  11.365 -0.4264 -1.5266  2.8549
 7300TIP3    H243316   2.410   5.254  11.355  1.5613  0.4773  1.3431
 7301TIP3   OH243317   1.176   2.609  13.078 -0.1390 -0.4508  0.2738
 7301TIP3    H143318   1.164   2.613  13.173  0.4132 -1.5016  0.3977
 7301TIP3    H243319   1.171   2.516  13.057  3.0757 -0.6274 -0.2548
 7302TIP3   OH243320   4.219   1.986   5.416  0.4429 -0.2943 -0.3091
 7302TIP3    H143321   4.278   1.911   5.409  0.2062 -0.4678 -0.4905
 7302TIP3    H243322   4.252   2.036   5.490  0.3314 -0.8226  0.1033
 7303TIP3   OH243323   0.198   3.236  11.346 -0.3944  0.5716  0.2786
 7303TIP3    H143324   0.109   3.270  11.351 -0.2011  1.0628  0.3916
 7303TIP3    H243325   0.229   3.263  11.259 -0.3948  0.3025  0.1940
 7304TIP3   OH243326   6.712   0.807   1.692 -0.6111 -0.3951 -0.2231
 7304TIP3    H143327   6.660   0.755   1.631  0.6656  0.3671 -2.0742
 7304TIP3    H243328   6.647   0.852   1.746 -1.8573 -0.4001 -1.6300
 7305TIP3   OH243329   1.436   3.452   5.679 -0.0387 -0.0600 -0.4073
 7305TIP3    H143330   1.363   3.390   5.681 -0.6238  0.6154  1.2308
 7305TIP3    H243331   1.399   3.533   5.646  0.6732 -0.4711 -2.3225
 7306TIP3   OH243332   0.650   3.998  16.116  0.2822 -0.1703  0.3137
 7306TIP3    H143333   0.644   4.046  16.034 -0.4768  2.1922  1.6728
 7306TIP3    H243334   0.673   3.909  16.089  1.6019  0.8452 -2.3380
 7307TIP3   OH243335   3.684   6.338  11.877  0.2429 -0.1603 -0.1010
 7307TIP3    H143336   3.731   6.419  11.898 -1.0267  0.5847 -0.0190
 7307TIP3    H243337   3.682   6.335  11.781 -2.4246  1.6249 -0.2022
 7308TIP3   OH243338   2.494   5.614  16.000  0.2781 -0.2475 -0.0203
 7308TIP3    H143339   2.491   5.519  16.008 -0.4264 -0.3508 -1.2159
 7308TIP3    H243340   2.563   5.641  16.060  0.7098 -1.5363  0.0985
 7309TIP3   OH243341   5.814   0.657  15.742  0.1014 -0.2836 -0.0873
 7309TIP3    H143342   5.898   0.636  15.781  0.3889 -0.0641 -0.5809
 7309TIP3    H243343   5.809   0.753  15.745 -0.2957 -0.3134  0.2844
 7310TIP3   OH243344   5.723   2.778  13.960 -0.0021  0.0487 -0.2786
 7310TIP3    H143345   5.808   2.742  13.983 -0.1433  0.5812  1.1993
 7310TIP3    H243346   5.743   2.857  13.910  0.4776  1.2408  1.6642
 7311TIP3   OH243347   5.589   6.434   0.062 -0.3410  0.5587  0.1855
 7311TIP3    H143348   5.550   6.379  -0.005  0.7032 -2.2362  1.6906
 7311TIP3    H243349   5.527   6.433   0.135  0.2252  0.3407  0.6814
 7312TIP3   OH243350   4.131   2.567   2.059 -0.1517  0.0393  0.7962
 7312TIP3    H143351   4.040   2.586   2.035  0.3925 -0.3231 -1.8619
 7312TIP3    H243352   4.183   2.603   1.988  1.7199 -0.8962  1.6125
 7313TIP3   OH243353   0.834   4.461  15.057 -0.2268 -0.0752 -0.2594
 7313TIP3    H143354   0.886   4.383  15.040 -0.2090 -0.0659 -0.2481
 7313TIP3    H243355   0.746   4.429  15.076 -0.6123 -0.0257 -1.7825
 7314TIP3   OH243356   4.685   6.125  11.768 -0.7438  0.1957  0.0866
 7314TIP3    H143357   4.775   6.138  11.799 -0.9932  1.7144  0.2611
 7314TIP3    H243358   4.686   6.038  11.728  1.1770  0.7566 -1.2521
 7315TIP3   OH243359   5.176   1.565  10.817  0.3590 -0.2757  0.2930
 7315TIP3    H143360   5.172   1.470  10.809 -0.6124 -0.1913 -0.4791
 7315TIP3    H243361   5.258   1.589  10.775 -0.1204 -0.6658 -0.9076
 7316TIP3   OH243362   2.953   6.702  13.724  0.1578 -0.3083  1.0044
 7316TIP3    H143363   2.912   6.746  13.650 -0.1906  1.0522  1.9546
 7316TIP3    H243364   2.944   6.609  13.705 -0.4556  0.0014 -0.3589
 7317TIP3   OH243365   0.900   2.492   4.018 -0.0561  0.3359  0.5531
 7317TIP3    H143366   0.911   2.400   4.043  1.2129  0.2143 -0.3341
 7317TIP3    H243367   0.870   2.535   4.098 -2.5411 -1.1456  0.5124
 7318TIP3   OH243368   1.043   1.620   1.979 -0.4213  0.1666  0.1921
 7318TIP3    H143369   1.028   1.526   1.968  0.8827  0.1171 -1.5124
 7318TIP3    H243370   0.990   1.661   1.911 -1.7110  0.7823  1.5024
 7319TIP3   OH243371   4.742   6.448  17.115  0.2041 -0.3124  0.0700
 7319TIP3    H143372   4.806   6.456  17.185 -0.2861  1.7836  0.3545
 7319TIP3    H243373   4.739   6.354  17.096  0.8687 -0.8795  2.3589
 7320TIP3   OH243374   5.559   6.063  13.893  0.0189  0.0435 -0.2871
 7320TIP3    H143375   5.602   6.071  13.978  1.0970  0.7905 -0.8852
 7320TIP3    H243376   5.587   6.141  13.844  0.0210 -0.7453 -1.5932
 7321TIP3   OH243377   5.331   4.859  13.619 -0.2266  0.5876 -0.4766
 7321TIP3    H143378   5.383   4.786  13.653  1.1391  1.1296 -1.2879
 7321TIP3    H243379   5.267   4.877  13.687 -0.5280 -1.2842 -0.2068
 7322TIP3   OH243380   3.858   1.057  13.595  0.0347  0.5045  0.6076
 7322TIP3    H143381   3.815   0.973  13.613 -0.9052  1.1430  1.4065
 7322TIP3    H243382   3.799   1.103  13.535  0.0000  1.0519  1.0553
 7323TIP3   OH243383   1.304   1.635   3.887  0.4218  0.0731  0.3752
 7323TIP3    H143384   1.218   1.617   3.926  0.4666 -1.0759 -0.0249
 7323TIP3    H243385   1.338   1.549   3.864  1.3129  0.5872 -0.2709
 7324TIP3   OH243386   6.619   5.767   0.863  0.0843 -1.0905 -0.4854
 7324TIP3    H143387   6.572   5.685   0.848 -0.9621 -0.6634  0.3000
 7324TIP3    H243388   6.591   5.795   0.950  1.3668 -0.5098 -0.2377
 7325TIP3   OH243389   3.430   5.713   5.151 -0.1817  0.4150  0.4798
 7325TIP3    H143390   3.452   5.790   5.203 -1.0419  0.2084  1.1584
 7325TIP3    H243391   3.498   5.710   5.083 -1.2371  2.9365 -0.8151
 7326TIP3   OH243392   4.523   2.992  15.845 -0.6029 -0.1229  0.2025
 7326TIP3    H143393   4.615   2.966  15.832 -1.0080 -0.7445 -1.8035
 7326TIP3    H243394   4.519   3.021  15.936  1.6487  0.1854  0.2709
 7327TIP3   OH243395   2.168   3.012  16.439  0.7139  0.2901 -0.2285
 7327TIP3    H143396   2.163   2.919  16.461 -1.2768  0.6066  0.9237
 7327TIP3    H243397   2.244   3.019  16.382  2.7587 -1.5295  2.0622
 7328TIP3   OH243398   5.671   4.180  12.403  0.1442 -0.2884  0.5132
 7328TIP3    H143399   5.705   4.129  12.476 -1.3521 -0.5817  1.0332
 7328TIP3    H243400   5.603   4.235  12.441  0.3116  0.6112 -0.4148
 7329TIP3   OH243401   1.926   2.409   1.810 -0.1553 -0.3209 -0.0109
 7329TIP3    H143402   1.915   2.410   1.715 -1.9738 -1.8150  0.1294
 7329TIP3    H243403   1.929   2.316   1.832 -0.5122 -0.0026  1.4716
 7330TIP3   OH243404   6.571   3.207  15.098  0.2169  0.3388 -0.1577
 7330TIP3    H143405   6.597   3.204  15.190 -1.3060  1.5917  0.3633
 7330TIP3    H243406   6.482   3.172  15.098 -0.8648  2.8844 -0.6649
 7331TIP3   OH243407   5.775   0.632  16.957 -0.0253 -0.1979 -0.7217
 7331TIP3    H143408   5.805   0.722  16.945 -0.7458  0.2233  0.3792
 7331TIP3    H243409   5.811   0.584  16.883 -0.3996  1.1885 -1.8486
 7332TIP3   OH243410   3.894   1.770  11.932 -1.1080 -0.0876 -0.1982
 7332TIP3    H143411   3.960   1.812  11.987  1.7022  0.9874 -3.9848
 7332TIP3    H243412   3.910   1.676  11.944 -1.3549  0.0699  1.5990
 7333TIP3   OH243413   2.075   1.639   3.660 -0.7520 -0.2774 -0.6152
 7333TIP3    H143414   2.078   1.723   3.704 -0.7526 -1.4337  1.7330
 7333TIP3    H243415   2.157   1.596   3.682 -0.5686 -0.7590 -2.1168
 7334TIP3   OH243416   2.277   0.742   5.212 -0.6326 -0.1341  0.8861
 7334TIP3    H143417   2.333   0.799   5.159  0.2615 -1.8527 -0.1116
 7334TIP3    H243418   2.320   0.656   5.210 -2.2478 -1.0325  1.7928
 7335TIP3   OH243419   5.168   0.463   1.589 -0.1781 -0.2542  0.0738
 7335TIP3    H143420   5.073   0.476   1.590 -0.8899 -4.2561  0.0697
 7335TIP3    H243421   5.196   0.496   1.504 -1.3814  1.6456  0.3612
 7336TIP3   OH243422   4.481   3.320  14.687  0.4825 -0.0371 -0.2399
 7336TIP3    H143423   4.426   3.383  14.733  2.2382  0.5888  1.1149
 7336TIP3    H243424   4.463   3.336  14.594 -0.5199  1.1416  0.1274
 7337TIP3   OH243425   4.888   1.974   1.914 -0.1767  0.2115 -0.1154
 7337TIP3    H143426   4.802   1.936   1.897  0.5926 -1.9064  0.3801
 7337TIP3    H243427   4.885   2.060   1.871 -1.7557 -0.7372 -2.1090
 7338TIP3   OH243428   5.217   4.750   0.369 -0.2773  0.0410 -0.5871
 7338TIP3    H143429   5.156   4.801   0.423  1.4037  1.8008 -0.2101
 7338TIP3    H243430   5.238   4.808   0.296  0.4526 -0.7606 -1.0314
 7339TIP3   OH243431   5.791   3.763   2.653 -0.1434 -0.2127 -0.1538
 7339TIP3    H143432   5.704   3.759   2.692 -0.5169  0.3389 -0.9019
 7339TIP3    H243433   5.780   3.725   2.566  0.1815  0.5544 -0.5429
 7340TIP3   OH243434   2.731   4.057   5.288  0.2311 -0.0623  0.1778
 7340TIP3    H143435   2.699   3.992   5.351 -1.8423  0.7738  0.0674
 7340TIP3    H243436   2.719   4.016   5.203  1.4159 -0.5216  0.2117
 7341TIP3   OH243437   2.389   0.468  11.355 -0.3336 -0.4642  0.3535
 7341TIP3    H143438   2.390   0.379  11.390  0.5431 -1.2880 -1.6191
 7341TIP3    H243439   2.351   0.459  11.268  1.8499  0.6526 -0.8122
 7342TIP3   OH243440   5.333   3.399  13.291  0.4307 -0.2747  0.8118
 7342TIP3    H143441   5.298   3.448  13.365 -0.2103  1.1128 -0.3716
 7342TIP3    H243442   5.412   3.446  13.265 -0.7526  0.8560 -0.9889
 7343TIP3   OH243443   0.755   2.072  16.865 -0.1774 -0.4144  0.0272
 7343TIP3    H143444   0.737   2.080  16.959 -1.4229 -0.7981 -0.1577
 7343TIP3    H243445   0.682   2.020  16.831 -1.0529  1.7247 -1.5677
 7344TIP3   OH243446   3.978   2.927  15.629 -0.7111 -0.0812 -0.0652
 7344TIP3    H143447   4.025   3.002  15.663 -2.5743  2.4073 -2.5575
 7344TIP3    H243448   4.043   2.857  15.625  1.5235  1.8339  0.8348
 7345TIP3   OH243449   1.130   4.671  14.313 -0.1873 -0.5792  0.0190
 7345TIP3    H143450   1.110   4.730  14.386  2.1027 -0.3468  0.5171
 7345TIP3    H243451   1.106   4.721  14.235 -1.2871 -0.2637  0.5380
 7346TIP3   OH243452   6.141   3.182  13.967  0.3697  0.3021 -0.5346
 7346TIP3    H143453   6.052   3.149  13.975 -0.1443  1.5480 -0.7787
 7346TIP3    H243454   6.164   3.165  13.875  0.8736 -1.1436 -0.1589
 7347TIP3   OH243455   5.763   5.284   3.661  0.0033 -0.0243  0.0566
 7347TIP3    H143456   5.763   5.281   3.565 -0.6160 -0.4060  0.0661
 7347TIP3    H243457   5.826   5.217   3.688  0.6326  0.4991 -0.0897
 7348TIP3   OH243458   5.423   6.430  15.567 -0.4027  0.1468  0.6286
 7348TIP3    H143459   5.390   6.341  15.557 -0.7124 -0.0273  2.7258
 7348TIP3    H243460   5.389   6.459  15.651  1.0908  1.6314  0.7843
 7349TIP3   OH243461   0.059   5.765  13.311 -0.1718  0.0812 -0.3131
 7349TIP3    H143462  -0.026   5.807  13.295  0.3191  0.8263 -1.0852
 7349TIP3    H243463   0.116   5.837  13.339 -0.2411 -0.7120  2.1274
 7350TIP3   OH243464   0.597   5.160   3.211 -0.2067  0.4513 -0.4221
 7350TIP3    H143465   0.558   5.222   3.273  0.1951  0.8470 -0.5611
 7350TIP3    H243466   0.546   5.080   3.222 -1.2484  1.0457 -0.7906
 7351TIP3   OH243467   4.776   2.801  10.980 -0.5013  0.7022  0.0516
 7351TIP3    H143468   4.859   2.792  10.933 -0.0679  1.7961  0.5832
 7351TIP3    H243469   4.724   2.725  10.952  1.0795 -0.6154  0.5444
 7352TIP3   OH243470   4.364   4.304   4.086 -0.3616  0.3350 -0.3288
 7352TIP3    H143471   4.432   4.372   4.085  0.6159 -0.5856 -2.1466
 7352TIP3    H243472   4.363   4.272   4.176  1.8895  0.1556 -0.3046
 7353TIP3   OH243473   0.177   5.037  16.916 -0.2703 -0.4481  0.7207
 7353TIP3    H143474   0.206   5.009  16.830 -2.6455 -0.7542 -0.0624
 7353TIP3    H243475   0.081   5.030  16.913 -0.4630 -0.1091  3.2536
 7354TIP3   OH243476   2.568   3.131  15.991  0.0659 -0.0192  0.0700
 7354TIP3    H143477   2.572   3.098  15.901  3.8147 -1.5428  0.6040
 7354TIP3    H243478   2.494   3.085  16.030 -1.0909  0.0113 -1.9399
 7355TIP3   OH243479   4.120   3.940   5.193 -0.1766  0.3651  0.4433
 7355TIP3    H143480   4.141   4.006   5.127  4.5582  0.3355  1.5401
 7355TIP3    H243481   4.088   3.990   5.268 -1.0776  0.8763 -0.2646
 7356TIP3   OH243482   3.026   4.167  10.459  0.4259  0.2277  0.3005
 7356TIP3    H143483   2.974   4.198  10.385 -0.4410  2.0677  1.6153
 7356TIP3    H243484   3.105   4.222  10.457  1.2173 -0.8796 -0.2185
 7357TIP3   OH243485   0.523   1.464   6.296  0.4775 -0.0441 -0.3369
 7357TIP3    H143486   0.543   1.428   6.382  0.7475 -3.8534 -1.7818
 7357TIP3    H243487   0.602   1.511   6.270  0.7187  0.3747  1.1041
 7358TIP3   OH243488   4.667   6.175   3.178  0.3184 -0.1989 -0.0383
 7358TIP3    H143489   4.625   6.098   3.141 -0.2125  1.1734 -2.5369
 7358TIP3    H243490   4.761   6.160   3.167  0.3889 -1.5840  1.9809
 7359TIP3   OH243491   4.568   0.446  10.846  0.1292  0.2493 -0.4277
 7359TIP3    H143492   4.515   0.443  10.766 -0.2421  1.2795 -0.2347
 7359TIP3    H243493   4.631   0.516  10.830 -0.3183  0.8572  0.3932
 7360TIP3   OH243494   3.328   0.193   4.389 -0.4651 -0.5901 -0.3137
 7360TIP3    H143495   3.322   0.104   4.355 -1.2902 -1.2697  1.4881
 7360TIP3    H243496   3.420   0.204   4.412 -0.6252 -1.5691  0.8846
 7361TIP3   OH243497   0.064   0.336  11.593 -0.1766  0.4372  0.3414
 7361TIP3    H143498   0.119   0.391  11.537  1.4639 -0.8551  0.5986
 7361TIP3    H243499   0.114   0.327  11.674 -1.1947 -0.0844  0.9310
 7362TIP3   OH243500   2.554   5.402   2.163  0.0188 -0.2449  0.0357
 7362TIP3    H143501   2.594   5.462   2.227 -1.2420  0.0804  0.5558
 7362TIP3    H243502   2.529   5.459   2.090  2.3662 -0.7578 -1.2740
 7363TIP3   OH243503   2.868   5.098  15.489  0.0548  0.1762  0.1510
 7363TIP3    H143504   2.916   5.169  15.447  0.3980  0.0381  0.3115
 7363TIP3    H243505   2.777   5.130  15.493  0.3489  0.9716  0.9852
 7364TIP3   OH243506   0.785   1.366  13.536 -0.3098  0.6013  0.2767
 7364TIP3    H143507   0.767   1.372  13.630 -0.8026 -0.3363  0.2582
 7364TIP3    H243508   0.710   1.319  13.501 -0.5896  1.7868 -0.7487
 7365TIP3   OH243509   1.882   4.758   4.082  0.1830  0.4802 -0.3729
 7365TIP3    H143510   1.913   4.831   4.028 -1.6502  0.8257 -1.0052
 7365TIP3    H243511   1.939   4.685   4.058  0.0619  0.8930 -2.0192
 7366TIP3   OH243512   6.249   4.756  11.398  0.1376  0.4948  0.4687
 7366TIP3    H143513   6.222   4.670  11.431 -2.2820  0.8484 -0.4182
 7366TIP3    H243514   6.168   4.797  11.368  1.1751  3.2066  1.0546
 7367TIP3   OH243515   6.635   6.041  15.957  0.2749  0.0361  0.4509
 7367TIP3    H143516   6.559   5.987  15.980  0.0132  0.9656  1.9629
 7367TIP3    H243517   6.602   6.131  15.957  0.8858  0.2925 -1.1718
 7368TIP3   OH243518   3.618   0.531  14.823  0.0203 -0.0013  0.3901
 7368TIP3    H143519   3.677   0.592  14.867 -0.1981  0.1055  0.5374
 7368TIP3    H243520   3.610   0.566  14.734  0.6145 -0.3251  0.1989
 7369TIP3   OH243521   0.019   5.499   5.310  0.3264  0.6390 -0.0197
 7369TIP3    H143522   0.104   5.475   5.274 -0.6271  0.5536 -2.3998
 7369TIP3    H243523   0.032   5.585   5.349  1.6234  0.3388  0.2605
 7370TIP3   OH243524   3.103   5.225   3.431 -0.4167 -0.0098 -0.1413
 7370TIP3    H143525   3.170   5.269   3.378 -0.4046 -1.5534 -1.4876
 7370TIP3    H243526   3.131   5.240   3.521  1.5551 -0.2985 -0.6565
 7371TIP3   OH243527   1.641   1.683  11.530  0.4810 -0.0379  0.1143
 7371TIP3    H143528   1.609   1.612  11.586  1.3965 -0.2707  0.3537
 7371TIP3    H243529   1.714   1.721  11.578  0.9066  0.1418 -0.6567
 7372TIP3   OH243530   5.838   2.588   1.463  0.3875 -0.2125  0.0213
 7372TIP3    H143531   5.865   2.679   1.452  0.7544 -0.1718  1.1133
 7372TIP3    H243532   5.920   2.539   1.469  0.3027 -0.2123  2.3839
 7373TIP3   OH243533   5.808   3.334  11.523  0.2544 -0.2471  0.0218
 7373TIP3    H143534   5.846   3.249  11.545 -0.1720 -0.0733  1.5439
 7373TIP3    H243535   5.867   3.398  11.562 -1.0258  0.0445  1.6299
 7374TIP3   OH243536   2.521   1.624   4.899  0.2757 -0.1263 -0.7564
 7374TIP3    H143537   2.439   1.672   4.914 -1.1700 -2.7350  0.4705
 7374TIP3    H243538   2.560   1.616   4.986  0.7507 -0.7402 -1.0188
 7375TIP3   OH243539   5.964   0.545  14.234 -0.2917 -0.3907 -0.2118
 7375TIP3    H143540   6.011   0.623  14.207  0.1320 -0.8099 -0.7072
 7375TIP3    H243541   5.974   0.485  14.161 -0.1339 -1.1175  0.3942
 7376TIP3   OH243542   0.418   1.867   5.492  0.9581 -0.0863 -0.2299
 7376TIP3    H143543   0.484   1.874   5.562  0.1820 -1.4767  0.6658
 7376TIP3    H243544   0.456   1.806   5.429  0.4330 -1.0761  0.4055
 7377TIP3   OH243545   1.557   0.615  14.509 -0.0546  0.1638 -0.0952
 7377TIP3    H143546   1.595   0.585  14.592  1.5864  1.3412 -0.3627
 7377TIP3    H243547   1.631   0.616  14.448 -1.5039 -2.2756 -2.1274
 7378TIP3   OH243548   4.121   6.159   2.545  0.2853  0.4748 -0.0595
 7378TIP3    H143549   4.059   6.089   2.525  0.9814 -0.5405  1.1422
 7378TIP3    H243550   4.106   6.178   2.638  1.8210  0.1048  0.2962
 7379TIP3   OH243551   4.006   6.567   5.875 -0.3014  0.2840 -0.0552
 7379TIP3    H143552   3.956   6.624   5.817  1.6728  1.6604 -0.5122
 7379TIP3    H243553   3.998   6.480   5.837 -1.0270  0.7511 -1.0013
 7380TIP3   OH243554   5.830   5.426  12.824 -0.1022  0.0913  0.5327
 7380TIP3    H143555   5.786   5.390  12.747  1.3496  2.0136 -1.3123
 7380TIP3    H243556   5.759   5.450  12.883 -1.4283  0.5983 -1.1687
 7381TIP3   OH243557   3.588   6.380   2.908 -0.7063 -0.1385 -0.3927
 7381TIP3    H143558   3.620   6.449   2.966  1.0478 -0.3098 -1.1207
 7381TIP3    H243559   3.599   6.299   2.958 -0.2544 -0.1708 -0.5468
 7382TIP3   OH243560   3.919   1.653  16.105  0.7087 -0.1492  0.4120
 7382TIP3    H143561   3.852   1.638  16.171  0.8368 -1.1842  0.3300
 7382TIP3    H243562   3.988   1.700  16.150  1.0760 -1.3942  1.2095
 7383TIP3   OH243563   4.985   3.721  10.779 -0.6007  0.1468  0.5453
 7383TIP3    H143564   5.023   3.640  10.814 -0.6873  0.5939  1.7206
 7383TIP3    H243565   4.988   3.782  10.853 -2.8159  0.4716  0.4066
 7384TIP3   OH243566   3.264   6.237  12.273 -0.8150 -0.4858 -0.1953
 7384TIP3    H143567   3.216   6.238  12.355  1.2090  0.0691  1.0581
 7384TIP3    H243568   3.291   6.145  12.263  1.7315 -0.0444  1.5916
 7385TIP3   OH243569   0.113   4.862  13.418  0.4732  0.1224 -0.0783
 7385TIP3    H143570   0.191   4.885  13.468  0.2742 -1.1260  0.8578
 7385TIP3    H243571   0.040   4.894  13.470  0.2986 -0.3898  0.0021
 7386TIP3   OH243572   5.118   1.286  16.848  0.1289 -0.3202  0.8614
 7386TIP3    H143573   5.092   1.271  16.939 -2.2036 -1.1960  0.1195
 7386TIP3    H243574   5.063   1.226  16.797  1.3301  0.1991 -1.1404
 7387TIP3   OH243575   2.935   1.835  12.385 -0.0729 -0.4688 -0.3432
 7387TIP3    H143576   2.881   1.854  12.308  2.8552 -0.6640 -2.6175
 7387TIP3    H243577   3.019   1.877  12.366  0.7932 -0.5119  2.8215
 7388TIP3   OH243578   0.116   6.443  13.570 -0.4454  0.6850 -0.0068
 7388TIP3    H143579   0.200   6.427  13.612 -1.3000 -1.2961  1.1131
 7388TIP3    H243580   0.138   6.474  13.482  1.5089 -1.2396 -0.2765
 7389TIP3   OH243581   1.860   1.174  16.266 -0.4471  0.5800  0.4644
 7389TIP3    H143582   1.913   1.161  16.344  0.5381  0.9015 -0.1268
 7389TIP3    H243583   1.872   1.094  16.215 -0.8783  0.4776  0.5190
 7390TIP3   OH243584   0.096   6.623   1.393 -0.1950 -0.1355  0.5639
 7390TIP3    H143585   0.181   6.633   1.436  0.5259 -3.2802  0.1397
 7390TIP3    H243586   0.036   6.595   1.462  0.1944 -2.0386  0.1871
 7391TIP3   OH243587   3.980   6.774  10.777  0.3322 -0.1944 -0.1709
 7391TIP3    H143588   4.068   6.753  10.746  0.1114 -4.2521  1.3143
 7391TIP3    H243589   3.924   6.762  10.701  0.8768  1.6752 -0.9342
 7392TIP3   OH243590   6.475   5.127   3.643  0.1579 -0.5015  0.1537
 7392TIP3    H143591   6.381   5.116   3.628  0.4556 -0.1660 -2.4471
 7392TIP3    H243592   6.505   5.179   3.568  2.2079  0.5929  1.6294
 7393TIP3   OH243593   4.647   5.447   0.392  0.4916  0.1100 -0.4774
 7393TIP3    H143594   4.633   5.477   0.302  0.9818  0.9915 -0.2783
 7393TIP3    H243595   4.575   5.387   0.409  1.3020 -1.3629 -2.0096
 7394TIP3   OH243596   5.608   4.262   5.713 -0.0323 -0.2706  0.5125
 7394TIP3    H143597   5.624   4.181   5.664  1.4265 -0.9303  1.9638
 7394TIP3    H243598   5.597   4.329   5.646 -2.9264 -1.8914 -0.7835
 7395TIP3   OH243599   1.200   3.648   4.163  0.9196  0.3398  0.5693
 7395TIP3    H143600   1.129   3.697   4.205 -0.3637 -0.0582 -1.0560
 7395TIP3    H243601   1.252   3.715   4.118 -0.4925  0.3470 -1.1570
 7396TIP3   OH243602   1.443   3.511   1.197 -0.6070 -0.1159  0.3617
 7396TIP3    H143603   1.374   3.552   1.144  0.3968 -1.3027 -2.0139
 7396TIP3    H243604   1.509   3.580   1.207 -1.6103  0.6851  1.7086
 7397TIP3   OH243605   5.979   0.839   4.651  0.4658 -0.3571  0.0178
 7397TIP3    H143606   6.046   0.906   4.661 -1.9076  2.0542  0.8479
 7397TIP3    H243607   5.997   0.799   4.566  1.4441  1.9632 -0.9320
 7398TIP3   OH243608   0.988   2.017  15.630 -0.0853  0.1025  0.3156
 7398TIP3    H143609   0.999   1.930  15.669  0.5336  0.5558  1.1838
 7398TIP3    H243610   0.925   2.003  15.559  0.9741 -1.2822 -0.3862
 7399TIP3   OH243611   3.306   1.668   2.466  0.1965  0.2577 -0.3200
 7399TIP3    H143612   3.319   1.690   2.374  0.5719  1.3423 -0.0300
 7399TIP3    H243613   3.312   1.572   2.469  0.7672  0.2448 -1.3299
 7400TIP3   OH243614   5.426   2.899   2.515 -0.0642 -0.3626 -0.0687
 7400TIP3    H143615   5.515   2.888   2.482  0.3350  1.1801  0.4179
 7400TIP3    H243616   5.370   2.881   2.439  0.6560 -0.9232 -0.4824
 7401TIP3   OH243617   0.102   1.323  16.743 -0.0997 -0.2246 -0.1499
 7401TIP3    H143618   0.104   1.291  16.834  1.1505  0.2585  0.0141
 7401TIP3    H243619   0.037   1.267  16.700 -1.0880 -0.1262  1.1559
 7402TIP3   OH243620   3.113   6.298  13.468  0.0985 -0.2570 -0.0600
 7402TIP3    H143621   3.089   6.333  13.382  0.2485 -2.3478 -1.0110
 7402TIP3    H243622   3.031   6.264  13.505  0.5576 -2.4795 -0.9399
 7403TIP3   OH243623   2.007   6.005  11.868 -0.5872 -0.0322 -0.4947
 7403TIP3    H143624   2.014   5.990  11.774 -2.0545  1.9730 -0.9786
 7403TIP3    H243625   1.952   5.933  11.899 -0.2665 -0.5928 -1.1870
 7404TIP3   OH243626   1.491   5.766   3.282 -0.2361 -0.0046  0.3614
 7404TIP3    H143627   1.457   5.782   3.194 -1.1060  0.1951  0.7229
 7404TIP3    H243628   1.498   5.671   3.287 -2.9373 -0.2619  1.0302
 7405TIP3   OH243629   3.500   2.655  16.469 -0.1010  0.4277 -0.0843
 7405TIP3    H143630   3.463   2.734  16.429 -0.0155  0.3031 -0.4145
 7405TIP3    H243631   3.594   2.672  16.471  0.3801 -1.0763 -3.4420
 7406TIP3   OH243632   3.977   1.466   2.995  0.7373  0.0438  0.1703
 7406TIP3    H143633   3.922   1.395   3.026 -1.3804  0.6367 -1.9138
 7406TIP3    H243634   4.020   1.431   2.917  1.0892  0.4922  0.1582
 7407TIP3   OH243635   3.968   6.685   4.268  0.3308 -0.1362 -0.5070
 7407TIP3    H143636   3.975   6.638   4.351  1.5731  1.0062  0.0584
 7407TIP3    H243637   4.055   6.679   4.229  0.4800  1.5529 -0.4818
 7408TIP3   OH243638   4.303   4.063   5.396  0.3747 -0.0273  0.4857
 7408TIP3    H143639   4.350   3.979   5.394  0.6215  0.1157 -1.1862
 7408TIP3    H243640   4.243   4.055   5.470 -1.3724 -2.6733 -1.0334
 7409TIP3   OH243641   1.158   5.126  17.130  0.2044 -0.0475 -0.0576
 7409TIP3    H143642   1.118   5.193  17.076  2.5216  1.0677 -0.4969
 7409TIP3    H243643   1.187   5.059  17.068  3.6952  1.6582 -0.5020
 7410TIP3   OH243644   1.778   3.501  11.921  0.3537 -0.9185 -0.1427
 7410TIP3    H143645   1.709   3.469  11.864 -0.6417 -0.7254  0.9160
 7410TIP3    H243646   1.744   3.583  11.957  0.9484 -1.0266  0.7105
 7411TIP3   OH243647   2.652   3.384   4.833  0.9077 -0.4146 -0.2282
 7411TIP3    H143648   2.578   3.434   4.797  1.1976 -0.3468 -0.7466
 7411TIP3    H243649   2.620   3.351   4.917  0.3910 -0.1351 -0.3079
 7412TIP3   OH243650   2.171   3.071   4.798 -0.3064  0.1457  0.0356
 7412TIP3    H143651   2.233   3.010   4.837  0.3874 -0.2296 -1.5821
 7412TIP3    H243652   2.193   3.072   4.705 -4.0935 -1.7506 -1.1055
 7413TIP3   OH243653   3.224   2.661  12.233  0.0682  0.2483  0.0385
 7413TIP3    H143654   3.308   2.619  12.251  0.6406  0.4801 -1.8593
 7413TIP3    H243655   3.162   2.619  12.293  0.7055 -2.9345 -1.3271
 7414TIP3   OH243656   1.360   4.442   1.719 -0.2118  0.4758 -0.1127
 7414TIP3    H143657   1.447   4.478   1.734  0.2016 -1.4581  3.1254
 7414TIP3    H243658   1.303   4.491   1.778 -0.9937  0.4606 -0.8254
 7415TIP3   OH243659   2.908   1.752  12.939  0.1439 -0.2613  0.2232
 7415TIP3    H143660   2.976   1.690  12.911  0.1270 -0.3719  0.4219
 7415TIP3    H243661   2.956   1.818  12.990 -0.0963 -1.2022  1.7413
 7416TIP3   OH243662   2.904   6.236   0.839  0.4800  0.4655 -0.0983
 7416TIP3    H143663   2.861   6.171   0.784  0.7824  0.6834 -0.5910
 7416TIP3    H243664   2.916   6.191   0.923  1.3720 -0.3858 -0.6612
 7417TIP3   OH243665   2.202   2.239   1.335 -0.6013  0.1903  0.4500
 7417TIP3    H143666   2.132   2.180   1.307 -2.2574  1.9204  0.7497
 7417TIP3    H243667   2.281   2.201   1.298 -1.5344 -2.3188  0.8115
 7418TIP3   OH243668   1.501   4.151  16.098 -0.2308 -0.4096 -0.0510
 7418TIP3    H143669   1.465   4.068  16.129 -1.1944 -0.0365 -0.1447
 7418TIP3    H243670   1.581   4.126  16.051 -0.6944 -1.3199 -0.3793
 7419TIP3   OH243671   6.563   1.390  15.270  0.3378 -0.0998  0.2954
 7419TIP3    H143672   6.497   1.439  15.223  0.8430  1.2979  0.9884
 7419TIP3    H243673   6.574   1.309  15.220 -1.5057 -0.1414 -0.1005
 7420TIP3   OH243674   6.425   4.078   4.227  0.2978 -0.2366 -0.2313
 7420TIP3    H143675   6.356   4.076   4.293 -0.0948 -0.4010 -0.6384
 7420TIP3    H243676   6.499   4.120   4.270 -0.4955  1.2092 -0.1853
 7421TIP3   OH243677   4.000   0.382   0.526  0.4672  0.3773  0.3310
 7421TIP3    H143678   4.081   0.335   0.548  0.7717 -0.1918 -1.7086
 7421TIP3    H243679   4.007   0.397   0.431 -1.4644  1.0277  0.2470
 7422TIP3   OH243680   5.238   1.052  12.740  0.3849  0.4984 -0.0809
 7422TIP3    H143681   5.262   1.027  12.829 -0.4484  0.3496  0.1031
 7422TIP3    H243682   5.163   1.110  12.750 -2.2640 -2.5086 -0.7954
 7423TIP3   OH243683   2.978   5.665   5.116  0.4492 -0.3911 -0.3025
 7423TIP3    H143684   2.995   5.755   5.088  0.3265 -0.7600 -1.6496
 7423TIP3    H243685   2.891   5.669   5.156  0.8980  0.2776  0.6405
 7424TIP3   OH243686   5.481   5.760   5.128  0.6257  0.0723 -0.1564
 7424TIP3    H143687   5.427   5.818   5.180  0.9095  0.1876  0.0121
 7424TIP3    H243688   5.571   5.787   5.147  0.8815 -1.7634  1.5511
 7425TIP3   OH243689   4.759   6.213  11.504 -0.7943  0.1837  0.1272
 7425TIP3    H143690   4.749   6.207  11.599 -1.7201  0.4968  0.0620
 7425TIP3    H243691   4.850   6.187  11.487 -0.3466  1.0041  1.1793
 7426TIP3   OH243692   3.513   6.789  15.453  0.5077 -0.6385 -0.6000
 7426TIP3    H143693   3.517   6.882  15.477 -1.1477 -0.6458 -0.1806
 7426TIP3    H243694   3.465   6.788  15.370 -0.3481 -1.1827 -0.1093
 7427TIP3   OH243695   3.647   4.173   1.842  0.4082  0.0140 -0.2188
 7427TIP3    H143696   3.612   4.130   1.920 -1.2557  1.1008 -0.3050
 7427TIP3    H243697   3.726   4.217   1.872  0.0548  0.0078  0.7456
 7428TIP3   OH243698   0.931   3.989  12.640  0.6394 -0.0402  1.0022
 7428TIP3    H143699   0.987   4.064  12.662  2.4327 -1.1897  0.5594
 7428TIP3    H243700   0.954   3.968  12.550 -1.3936  0.1576  0.4069
 7429TIP3   OH243701   0.259   5.621  11.980 -0.0824  0.7024 -0.0390
 7429TIP3    H143702   0.188   5.560  11.960  1.0099 -0.7613  0.3838
 7429TIP3    H243703   0.297   5.642  11.894  1.6153 -1.8890 -0.0480
 7430TIP3   OH243704   2.196   4.483  14.655 -0.8053 -0.5671 -0.3159
 7430TIP3    H143705   2.182   4.462  14.563 -1.4885 -1.3773 -0.0359
 7430TIP3    H243706   2.190   4.399  14.701  2.3315 -0.6471  0.1956
 7431TIP3   OH243707   5.844   6.730  14.801  0.5445 -0.0343  0.6320
 7431TIP3    H143708   5.894   6.648  14.811  0.6230 -0.3296 -1.6215
 7431TIP3    H243709   5.753   6.703  14.811  0.6650 -0.0214  1.8685
 7432TIP3   OH243710   2.967   6.008   4.171  0.0818 -0.2326 -0.0423
 7432TIP3    H143711   3.051   6.041   4.202 -0.4624  0.8044  0.3553
 7432TIP3    H243712   2.928   5.967   4.248  0.1412 -0.5549 -0.1826
 7433TIP3   OH243713   5.179   4.326   4.826  0.2187  0.1801  0.4882
 7433TIP3    H143714   5.184   4.294   4.736  1.0283  1.1809  0.1634
 7433TIP3    H243715   5.100   4.285   4.861  0.2132 -0.6852 -0.4857
 7434TIP3   OH243716   3.104   2.860  10.967 -0.3483  0.1169  0.1026
 7434TIP3    H143717   3.189   2.819  10.957  0.7690  1.8903  1.6574
 7434TIP3    H243718   3.059   2.808  11.034  0.9960  1.2423  1.9586
 7435TIP3   OH243719   6.772   4.844  11.350  0.3200  0.9930 -0.6041
 7435TIP3    H143720   6.853   4.841  11.401  0.4903  1.7163 -0.8236
 7435TIP3    H243721   6.716   4.904  11.399 -0.0438  0.5938 -0.5223
 7436TIP3   OH243722   4.746   2.956   4.953 -0.4485  0.4858  0.2519
 7436TIP3    H143723   4.789   2.871   4.955  1.6112  1.4816  1.2294
 7436TIP3    H243724   4.710   2.967   5.041 -0.8764  0.5596  0.0725
 7437TIP3   OH243725   5.253   5.063  14.020  0.0037  0.0573 -0.3019
 7437TIP3    H143726   5.213   5.148  14.037  1.5236  1.1689 -2.0363
 7437TIP3    H243727   5.256   5.056  13.925  2.6528 -0.5745 -0.2333
 7438TIP3   OH243728   4.461   0.799  14.478  0.1613 -0.0085  0.4377
 7438TIP3    H143729   4.447   0.813  14.384  2.2439  0.4934  0.1647
 7438TIP3    H243730   4.377   0.821  14.518 -0.1120  2.0314 -1.0986
 7439TIP3   OH243731   1.504   5.265   0.106 -0.3228  0.0911  0.0504
 7439TIP3    H143732   1.590   5.306   0.096 -0.0099 -0.6852 -0.5835
 7439TIP3    H243733   1.505   5.192   0.044 -0.7228 -1.0790  1.3657
 7440TIP3   OH243734   0.986   3.192  12.147  0.1223 -0.6211  0.6058
 7440TIP3    H143735   0.911   3.135  12.135  0.6228 -1.8256  2.8053
 7440TIP3    H243736   0.993   3.204  12.241  1.4049  1.2590  0.3341
 7441TIP3   OH243737   2.953   2.203   0.002 -0.3385 -0.2697 -0.1394
 7441TIP3    H143738   2.904   2.166   0.076 -1.9764  0.9329 -0.5574
 7441TIP3    H243739   3.020   2.258   0.042 -1.1549  0.2956  0.4761
 7442TIP3   OH243740   4.106   0.068   5.951 -0.0245 -0.3504 -0.8879
 7442TIP3    H143741   4.012   0.062   5.967  0.0907  1.0736  0.6221
 7442TIP3    H243742   4.113   0.121   5.872 -0.4954 -0.9408 -1.3322
 7443TIP3   OH243743   6.390   2.547   3.076 -0.0773  0.3579  0.5419
 7443TIP3    H143744   6.484   2.561   3.061 -0.0422  0.0975  0.5094
 7443TIP3    H243745   6.369   2.601   3.152  0.6297 -1.4311  2.0818
 7444TIP3   OH243746   2.335   6.195  12.642 -0.1735  0.6670  0.0087
 7444TIP3    H143747   2.375   6.124  12.593  1.6758  0.6864  1.3770
 7444TIP3    H243748   2.247   6.163  12.663  0.1107 -0.6013 -0.6511
 7445TIP3   OH243749   4.279   1.310  10.890 -0.2146 -0.1369  0.2167
 7445TIP3    H143750   4.345   1.317  10.821  2.3132  1.8521  2.5739
 7445TIP3    H243751   4.220   1.383  10.874 -0.4850 -0.5302 -0.6093
 7446TIP3   OH243752   1.030   6.371   5.361 -0.3914 -0.7567  0.3965
 7446TIP3    H143753   1.053   6.462   5.345  1.8490 -1.4795 -0.9055
 7446TIP3    H243754   0.934   6.371   5.361 -0.5197  1.8959  2.6445
 7447TIP3   OH243755   3.871   6.600   3.703 -0.3569 -0.0442 -0.1091
 7447TIP3    H143756   3.928   6.583   3.628 -1.2197  1.3688 -1.1484
 7447TIP3    H243757   3.860   6.695   3.703 -0.2047  0.0151  1.9800
 7448TIP3   OH243758   5.745   3.741  14.668  0.0455  0.2686  0.2322
 7448TIP3    H143759   5.839   3.752  14.686  0.6928 -2.2428 -1.1731
 7448TIP3    H243760   5.737   3.749  14.573 -1.2452  0.8797  0.3743
 7449TIP3   OH243761   2.470   5.636   5.594  0.1086 -0.4050 -0.2756
 7449TIP3    H143762   2.439   5.724   5.575 -0.5531 -0.9749 -1.9574
 7449TIP3    H243763   2.420   5.579   5.536  0.6722 -1.8843  0.6200
 7450TIP3   OH243764   5.200   0.855  16.052 -0.4669  0.4381  0.4340
 7450TIP3    H143765   5.170   0.883  15.965 -2.5536  0.8291  1.2327
 7450TIP3    H243766   5.160   0.768  16.064 -0.4710  0.5353  1.1395
 7451TIP3   OH243767   5.082   6.303   0.278  0.6802 -0.2162  0.0815
 7451TIP3    H143768   5.116   6.340   0.359  0.1470 -0.0370  0.2246
 7451TIP3    H243769   5.158   6.259   0.239  0.6630 -1.2834  1.2200
 7452TIP3   OH243770   3.439   4.955   0.560  0.1677 -0.1396 -0.3318
 7452TIP3    H143771   3.533   4.942   0.575  0.5273  3.2378  1.2572
 7452TIP3    H243772   3.399   4.935   0.645 -0.6653 -1.7838 -1.0617
 7453TIP3   OH243773   3.172   6.080  15.524  0.2188  0.2927 -0.1511
 7453TIP3    H143774   3.130   6.159  15.559  1.3525  0.9568 -0.2357
 7453TIP3    H243775   3.154   6.012  15.589 -0.5137  0.6926  0.0759
 7454TIP3   OH243776   1.218   4.133  15.251 -0.4737  0.3829  0.0332
 7454TIP3    H143777   1.275   4.103  15.321 -1.3707  0.2467  0.7189
 7454TIP3    H243778   1.277   4.177  15.189  0.5833 -1.0373 -0.0162
 7455TIP3   OH243779   3.817   4.448  14.134  0.2511 -0.0576  0.4693
 7455TIP3    H143780   3.841   4.459  14.226  0.9410  2.0805  0.0820
 7455TIP3    H243781   3.788   4.535  14.106  0.4675 -0.5549 -1.4378
 7456TIP3   OH243782   0.127   5.716   3.187 -0.2365  0.5245  0.4182
 7456TIP3    H143783   0.165   5.706   3.275  0.6254  1.2639  0.1337
 7456TIP3    H243784   0.058   5.649   3.184  0.6165 -0.4307  1.1716
 7457TIP3   OH243785   0.932   4.402   5.185  0.5582  0.7927 -0.1633
 7457TIP3    H143786   0.869   4.457   5.232 -0.6249  0.2914 -1.1114
 7457TIP3    H243787   0.899   4.313   5.197  2.6448  0.1784  1.6629
 7458TIP3   OH243788   3.917   0.901  13.374  0.6515 -0.2108  0.3482
 7458TIP3    H143789   3.947   0.992  13.366 -0.7270  0.2476  0.0178
 7458TIP3    H243790   3.924   0.882  13.468 -0.3714  0.7506  0.6473
 7459TIP3   OH243791   1.141   4.683  10.755  1.1084 -0.1618 -0.6316
 7459TIP3    H143792   1.193   4.653  10.680  0.2905  0.8653 -1.6380
 7459TIP3    H243793   1.096   4.761  10.723 -0.3611 -0.5152  0.4997
 7460TIP3   OH243794   0.297   1.137  15.483 -0.1790 -0.1785 -0.0569
 7460TIP3    H143795   0.388   1.118  15.503  0.4861 -0.8216 -3.1497
 7460TIP3    H243796   0.252   1.052  15.490 -0.2567 -0.1123  0.2288
 7461TIP3   OH243797   0.308   5.886   5.862  0.0655 -0.4000  0.3138
 7461TIP3    H143798   0.220   5.861   5.888 -0.3932  1.9448  1.2720
 7461TIP3    H243799   0.354   5.803   5.848 -2.1581 -1.6694  0.1588
 7462TIP3   OH243800   2.632   6.031  12.296  0.1213 -0.5282  0.2871
 7462TIP3    H143801   2.645   5.987  12.212 -0.7701  0.1040 -0.2071
 7462TIP3    H243802   2.544   6.006  12.323  0.6445 -1.2544  1.3734
 7463TIP3   OH243803   5.722   6.735   0.312  0.2731  0.5565  0.2640
 7463TIP3    H143804   5.794   6.687   0.270 -0.6910  0.4345 -1.3687
 7463TIP3    H243805   5.720   6.703   0.402 -0.1935 -2.3945 -0.6759
 7464TIP3   OH243806   4.287   4.831   4.271  0.6667 -0.3686 -0.2353
 7464TIP3    H143807   4.203   4.874   4.258  1.6382  1.7909  0.1121
 7464TIP3    H243808   4.281   4.792   4.358  0.6043  1.4082  0.6190
 7465TIP3   OH243809   2.323   3.446   4.985  0.1771  0.2246 -0.2946
 7465TIP3    H143810   2.280   3.457   4.900 -1.6755  0.0161  0.5630
 7465TIP3    H243811   2.280   3.510   5.042 -0.5031 -1.4247  1.1369
 7466TIP3   OH243812   0.365   1.165  11.566 -0.2819 -0.1544 -0.7441
 7466TIP3    H143813   0.322   1.149  11.650 -0.8690  3.6231 -0.1727
 7466TIP3    H243814   0.357   1.081  11.520 -3.9960 -1.1152  1.1870
 7467TIP3   OH243815   6.521   4.709   0.800 -0.0311  0.2902  0.0067
 7467TIP3    H143816   6.584   4.712   0.872 -1.3625 -0.3599  1.2352
 7467TIP3    H243817   6.491   4.618   0.797  0.3536  0.1788 -1.7122
 7468TIP3   OH243818   5.976   2.608  16.087 -0.1762 -0.3565  0.4191
 7468TIP3    H143819   5.978   2.704  16.089  0.4834 -0.3712  0.5275
 7468TIP3    H243820   5.963   2.587  15.995 -0.9018 -0.1582  0.4679
 7469TIP3   OH243821   2.054   4.918  12.479 -1.0980  0.3928 -0.0695
 7469TIP3    H143822   2.105   4.845  12.514 -0.3966  1.5724  1.4843
 7469TIP3    H243823   1.986   4.934  12.544 -0.4483  1.9300  0.2709
 7470TIP3   OH243824   6.692   3.739  13.058 -0.1539 -0.2282  0.5821
 7470TIP3    H143825   6.609   3.692  13.062  0.3298 -1.3135 -0.8965
 7470TIP3    H243826   6.667   3.829  13.039 -1.0164 -0.5903 -0.1303
 7471TIP3   OH243827   6.761   0.305   0.886 -0.3456 -0.5316  0.2704
 7471TIP3    H143828   6.724   0.222   0.857 -0.9145 -0.0983 -0.2670
 7471TIP3    H243829   6.688   0.350   0.930 -1.3953  1.5346 -3.2165
 7472TIP3   OH243830   4.352   1.173   0.385 -0.4958 -0.1954  0.4407
 7472TIP3    H143831   4.353   1.079   0.405 -2.4052 -0.5060 -0.7283
 7472TIP3    H243832   4.430   1.207   0.430 -1.2069 -1.8395  3.1789
 7473TIP3   OH243833   0.147   0.171  12.716 -0.1321 -0.2838  0.0665
 7473TIP3    H143834   0.141   0.083  12.678  1.3664 -0.8328  0.9968
 7473TIP3    H243835   0.060   0.187  12.753 -0.1871 -1.7649  0.6523
 7474TIP3   OH243836   6.043   3.192   4.796  0.5543 -0.6142 -0.2668
 7474TIP3    H143837   5.955   3.188   4.832 -0.2302  0.5437 -1.9526
 7474TIP3    H243838   6.056   3.107   4.754  1.0832 -1.5746  1.7154
 7475TIP3   OH243839   2.252   4.450   3.304 -0.2735  0.2199 -0.3704
 7475TIP3    H143840   2.205   4.377   3.343  1.3061 -0.7385 -0.1702
 7475TIP3    H243841   2.220   4.528   3.351 -1.9834 -0.3036 -0.5932
 7476TIP3   OH243842   2.790   3.367  13.744  0.7716  0.4532 -0.0185
 7476TIP3    H143843   2.827   3.454  13.727 -0.3171  1.0649  0.6237
 7476TIP3    H243844   2.733   3.350  13.669  1.1116  0.2204 -0.2248
 7477TIP3   OH243845   5.426   5.073   1.588 -0.0418  0.2694  0.1835
 7477TIP3    H143846   5.470   5.085   1.673 -0.1231 -0.2840  0.3116
 7477TIP3    H243847   5.477   5.004   1.545 -1.4363 -1.2352  0.8170
 7478TIP3   OH243848   5.422   5.620  14.586  0.2720 -0.3697 -0.0033
 7478TIP3    H143849   5.385   5.536  14.613  1.2631 -1.3237 -1.4872
 7478TIP3    H243850   5.443   5.665  14.667  0.1424 -1.7516  0.8174
 7479TIP3   OH243851   0.082   1.563  14.645  0.6122 -0.1731  0.2783
 7479TIP3    H143852   0.033   1.645  14.645 -0.3667 -0.7375  0.1371
 7479TIP3    H243853   0.173   1.590  14.641  0.2874  0.9016 -0.7737
 7480TIP3   OH243854   2.759   2.232   1.399  0.6075 -0.1691  0.4519
 7480TIP3    H143855   2.692   2.250   1.333  0.8033 -2.3421 -0.4222
 7480TIP3    H243856   2.763   2.136   1.404  3.9109 -0.1568  0.1673
 7481TIP3   OH243857   0.859   2.250  14.915  0.0293  0.0101  0.3450
 7481TIP3    H143858   0.870   2.209  14.829  1.5821 -0.7141  0.8561
 7481TIP3    H243859   0.920   2.325  14.914 -0.4950  0.4464  0.5478
 7482TIP3   OH243860   5.705   2.148  11.428 -0.2506  0.0575  0.4482
 7482TIP3    H143861   5.770   2.084  11.455  1.4061  0.9584 -1.1539
 7482TIP3    H243862   5.721   2.224  11.483  0.0410  0.2564  0.0970
 7483TIP3   OH243863   2.491   6.054   1.879  0.3483 -0.3828  0.2943
 7483TIP3    H143864   2.581   6.027   1.858  0.2458 -0.3386 -0.2335
 7483TIP3    H243865   2.462   5.991   1.945  0.3746 -1.1135 -0.3684
 7484TIP3   OH243866   5.533   2.037  15.260 -0.1132 -0.2500  0.3752
 7484TIP3    H143867   5.439   2.022  15.248  0.1158 -2.8564  1.3783
 7484TIP3    H243868   5.573   1.999  15.182  0.2575 -1.6201  1.2146
 7485TIP3   OH243869   6.300   0.792   4.756  0.4703 -0.0493  0.5514
 7485TIP3    H143870   6.247   0.838   4.822  1.7451  0.4314  1.2831
 7485TIP3    H243871   6.277   0.700   4.767 -0.3136  0.1648  0.7551
 7486TIP3   OH243872   4.032   2.722  12.691  0.0791 -0.0488  0.7665
 7486TIP3    H143873   3.989   2.780  12.629 -3.2003 -1.4694  1.5327
 7486TIP3    H243874   3.997   2.748  12.776 -1.2808 -2.8131  1.1679
 7487TIP3   OH243875   5.105   4.590  17.106 -0.5721 -0.2088 -0.1940
 7487TIP3    H143876   5.025   4.634  17.079 -1.6002 -0.6931  1.8106
 7487TIP3    H243877   5.167   4.661  17.122 -1.0779  0.2807 -0.3669
 7488TIP3   OH243878   2.792   5.344   0.272  0.6368  0.4337  0.7312
 7488TIP3    H143879   2.730   5.306   0.210  1.9053  0.0044 -0.3134
 7488TIP3    H243880   2.868   5.368   0.219  1.0971  1.6257  1.8595
 7489TIP3   OH243881   3.363   4.407   3.414  0.3056 -0.1357 -0.0504
 7489TIP3    H143882   3.367   4.322   3.457 -2.2621  0.4884  1.5922
 7489TIP3    H243883   3.270   4.420   3.393  0.9524  1.2257 -2.4950
 7490TIP3   OH243884   5.782   4.375   2.783  0.0513  0.3383  0.3366
 7490TIP3    H143885   5.692   4.361   2.755 -0.3216  1.0763  1.1046
 7490TIP3    H243886   5.805   4.296   2.832 -0.6554  0.6851  1.2684
 7491TIP3   OH243887   6.396   4.547   6.195 -0.4109 -0.1571  0.2556
 7491TIP3    H143888   6.322   4.532   6.254 -1.8687 -2.1290 -1.9071
 7491TIP3    H243889   6.448   4.466   6.200  0.0346  0.0820 -0.3274
 7492TIP3   OH243890   4.145   5.389  14.484 -0.4037  0.3864  0.9642
 7492TIP3    H143891   4.139   5.324  14.555  0.2166 -2.1998 -1.2210
 7492TIP3    H243892   4.214   5.449  14.512  1.7389 -2.1370  1.4320
 7493TIP3   OH243893   4.224   4.483   3.169 -0.3004 -0.6537  0.6997
 7493TIP3    H143894   4.301   4.539   3.178 -0.3898 -0.3479 -0.3471
 7493TIP3    H243895   4.255   4.408   3.117 -0.5269 -0.9018  0.9175
 7494TIP3   OH243896   0.673   2.933  13.892 -0.5724 -0.1989  0.3977
 7494TIP3    H143897   0.748   2.873  13.889  0.0386  0.5053  1.0894
 7494TIP3    H243898   0.639   2.934  13.802 -1.6297 -2.8235  0.6762
 7495TIP3   OH243899   3.098   5.242   4.203 -0.0961  0.5286 -0.2541
 7495TIP3    H143900   3.164   5.310   4.195  2.1217 -1.2789  1.4463
 7495TIP3    H243901   3.021   5.287   4.239  1.4445  2.0604  1.2929
 7496TIP3   OH243902   2.527   2.776  16.234  0.2264 -0.2874  0.2751
 7496TIP3    H143903   2.534   2.798  16.141 -0.0207 -0.5370  0.1936
 7496TIP3    H243904   2.482   2.691  16.235 -2.8675  1.1915  0.7116
 7497TIP3   OH243905   6.403   0.928   1.277  0.3429 -0.0889  0.0127
 7497TIP3    H143906   6.418   0.834   1.264  1.6931  0.1348 -0.2288
 7497TIP3    H243907   6.486   0.968   1.254 -0.3029  1.2004 -0.1407
 7498TIP3   OH243908   5.657   1.959  13.103  0.0256 -0.2506 -0.0029
 7498TIP3    H143909   5.710   1.916  13.036  1.7553  2.6549 -0.7241
 7498TIP3    H243910   5.571   1.969  13.063  0.6909  0.3571 -1.3757
 7499TIP3   OH243911   5.475   6.243  17.068  0.1187 -0.0887 -0.3327
 7499TIP3    H143912   5.383   6.244  17.095 -0.3177  0.3605 -1.7387
 7499TIP3    H243913   5.491   6.153  17.040  0.5913 -0.5732  1.3673
 7500TIP3   OH243914   2.917   3.768   1.676  0.2412 -0.2053 -0.1967
 7500TIP3    H143915   3.008   3.794   1.662  0.2018  0.0952  0.0922
 7500TIP3    H243916   2.918   3.722   1.761  0.5182 -2.1864 -1.2080
 7501TIP3   OH243917   2.036   1.322   2.805 -0.6216 -0.3302  0.1410
 7501TIP3    H143918   1.962   1.382   2.815  1.4195  2.3914  0.0701
 7501TIP3    H243919   2.045   1.310   2.711 -1.4652 -1.4217  0.1752
 7502TIP3   OH243920   1.870   4.448   5.601  0.1081  0.1667 -0.5780
 7502TIP3    H143921   1.795   4.453   5.661  0.7185 -1.0845  0.3402
 7502TIP3    H243922   1.934   4.509   5.639  1.0825 -1.7218  0.9898
 7503TIP3   OH243923   2.124   4.571   5.213 -0.2527  0.0448  0.4550
 7503TIP3    H143924   2.150   4.624   5.138  2.0885  0.1794  1.2727
 7503TIP3    H243925   2.136   4.629   5.289 -1.8615 -0.3186  1.0255
 7504TIP3   OH243926   0.571   0.779   1.409  0.7951 -0.0865  0.7734
 7504TIP3    H143927   0.662   0.801   1.394  0.2401  2.1061  0.3429
 7504TIP3    H243928   0.534   0.765   1.322  0.4844  0.1040  0.8702
 7505TIP3   OH243929   5.296   6.514   5.761  0.4652  0.2333  0.0988
 7505TIP3    H143930   5.373   6.462   5.741  0.4098 -0.4727  1.5649
 7505TIP3    H243931   5.247   6.462   5.825 -0.6551  1.1633  0.0434
 7506TIP3   OH243932   2.363   1.065  15.293 -0.6596 -0.1711  0.4925
 7506TIP3    H143933   2.295   1.001  15.273  0.3777 -0.5945 -2.0291
 7506TIP3    H243934   2.325   1.149  15.266 -1.3367  0.0993  2.1323
 7507TIP3   OH243935   4.537   5.353  11.623  0.0685 -0.2139  0.2031
 7507TIP3    H143936   4.607   5.294  11.594  0.8513  1.5341 -1.7439
 7507TIP3    H243937   4.486   5.371  11.544 -1.7363 -0.2856  1.2926
 7508TIP3   OH243938   2.427   2.697   4.231 -0.3627  0.3735  0.4464
 7508TIP3    H143939   2.464   2.773   4.185 -2.5315 -0.1285 -2.4347
 7508TIP3    H243940   2.475   2.622   4.196  0.3611  0.2118  1.7292
 7509TIP3   OH243941   3.062   1.955   3.216 -0.0280  0.6243 -0.5860
 7509TIP3    H143942   3.072   2.013   3.292  0.7773  0.4942 -0.5834
 7509TIP3    H243943   3.082   2.011   3.141 -0.6800  0.7142 -0.6997
 7510TIP3   OH243944   3.618   6.178   3.415 -0.7093  0.2731 -0.8724
 7510TIP3    H143945   3.670   6.131   3.480  0.7733  1.0200 -1.4514
 7510TIP3    H243946   3.529   6.148   3.429 -0.5735  0.9047  1.9561
 7511TIP3   OH243947   5.255   2.048   2.112  0.0767  0.2290  0.1797
 7511TIP3    H143948   5.220   2.038   2.201  0.7240 -0.3877  0.3736
 7511TIP3    H243949   5.246   2.141   2.093 -0.8801  0.2306  0.5502
 7512TIP3   OH243950   0.832   4.029  14.987  0.2519 -0.2460  0.3985
 7512TIP3    H143951   0.922   4.057  15.006 -0.2376  1.4187  0.3929
 7512TIP3    H243952   0.808   4.078  14.908  0.0210 -2.2284 -0.8310
 7513TIP3   OH243953   0.297   5.245   5.651  0.7155 -0.1913 -1.0379
 7513TIP3    H143954   0.296   5.257   5.746 -2.1610  0.3499 -1.0520
 7513TIP3    H243955   0.343   5.163   5.638  0.8996 -0.4407  0.8520
 7514TIP3   OH243956   0.259   5.555   0.123 -0.4351 -0.0033 -0.6355
 7514TIP3    H143957   0.281   5.464   0.106 -0.9290  0.2686 -3.1034
 7514TIP3    H243958   0.167   5.553   0.151 -0.4721 -0.2574 -0.7745
 7515TIP3   OH243959   5.986   4.229   3.077  0.0290  0.6133 -0.2507
 7515TIP3    H143960   6.003   4.307   3.131  2.7240  0.1552 -0.2954
 7515TIP3    H243961   6.044   4.239   3.002 -1.5570 -0.1797 -1.6600
 7516TIP3   OH243962   6.359   2.241  12.742  0.1529  0.2354  0.6840
 7516TIP3    H143963   6.336   2.179  12.672 -0.9281  0.2599  0.9961
 7516TIP3    H243964   6.362   2.326  12.698 -2.6480  0.5831  0.9859
 7517TIP3   OH243965   2.891   2.870  14.513 -0.4530  0.3797 -0.4548
 7517TIP3    H143966   2.807   2.914  14.503 -1.4318 -0.9218  1.4142
 7517TIP3    H243967   2.882   2.819  14.594  1.6170 -0.9777 -1.0008
 7518TIP3   OH243968   3.856   4.130   6.036 -0.0384 -0.3894 -0.3566
 7518TIP3    H143969   3.771   4.173   6.025  1.1576  2.0115 -0.9848
 7518TIP3    H243970   3.914   4.177   5.975  1.9838 -1.2518  0.8131
 7519TIP3   OH243971   5.350   1.331   5.030 -0.1476  0.2137 -0.2941
 7519TIP3    H143972   5.355   1.292   4.943 -0.8144 -0.7196  0.0579
 7519TIP3    H243973   5.411   1.279   5.083  0.2061  0.7334 -0.1799
 7520TIP3   OH243974   3.866   1.364   5.623  0.3917 -0.3134  0.9464
 7520TIP3    H143975   3.893   1.355   5.715  0.2723 -0.5874  0.9553
 7520TIP3    H243976   3.875   1.457   5.605  1.7605 -0.4416  0.8273
 7521TIP3   OH243977   1.400   1.636   6.308  0.6355 -0.2920 -0.2372
 7521TIP3    H143978   1.480   1.682   6.330  0.6209 -0.2098 -0.3540
 7521TIP3    H243979   1.421   1.543   6.320  0.3528 -0.2069  1.0208
 7522TIP3   OH243980   5.224   4.942   0.945 -0.6672  0.3180  0.5922
 7522TIP3    H143981   5.252   4.989   0.867 -0.0144  0.9459  1.1878
 7522TIP3    H243982   5.128   4.951   0.945 -0.6604  0.4649 -0.0311
 7523TIP3   OH243983   3.476   6.166   0.163 -0.0447 -0.6436 -0.1747
 7523TIP3    H143984   3.516   6.098   0.109  3.3452  1.8346 -1.1406
 7523TIP3    H243985   3.412   6.208   0.106  0.4143 -0.7765 -0.7899
 7524TIP3   OH243986   1.693   4.036   3.375 -0.0727 -0.5034  0.6213
 7524TIP3    H143987   1.604   4.025   3.342  0.1705  0.2222 -0.3133
 7524TIP3    H243988   1.700   4.130   3.393  1.0667 -0.2208 -1.0572
 7525TIP3   OH243989   2.673   5.708   4.789  0.4137  0.5317  0.1912
 7525TIP3    H143990   2.683   5.624   4.743 -0.2153 -1.1275  2.8916
 7525TIP3    H243991   2.587   5.739   4.764  0.3845  0.0530 -0.3293
 7526TIP3   OH243992   0.234   5.807  14.644 -0.0845 -0.2216  1.0008
 7526TIP3    H143993   0.215   5.722  14.605 -0.1961  0.7565 -1.2095
 7526TIP3    H243994   0.323   5.797  14.680  0.5848 -0.8077 -0.7147
 7527TIP3   OH243995   6.746   4.929   4.488 -0.3837 -0.4577  0.2777
 7527TIP3    H143996   6.757   5.023   4.481  0.7750 -0.4047  2.1138
 7527TIP3    H243997   6.663   4.918   4.534 -0.8593 -0.3828 -0.5378
 7528TIP3   OH243998   0.654   1.283  15.253  0.5269 -0.4431  0.0574
 7528TIP3    H143999   0.698   1.366  15.232 -0.0555 -0.0112  0.5086
 7528TIP3    H244000   0.609   1.259  15.172  0.0985  0.0693  0.1343
 7529TIP3   OH244001   5.735   3.357  12.089  0.7285 -0.3246 -0.4252
 7529TIP3    H144002   5.719   3.266  12.065 -1.5759 -0.6306  1.8819
 7529TIP3    H244003   5.652   3.388  12.124  1.5248  2.6219 -0.8825
 7530TIP3   OH244004   6.803   5.523  14.814  0.3687 -0.0133 -0.4512
 7530TIP3    H144005   6.774   5.546  14.902 -0.3514 -0.3507 -0.5928
 7530TIP3    H244006   6.891   5.486  14.826 -0.1266 -1.0133  0.2441
 7531TIP3   OH244007   0.425   1.769  15.038 -0.0980  0.0801 -0.3438
 7531TIP3    H144008   0.470   1.685  15.026 -3.0426 -1.7370  0.2544
 7531TIP3    H244009   0.358   1.771  14.971  1.2707  3.1549 -1.8405
 7532TIP3   OH244010   4.726   6.487  11.237  0.4545 -0.5796 -0.0468
 7532TIP3    H144011   4.790   6.557  11.223 -2.5130  2.0458 -1.8593
 7532TIP3    H244012   4.675   6.517  11.312 -0.3823 -1.2268 -0.3508
 7533TIP3   OH244013   0.029   2.133  14.311 -0.2905 -0.0914  0.1767
 7533TIP3    H144014   0.025   2.070  14.239  0.3365  1.2208 -1.0739
 7533TIP3    H244015  -0.062   2.158  14.326 -0.3001  1.6312 -2.1082
 7534TIP3   OH244016   4.962   5.118  13.316 -0.2349 -0.2138  0.1263
 7534TIP3    H144017   4.917   5.034  13.324  2.5923 -1.8813  0.0506
 7534TIP3    H244018   5.051   5.100  13.347  0.2622  3.0181  0.9674
 7535TIP3   OH244019   6.786   6.055  16.882  0.1346  0.2716  1.0640
 7535TIP3    H144020   6.862   6.017  16.925  2.0427  3.0630  0.3892
 7535TIP3    H244021   6.768   5.996  16.808  1.5025 -0.5215  1.3355
 7536TIP3   OH244022   3.288   3.349   4.968 -0.1574  0.0479 -0.5840
 7536TIP3    H144023   3.357   3.379   5.027 -1.7177  1.1849  0.7530
 7536TIP3    H244024   3.292   3.409   4.893  1.5043 -1.0952 -1.4866
 7537TIP3   OH244025   3.912   6.562  14.234 -0.8203 -0.4094  0.3887
 7537TIP3    H144026   3.904   6.521  14.320 -1.2697  3.0419  2.2005
 7537TIP3    H244027   3.824   6.594  14.215 -0.7055 -1.0554 -1.3676
 7538TIP3   OH244028   2.499   3.253   5.607 -1.1532 -0.5482  0.4143
 7538TIP3    H144029   2.548   3.203   5.671  1.4072  0.5132 -0.5940
 7538TIP3    H244030   2.466   3.188   5.545 -2.4246 -1.4290  1.9354
 7539TIP3   OH244031   5.728   0.697  14.111 -0.2512 -0.0849 -0.2690
 7539TIP3    H144032   5.781   0.715  14.034  0.3067 -0.2148  0.0827
 7539TIP3    H244033   5.785   0.717  14.185 -0.9986  0.6819  0.1142
 7540TIP3   OH244034   1.214   3.513  14.472  0.6375  0.4501  0.2714
 7540TIP3    H144035   1.193   3.521  14.379 -0.9510  1.0957  0.6470
 7540TIP3    H244036   1.144   3.561  14.517  0.1901 -1.5307  1.8916
 7541TIP3   OH244037   0.899   2.404  15.283 -0.0172 -0.5436 -0.7413
 7541TIP3    H144038   0.942   2.462  15.220  1.5348  1.6262  2.0620
 7541TIP3    H244039   0.971   2.356  15.324 -0.7598 -0.4996  0.6621
 7542TIP3   OH244040   5.727   0.247   4.605 -0.4313  0.3872  0.2779
 7542TIP3    H144041   5.750   0.316   4.542  3.3244 -1.3936 -0.6376
 7542TIP3    H244042   5.786   0.262   4.679  0.9944 -2.0632 -0.2418
 7543TIP3   OH244043   2.483   3.575   0.025  0.2836 -0.3759 -0.0223
 7543TIP3    H144044   2.389   3.594   0.017  0.4574  1.3738  1.3667
 7543TIP3    H244045   2.522   3.618  -0.051  0.0623 -0.1340 -0.0050
 7544TIP3   OH244046   2.693   1.171   5.014  0.0509 -0.0533  0.2000
 7544TIP3    H144047   2.730   1.084   5.034  1.8680  0.6113 -0.0197
 7544TIP3    H244048   2.750   1.205   4.946 -0.6755  1.2980  0.2462
 7545TIP3   OH244049   6.298   4.222   2.920 -0.5539 -0.1721 -0.4623
 7545TIP3    H144050   6.341   4.138   2.929  0.6519  0.5636  0.9509
 7545TIP3    H244051   6.297   4.238   2.825  0.8990 -0.9215 -0.6298
 7546TIP3   OH244052   1.286   4.234  12.659  0.2877 -0.6750 -0.6110
 7546TIP3    H144053   1.333   4.178  12.721 -1.7849  0.5377  2.2642
 7546TIP3    H244054   1.197   4.238  12.693  0.1364  3.7389 -1.0089
 7547TIP3   OH244055   1.405   4.451  12.269  0.0180  0.8251 -0.0994
 7547TIP3    H144056   1.362   4.373  12.233 -0.3501  0.9303  0.1036
 7547TIP3    H244057   1.333   4.511  12.287  0.1193  0.4905  1.5319
 7548TIP3   OH244058   2.956   0.044   4.362  0.4501  0.8076 -0.2638
 7548TIP3    H144059   3.048   0.020   4.360 -0.0516 -1.5034  0.7627
 7548TIP3    H244060   2.938   0.059   4.455 -0.5521 -0.5135 -0.2090
 7549TIP3   OH244061   6.766   5.184   2.079 -0.3295  0.0138  0.7621
 7549TIP3    H144062   6.795   5.174   1.989 -1.3327  1.9557  0.1878
 7549TIP3    H244063   6.826   5.249   2.117 -2.0941  1.9599  0.3735
 7550TIP3   OH244064   5.732   1.955  15.070 -0.1684 -0.7800 -0.4051
 7550TIP3    H144065   5.739   2.041  15.030 -1.7356 -1.1313 -1.5580
 7550TIP3    H244066   5.801   1.953  15.136 -0.7759  1.7568  0.4199
 7551TIP3   OH244067   0.273   3.231  16.098  0.0829 -0.1356  0.5706
 7551TIP3    H144068   0.276   3.139  16.121  1.4493 -0.1510  0.4514
 7551TIP3    H244069   0.253   3.232  16.004 -2.0485 -0.1996  0.9790
 7552TIP3   OH244070   4.929   5.630   5.509  0.9127  0.0835 -0.1790
 7552TIP3    H144071   4.882   5.655   5.589  0.8600 -2.3047  0.6199
 7552TIP3    H244072   5.014   5.599   5.540  0.6122 -1.5996 -0.9286
 7553TIP3   OH244073   1.771   3.581   3.638  0.2854 -0.1923 -0.7880
 7553TIP3    H144074   1.726   3.498   3.627 -0.2910 -0.2345  1.4634
 7553TIP3    H244075   1.711   3.635   3.689  0.5843  1.7025 -2.2965
 7554TIP3   OH244076   2.434   5.288  13.735 -0.7682 -0.1609  0.4237
 7554TIP3    H144077   2.522   5.289  13.773  0.4662 -0.9354 -2.1799
 7554TIP3    H244078   2.414   5.379  13.717 -0.1521 -0.0399  0.3240
 7555TIP3   OH244079   6.727   0.615   0.416 -0.0205 -0.1140 -0.3215
 7555TIP3    H144080   6.725   0.577   0.503  1.3122 -2.4200 -1.2148
 7555TIP3    H244081   6.638   0.604   0.382  0.3433 -2.7535 -0.6048
 7556TIP3   OH244082   1.025   3.280   5.594 -0.0875 -0.3863  0.7263
 7556TIP3    H144083   1.119   3.282   5.614 -0.0441  1.9581  0.5032
 7556TIP3    H244084   1.016   3.209   5.530  1.9585  0.8231 -1.0562
 7557TIP3   OH244085   1.020   0.686  11.479 -0.0019 -0.1486 -0.2355
 7557TIP3    H144086   1.058   0.607  11.516  0.7727 -0.6474 -1.9814
 7557TIP3    H244087   0.925   0.676  11.491  0.1513 -0.8707  0.4087
 7558TIP3   OH244088   1.208   4.375   2.515 -0.5702 -0.1237 -0.3737
 7558TIP3    H144089   1.269   4.424   2.569  1.8991 -1.6547 -1.5975
 7558TIP3    H244090   1.198   4.291   2.561 -0.5356 -0.4510 -0.9571
 7559TIP3   OH244091   5.156   4.716  16.197  0.0759 -0.0960  0.6917
 7559TIP3    H144092   5.082   4.746  16.250 -0.6464 -0.2080 -0.2118
 7559TIP3    H244093   5.174   4.628  16.229  0.2795  0.1868  1.3798
 7560TIP3   OH244094   2.879   1.576  14.925 -0.1664 -0.3681 -0.3783
 7560TIP3    H144095   2.910   1.652  14.973  2.2123 -1.9515  0.8101
 7560TIP3    H244096   2.823   1.529  14.987  0.5505 -0.9127 -0.1177
 7561TIP3   OH244097   2.734   3.892   2.216  0.5251  0.1771  0.1073
 7561TIP3    H144098   2.640   3.910   2.222  0.3779 -0.8769  1.2448
 7561TIP3    H244099   2.741   3.797   2.219  1.3652 -0.1276 -4.2929
 7562TIP3   OH244100   1.250   3.951  13.057  0.0954 -0.6149 -0.2864
 7562TIP3    H144101   1.160   3.954  13.024  0.2458  0.0858 -0.6485
 7562TIP3    H244102   1.269   4.042  13.083  0.6232 -0.8026 -0.0022
 7563TIP3   OH244103   3.467   6.031  16.503  0.0052 -0.4653 -0.3365
 7563TIP3    H144104   3.496   5.970  16.571 -0.0310 -0.1543 -0.0370
 7563TIP3    H244105   3.382   6.063  16.535 -0.2508 -0.6986 -0.7735
 7564TIP3   OH244106   1.528   0.398  12.348  0.9389 -0.1126 -0.1711
 7564TIP3    H144107   1.459   0.434  12.403  0.8847 -0.8700  0.2727
 7564TIP3    H244108   1.512   0.435  12.261  0.6257  0.5654  0.1693
 7565TIP3   OH244109   6.435   4.697  12.071 -0.6386 -0.2103 -0.3993
 7565TIP3    H144110   6.461   4.776  12.119 -0.2417 -1.1985  1.0980
 7565TIP3    H244111   6.431   4.628  12.138 -0.9931 -1.4635 -1.6468
 7566TIP3   OH244112   5.195   4.192  11.524 -0.1777  0.1792  0.2125
 7566TIP3    H144113   5.210   4.253  11.452 -0.9983  0.5601  0.3533
 7566TIP3    H244114   5.204   4.246  11.603  3.0209 -0.6569  0.5770
 7567TIP3   OH244115   3.640   5.527  16.393 -0.0434 -0.2334 -0.0200
 7567TIP3    H144116   3.579   5.485  16.455 -0.3132  1.3610  0.8520
 7567TIP3    H244117   3.589   5.596  16.351  0.4627 -0.5584 -1.2070
 7568TIP3   OH244118   4.601   6.771   3.700 -0.1054  0.8168 -0.0381
 7568TIP3    H144119   4.676   6.713   3.689 -1.2123 -0.6611 -0.1098
 7568TIP3    H244120   4.584   6.772   3.794 -2.8391 -2.7905 -0.2662
 7569TIP3   OH244121   3.444   5.952   0.009 -0.2440 -0.2338  0.2781
 7569TIP3    H144122   3.355   5.927  -0.016 -1.1682 -0.7527  3.6333
 7569TIP3    H244123   3.493   5.870   0.007  0.0355 -0.0463 -1.0140
 7570TIP3   OH244124   0.035   2.961   2.601 -0.1567 -0.5211 -0.6474
 7570TIP3    H144125   0.113   3.005   2.566  0.1640 -0.2570  0.3483
 7570TIP3    H244126  -0.022   3.033   2.628  0.1265 -0.6962  0.4689
 7571TIP3   OH244127   1.896   3.318   0.804  0.5558  0.3432  0.0498
 7571TIP3    H144128   1.933   3.249   0.859  1.3438  1.3136  0.7674
 7571TIP3    H244129   1.809   3.335   0.841  0.4865 -0.0452  0.0631
 7572TIP3   OH244130   4.337   3.031  14.148 -0.7728 -0.3237  0.2441
 7572TIP3    H144131   4.268   3.002  14.088 -1.3107  2.9792 -0.9375
 7572TIP3    H244132   4.310   3.118  14.176  2.0942  0.4166  1.0536
 7573TIP3   OH244133   2.354   5.710   5.875  0.7116 -0.1132  0.6104
 7573TIP3    H144134   2.361   5.757   5.792 -0.7419  0.1993  0.6383
 7573TIP3    H244135   2.441   5.674   5.890  1.3061  0.8529 -0.4362
 7574TIP3   OH244136   1.296   6.517  12.570  0.1559 -0.6108 -0.0672
 7574TIP3    H144137   1.274   6.526  12.663  0.6413 -0.6864  0.0579
 7574TIP3    H244138   1.215   6.540  12.524 -0.1191 -0.6747  0.3752
 7575TIP3   OH244139   4.453   3.283   3.402 -0.8414  0.1166  0.1194
 7575TIP3    H144140   4.525   3.257   3.460 -0.4533  3.2881  1.2370
 7575TIP3    H244141   4.496   3.316   3.323 -1.3169 -2.2549 -1.2262
 7576TIP3   OH244142   2.663   2.129  12.550  0.4463 -0.2845 -0.1553
 7576TIP3    H144143   2.573   2.130  12.517  0.2043  3.2170  0.2303
 7576TIP3    H244144   2.662   2.063  12.620 -1.6692 -0.6666 -0.4667
 7577TIP3   OH244145   2.160   0.794  17.105 -0.5118 -0.2750 -0.0803
 7577TIP3    H144146   2.083   0.824  17.056 -0.7279  0.0840  0.4596
 7577TIP3    H244147   2.131   0.795  17.197 -0.0939 -0.8508  0.0601
 7578TIP3   OH244148   2.422   5.063   0.243 -0.2877  0.1267 -0.2084
 7578TIP3    H144149   2.470   5.116   0.180  0.1598  1.1054  0.9219
 7578TIP3    H244150   2.485   4.995   0.270 -0.7282 -0.7689 -1.3487
 7579TIP3   OH244151   0.799   1.719  16.409 -0.1295 -0.0680  0.6395
 7579TIP3    H144152   0.858   1.788  16.441  0.8481 -0.7517  0.3197
 7579TIP3    H244153   0.713   1.762  16.406  0.2336  0.7821  1.6407
 7580TIP3   OH244154   2.010   4.876   3.328 -0.0822 -0.2510 -0.0780
 7580TIP3    H144155   2.052   4.879   3.414 -1.1757 -2.4629  0.6020
 7580TIP3    H244156   2.079   4.849   3.268  0.2665 -0.5041  0.4315
 7581TIP3   OH244157   1.023   3.065  14.648 -0.1392 -0.9776 -0.3912
 7581TIP3    H144158   0.955   3.083  14.584  0.2895  0.8662 -0.3689
 7581TIP3    H244159   1.093   3.024  14.598 -1.2395 -3.0066 -0.3961
 7582TIP3   OH244160   0.023   0.867   3.354  0.2582 -0.8909 -0.0701
 7582TIP3    H144161   0.092   0.835   3.296  0.6110 -0.8647  0.3358
 7582TIP3    H244162   0.065   0.876   3.440  0.3632  1.3818 -0.3110
 7583TIP3   OH244163   6.231   3.754   2.976  0.2485 -0.3089 -0.2179
 7583TIP3    H144164   6.255   3.753   3.069  0.5483 -1.2874 -0.3019
 7583TIP3    H244165   6.203   3.665   2.957 -0.3806  0.0276 -0.9310
 7584TIP3   OH244166   4.314   0.210   3.070 -0.3178  0.1191  0.2929
 7584TIP3    H144167   4.358   0.268   3.008 -0.7997  0.3002  0.1131
 7584TIP3    H244168   4.337   0.244   3.156  1.6472 -1.0673  0.2955
 7585TIP3   OH244169   4.100   4.917  15.485 -0.2043 -0.1880  0.8065
 7585TIP3    H144170   4.033   4.896  15.420  0.1865 -1.0051  0.6605
 7585TIP3    H244171   4.170   4.855  15.468  0.8356  1.0102  0.5985
 7586TIP3   OH244172   0.203   5.806   4.491  0.0024 -1.0518  0.1675
 7586TIP3    H144173   0.148   5.881   4.511 -0.1073 -1.7278  2.6961
 7586TIP3    H244174   0.288   5.844   4.467 -0.8120 -0.0856 -1.3249
 7587TIP3   OH244175   5.491   2.518   5.359 -0.2228 -0.1486  0.1258
 7587TIP3    H144176   5.513   2.556   5.274 -0.0141  0.4956  0.4595
 7587TIP3    H244177   5.572   2.476   5.388 -0.8572 -2.2181 -0.9247
 7588TIP3   OH244178   1.671   5.693   4.807 -0.2257  0.0214  0.3044
 7588TIP3    H144179   1.753   5.718   4.766 -1.4444  0.7238 -1.8945
 7588TIP3    H244180   1.668   5.744   4.888  0.8567  1.1094 -0.3067
 7589TIP3   OH244181   4.623   4.623   0.513  0.1630 -0.5635 -0.6536
 7589TIP3    H144182   4.619   4.681   0.437 -1.5300  0.3473  0.0814
 7589TIP3    H244183   4.583   4.673   0.584  0.0208 -2.0811  0.3811
 7590TIP3   OH244184   6.547   3.806  14.903 -0.3892 -0.0444 -0.1700
 7590TIP3    H144185   6.546   3.882  14.962 -1.8918 -0.0398 -0.1534
 7590TIP3    H244186   6.499   3.836  14.826  2.3651  0.2672 -1.8975
 7591TIP3   OH244187   5.366   2.653   2.337  0.6794 -0.1308 -0.5419
 7591TIP3    H144188   5.368   2.692   2.249  0.2941 -0.5201 -0.7307
 7591TIP3    H244189   5.275   2.664   2.365  1.1089  1.2221  0.3838
 7592TIP3   OH244190   4.079   0.194   2.793 -0.2121  0.0803 -0.0128
 7592TIP3    H144191   3.997   0.169   2.750 -0.1419  1.4236 -1.0026
 7592TIP3    H244192   4.138   0.121   2.777 -1.1569 -0.8453  0.5900
 7593TIP3   OH244193   0.937   5.147  11.222  0.5674 -0.2579  0.0064
 7593TIP3    H144194   0.935   5.082  11.152 -1.2887  0.6432 -0.8080
 7593TIP3    H244195   1.016   5.198  11.205  0.9863 -1.0438 -0.4803
 7594TIP3   OH244196   5.399   1.573   2.940  0.5140  0.3752 -0.0905
 7594TIP3    H144197   5.437   1.501   2.991  0.2243  2.7401  3.9621
 7594TIP3    H244198   5.340   1.531   2.878 -0.6722 -2.9268  2.9457
 7595TIP3   OH244199   4.609   3.920   1.041 -0.1467 -0.7365 -0.5873
 7595TIP3    H144200   4.704   3.914   1.053 -0.3121 -2.1723  0.2587
 7595TIP3    H244201   4.598   3.973   0.962  1.3287  0.1701 -0.2302
 7596TIP3   OH244202   2.893   5.329   1.267 -0.2241 -0.0139 -0.4147
 7596TIP3    H144203   2.887   5.237   1.244 -1.2302  0.0698 -0.5197
 7596TIP3    H244204   2.815   5.347   1.318  0.3933  0.5808  0.3551
 7597TIP3   OH244205   6.270   4.789  13.021  0.6902  0.0435  0.3020
 7597TIP3    H144206   6.228   4.703  13.027  0.2969  0.3117  1.9667
 7597TIP3    H244207   6.266   4.812  12.928 -1.8426 -0.4513  0.2232
 7598TIP3   OH244208   6.202   0.147  11.800  0.0206  0.3525 -0.2909
 7598TIP3    H144209   6.159   0.166  11.883  0.2046  3.0007 -0.7287
 7598TIP3    H244210   6.286   0.108  11.824 -1.3996 -2.4062  0.6144
 7599TIP3   OH244211   6.545   5.280  11.713 -0.0463 -0.4045  0.1745
 7599TIP3    H144212   6.632   5.278  11.753  0.2136  1.6293 -0.1970
 7599TIP3    H244213   6.521   5.373  11.711 -1.6162 -0.7866 -1.0256
 7600TIP3   OH244214   0.908   3.388   4.061  0.4815 -0.0595  0.5795
 7600TIP3    H144215   0.915   3.293   4.047  1.4681  0.4064 -3.1794
 7600TIP3    H244216   0.818   3.401   4.091 -0.5715 -2.0545 -1.3573
 7601TIP3   OH244217   1.598   3.159  12.490 -0.6319  0.3571 -0.5948
 7601TIP3    H144218   1.577   3.159  12.584 -1.8482 -1.7491 -0.7943
 7601TIP3    H244219   1.689   3.186  12.485  0.4471 -2.4110  1.5198
 7602TIP3   OH244220   1.984   5.937  12.359 -0.2969  0.0234  0.6365
 7602TIP3    H144221   1.911   5.877  12.369  1.2047 -1.9880  0.3003
 7602TIP3    H244222   2.062   5.883  12.371  1.2227  1.4362 -1.7289
 7603TIP3   OH244223   3.613   1.276  14.752  0.6746 -0.1060 -0.4453
 7603TIP3    H144224   3.623   1.216  14.826  1.7909 -0.5017 -0.9026
 7603TIP3    H244225   3.556   1.345  14.786  2.3546  0.5280  1.2959
 7604TIP3   OH244226   0.610   5.072  13.607  0.0188 -0.8807  0.0209
 7604TIP3    H144227   0.572   5.159  13.614  1.8919 -0.0855  0.9446
 7604TIP3    H244228   0.597   5.047  13.516 -1.2426  0.0099 -0.0677
 7605TIP3   OH244229   2.149   2.655  12.817 -0.5502  0.4786  0.1681
 7605TIP3    H144230   2.141   2.710  12.739  1.6792  0.4479 -0.1603
 7605TIP3    H244231   2.239   2.669  12.847 -0.6079 -1.3182  1.3635
 7606TIP3   OH244232   4.561   0.660  13.729  0.0505  0.1648 -0.2271
 7606TIP3    H144233   4.606   0.651  13.644  0.0334  1.2397 -0.3615
 7606TIP3    H244234   4.631   0.662  13.793  0.0462 -1.2128 -0.1325
 7607TIP3   OH244235   2.552   1.093   2.061 -0.3982  0.0142  0.3976
 7607TIP3    H144236   2.570   1.027   1.995 -2.0958 -0.5558  0.4627
 7607TIP3    H244237   2.471   1.134   2.033  0.3809  1.8028  0.6003
 7608TIP3   OH244238   3.425   5.494  12.079 -0.5124  0.3520 -0.6557
 7608TIP3    H144239   3.428   5.472  11.986 -1.7660  0.6164 -0.7852
 7608TIP3    H244240   3.516   5.491  12.108 -0.2224 -0.9533 -1.5960
 7609TIP3   OH244241   1.838   2.655   4.691 -0.0490  0.7359 -0.2437
 7609TIP3    H144242   1.836   2.626   4.782  0.1892 -0.6563 -0.6593
 7609TIP3    H244243   1.917   2.709   4.685  1.0183 -0.7409 -0.0503
 7610TIP3   OH244244   4.886   0.733   4.791  0.2341  0.3850 -0.3335
 7610TIP3    H144245   4.792   0.714   4.795  0.2939 -0.0902 -1.0092
 7610TIP3    H244246   4.896   0.814   4.841 -0.5240  0.4094 -0.2019
 7611TIP3   OH244247   0.946   0.792  11.239  0.1959  0.2299  0.6887
 7611TIP3    H144248   1.034   0.764  11.214 -0.8604 -1.7869 -1.0376
 7611TIP3    H244249   0.945   0.786  11.335  1.2651 -1.9510  0.6064
 7612TIP3   OH244250   6.644   2.647   3.701  0.0357 -0.6640  0.5177
 7612TIP3    H144251   6.582   2.666   3.630 -0.8979 -0.6936  1.3128
 7612TIP3    H244252   6.728   2.635   3.656 -0.2332  0.7754 -0.4598
 7613TIP3   OH244253   4.105   1.128   0.250 -0.0624  0.0348  0.0189
 7613TIP3    H144254   4.193   1.140   0.284  0.5231 -0.6436 -1.2119
 7613TIP3    H244255   4.090   1.034   0.252 -1.2790  0.2294  1.4368
 7614TIP3   OH244256   3.357   3.734  10.845 -0.2321 -0.1831 -0.3203
 7614TIP3    H144257   3.277   3.723  10.896 -1.1231  1.4591 -1.2862
 7614TIP3    H244258   3.428   3.718  10.907 -1.2958 -0.1598  0.9309
 7615TIP3   OH244259   3.887   2.381   3.586  0.1556  0.3791 -0.0916
 7615TIP3    H144260   3.863   2.291   3.610 -0.0313  0.0250 -1.5428
 7615TIP3    H244261   3.967   2.372   3.535  0.0868  1.0337 -0.3294
 7616TIP3   OH244262   2.175   2.740   1.501 -0.0979 -0.4004 -0.3908
 7616TIP3    H144263   2.233   2.816   1.493  0.3476 -0.9009 -2.5227
 7616TIP3    H244264   2.233   2.665   1.502 -0.5973 -0.8010  0.6341
 7617TIP3   OH244265   4.964   1.022  13.190 -0.2978 -0.3122 -0.0925
 7617TIP3    H144266   4.956   1.041  13.284 -0.7863  0.5098 -0.2896
 7617TIP3    H244267   4.949   0.928  13.184  2.3082 -0.8957  0.9312
 7618TIP3   OH244268   3.530   6.100   4.348  0.1585  0.4885  0.2408
 7618TIP3    H144269   3.462   6.034   4.337 -0.2083  0.7743  0.7515
 7618TIP3    H244270   3.583   6.094   4.268  0.4228 -0.7396  0.4892
 7619TIP3   OH244271   3.537   3.166  16.675 -0.2940 -0.1460  0.4700
 7619TIP3    H144272   3.500   3.190  16.590  0.4552 -0.5361  0.0229
 7619TIP3    H244273   3.556   3.250  16.717  1.1062  0.0873 -0.5550
 7620TIP3   OH244274   2.533   1.508   4.276 -0.0985 -0.2266  0.4834
 7620TIP3    H144275   2.545   1.421   4.315  0.8709 -0.4171 -0.2037
 7620TIP3    H244276   2.540   1.494   4.182  1.6471  0.7894  0.4134
 7621TIP3   OH244277   6.536   1.576   0.222 -0.5129 -0.1720  0.1447
 7621TIP3    H144278   6.506   1.638   0.157  0.7071  2.4949  1.9445
 7621TIP3    H244279   6.617   1.615   0.257  0.5532 -2.9879  1.1147
 7622TIP3   OH244280   1.578   1.149  15.147 -0.6336  0.1739  0.0998
 7622TIP3    H144281   1.576   1.164  15.241  0.5683 -0.0943  0.1892
 7622TIP3    H244282   1.502   1.196  15.113 -2.5669 -1.7734  1.4638
 7623TIP3   OH244283   0.961   4.017   3.145 -0.4378 -0.2562 -0.1442
 7623TIP3    H144284   0.934   4.072   3.219 -1.2561 -1.0282  0.1423
 7623TIP3    H244285   0.901   3.943   3.146  0.9696 -1.4420 -0.2204
 7624TIP3   OH244286   0.606   0.278   0.642  0.2300 -0.3612 -0.6884
 7624TIP3    H144287   0.633   0.283   0.733 -1.7666 -1.3086  0.0067
 7624TIP3    H244288   0.599   0.370   0.614 -0.0495 -0.0387  0.4063
 7625TIP3   OH244289   2.835   3.615   0.012 -0.0662  0.2038  0.3302
 7625TIP3    H144290   2.759   3.572   0.051  0.0277 -0.9731 -0.7247
 7625TIP3    H244291   2.805   3.705  -0.006 -0.9646 -0.0346  0.5992
 7626TIP3   OH244292   3.312   6.220   1.294  0.3346 -0.1373  0.3558
 7626TIP3    H144293   3.375   6.161   1.252 -0.6990 -1.4082  0.5293
 7626TIP3    H244294   3.348   6.307   1.279  0.6536 -0.6096 -2.0983
 7627TIP3   OH244295   6.689   2.621  14.161  0.0142 -1.0494  0.5165
 7627TIP3    H144296   6.759   2.687  14.159 -0.3952 -0.6353 -0.5637
 7627TIP3    H244297   6.609   2.671  14.175  0.0976 -1.7167  4.9578
 7628TIP3   OH244298   1.778   2.376   3.915  0.7260 -0.1145  0.1017
 7628TIP3    H144299   1.751   2.460   3.877 -1.0605 -0.6923 -0.0167
 7628TIP3    H244300   1.823   2.331   3.843  0.7884  0.3437 -0.1501
 7629TIP3   OH244301   1.711   4.879  16.628  0.5071 -0.4850 -0.3122
 7629TIP3    H144302   1.766   4.846  16.699  0.9096 -0.7816 -0.7618
 7629TIP3    H244303   1.629   4.830  16.636  1.5425 -2.6080 -1.7699
 7630TIP3   OH244304   4.141   0.568   5.599 -0.3994 -0.0751  0.0460
 7630TIP3    H144305   4.220   0.577   5.546 -0.5071 -0.3351 -0.1603
 7630TIP3    H244306   4.172   0.565   5.690 -0.2264  0.5188  0.0119
 7631TIP3   OH244307   2.178   3.652   5.078  0.6051  0.6301  0.2019
 7631TIP3    H144308   2.099   3.655   5.024  1.1203  2.0708 -0.5302
 7631TIP3    H244309   2.194   3.743   5.103  2.8987  0.6448 -1.0168
 7632TIP3   OH244310   3.819   4.942  12.368 -0.5353  0.0093  0.6416
 7632TIP3    H144311   3.775   5.006  12.424 -2.7166  1.0369 -2.0538
 7632TIP3    H244312   3.761   4.866  12.368  0.3475 -0.6843  1.1351
 7633TIP3   OH244313   2.113   3.427   4.783 -0.1241  0.1012  0.6842
 7633TIP3    H144314   2.118   3.342   4.827 -0.8769  0.1955  0.9650
 7633TIP3    H244315   2.031   3.466   4.814 -0.2068  0.5710 -0.0788
 7634TIP3   OH244316   1.020   0.817  13.925 -0.2887 -0.0902 -0.0861
 7634TIP3    H144317   1.087   0.865  13.878 -0.3702  0.5045  0.3840
 7634TIP3    H244318   1.066   0.744  13.966 -0.5815 -1.9733 -2.8828
 7635TIP3   OH244319   3.876   3.242   6.084  0.1351  0.4172 -0.2420
 7635TIP3    H144320   3.813   3.175   6.059 -0.1041  1.1677 -1.7069
 7635TIP3    H244321   3.835   3.325   6.061  1.1928  0.9759 -0.2080
 7636TIP3   OH244322   4.238   0.704  12.885  0.3019  0.4942  0.4504
 7636TIP3    H144323   4.314   0.745  12.845 -0.3168  1.9855  0.7578
 7636TIP3    H244324   4.171   0.772  12.888  0.0930  0.3029  3.4068
 7637TIP3   OH244325   6.195   3.140   1.840 -0.2786  0.7462  0.1145
 7637TIP3    H144326   6.214   3.068   1.780 -0.2921  0.8461 -0.0098
 7637TIP3    H244327   6.103   3.127   1.864 -0.6137  1.3522 -0.7773
 7638TIP3   OH244328   0.696   0.773   2.702  0.4537  0.3233  0.3132
 7638TIP3    H144329   0.686   0.694   2.649 -1.4774  0.1024  0.9298
 7638TIP3    H244330   0.626   0.831   2.672  0.8653  1.1624  0.9491
 7639TIP3   OH244331   5.027   2.714   4.235 -0.0710 -0.4047 -0.2256
 7639TIP3    H144332   4.960   2.688   4.297 -1.0471 -0.5059 -1.2874
 7639TIP3    H244333   5.041   2.807   4.252 -0.6426 -0.3348 -0.1406
 7640TIP3   OH244334   1.356   5.196  13.066 -0.4460  0.8211 -0.7510
 7640TIP3    H144335   1.294   5.146  13.119  0.9208 -0.5506 -0.3633
 7640TIP3    H244336   1.356   5.152  12.981  0.4837  0.3595 -0.5283
 7641TIP3   OH244337   1.243   2.062   2.305 -0.0036  0.3649  0.2606
 7641TIP3    H144338   1.318   2.036   2.251  1.6892  2.3878  1.4930
 7641TIP3    H244339   1.209   1.979   2.340  3.3895 -0.5491  1.8593
 7642TIP3   OH244340   2.499   3.999  14.859 -0.5945  0.4059  0.0227
 7642TIP3    H144341   2.502   3.944  14.780 -0.9986 -0.7821  0.8147
 7642TIP3    H244342   2.414   4.042  14.855 -1.1138 -0.5570  0.3862
 7643TIP3   OH244343   4.923   2.304  14.171  0.3710 -0.0588 -0.4382
 7643TIP3    H144344   4.991   2.247  14.134  1.6711  2.0425 -1.4619
 7643TIP3    H244345   4.971   2.367  14.225 -0.7516  1.3715 -1.0406
 7644TIP3   OH244346   6.700   5.872  12.520 -0.0978 -0.4786 -0.0359
 7644TIP3    H144347   6.686   5.835  12.607 -0.5461 -0.8582 -0.2687
 7644TIP3    H244348   6.674   5.803  12.460 -0.2940 -0.0283 -0.4734
 7645TIP3   OH244349   2.717   6.254  14.076  0.4423  0.1304 -0.1670
 7645TIP3    H144350   2.813   6.249  14.075  0.5570  1.2357  1.6498
 7645TIP3    H244351   2.690   6.188  14.140  0.1257  1.0636  0.6822
 7646TIP3   OH244352   1.722   5.381  14.556 -0.1136  0.7603  0.1710
 7646TIP3    H144353   1.783   5.434  14.607  0.7047 -1.4043  1.5781
 7646TIP3    H244354   1.638   5.393  14.600  0.2152  0.3465  0.9303
 7647TIP3   OH244355   1.567   4.819   6.389 -0.5910  0.0927 -0.4420
 7647TIP3    H144356   1.566   4.728   6.419 -1.2945 -0.8964 -3.1644
 7647TIP3    H244357   1.476   4.837   6.365 -0.4678  1.5700  0.0967
 7648TIP3   OH244358   0.263   1.773   1.537 -0.3009 -0.2986  0.1728
 7648TIP3    H144359   0.249   1.693   1.487 -0.4488  0.0581 -0.3664
 7648TIP3    H244360   0.297   1.836   1.474  2.0981 -0.6022  1.0654
 7649TIP3   OH244361   3.889   3.068   5.552 -0.0344  0.0659 -0.4451
 7649TIP3    H144362   3.888   3.063   5.456  1.0843 -0.1621 -0.4546
 7649TIP3    H244363   3.935   3.150   5.571  0.9195 -0.5383 -0.1001
 7650TIP3   OH244364   6.165   6.513  12.914 -0.0709  0.0111  0.6334
 7650TIP3    H144365   6.198   6.463  12.839 -1.0048  0.5540 -0.1782
 7650TIP3    H244366   6.171   6.605  12.886 -1.6840  0.1605  0.6440
 7651TIP3   OH244367   3.024   1.119   4.124 -0.5204  0.6875 -0.5910
 7651TIP3    H144368   3.021   1.079   4.037 -1.4591  0.3103 -0.4017
 7651TIP3    H244369   3.117   1.132   4.142 -0.2251 -0.7465 -0.9784
 7652TIP3   OH244370   4.921   6.500  12.924 -0.4144 -0.2958  0.3244
 7652TIP3    H144371   4.938   6.504  12.830  2.0701  1.6175  0.7585
 7652TIP3    H244372   4.962   6.419  12.953 -2.0196 -1.3962 -0.2977
 7653TIP3   OH244373   2.397   2.607  13.174  0.5849  0.3448 -0.2176
 7653TIP3    H144374   2.465   2.545  13.200  0.4502  0.2756 -0.0200
 7653TIP3    H244375   2.411   2.622  13.081  0.7259  0.1505 -0.2272
 7654TIP3   OH244376   6.654   1.853   0.787 -0.0954  0.0716 -0.4642
 7654TIP3    H144377   6.714   1.897   0.848 -0.2858  0.0374 -0.2511
 7654TIP3    H244378   6.569   1.893   0.805 -0.0421  0.5096 -1.1414
 7655TIP3   OH244379   6.092   2.720  11.673  0.1131  0.5157 -0.0177
 7655TIP3    H144380   6.006   2.747  11.705  0.1695  0.7836 -0.0856
 7655TIP3    H244381   6.099   2.762  11.587  0.2473  0.3630 -0.0810
 7656TIP3   OH244382   5.973   4.488   5.311 -0.4104  0.0286  0.2807
 7656TIP3    H144383   5.887   4.488   5.269 -0.5525 -0.1916  0.5680
 7656TIP3    H244384   6.033   4.457   5.243 -0.5453  0.2492  0.0583
 7657TIP3   OH244385   6.294   1.519  11.316  0.6128 -0.4386  0.2373
 7657TIP3    H144386   6.262   1.498  11.228 -1.6238 -1.3948  1.2115
 7657TIP3    H244387   6.353   1.593  11.303 -0.0446 -0.2392 -1.9948
 7658TIP3   OH244388   1.472   2.240  12.637  0.5594 -0.3942 -0.0290
 7658TIP3    H144389   1.485   2.271  12.727  0.7974 -0.7593  0.0615
 7658TIP3    H244390   1.551   2.268  12.591  0.2964  0.0790 -0.2090
 7659TIP3   OH244391   6.364   2.785   3.263 -0.5557  0.8197  0.1565
 7659TIP3    H144392   6.307   2.795   3.186  1.2364  0.6438 -1.2544
 7659TIP3    H244393   6.371   2.873   3.299 -0.0175  1.2539 -0.9544
 7660TIP3   OH244394   1.985   2.644  11.564  0.1300 -0.0183 -0.4238
 7660TIP3    H144395   2.060   2.595  11.596 -0.7952 -1.9157 -1.0531
 7660TIP3    H244396   1.955   2.694  11.640  0.2779 -1.4704  0.6317
 7661TIP3   OH244397   5.613   0.270   1.713  0.8467 -0.1559 -0.3356
 7661TIP3    H144398   5.684   0.308   1.765  0.8395  0.2884 -0.6478
 7661TIP3    H244399   5.655   0.201   1.662  1.0975  0.2317 -0.6616
 7662TIP3   OH244400   1.196   0.833   2.887  0.3922  0.0686  0.4001
 7662TIP3    H144401   1.250   0.891   2.940  1.3791  0.8276 -1.3665
 7662TIP3    H244402   1.225   0.848   2.797  0.8451 -3.2972 -0.1628
 7663TIP3   OH244403   2.256   4.278  14.292 -0.5474 -0.0649 -0.4152
 7663TIP3    H144404   2.216   4.252  14.374  2.3834 -1.1132  0.8321
 7663TIP3    H244405   2.265   4.197  14.242  0.1557  0.1012 -0.5756
 7664TIP3   OH244406   2.136   5.569  16.559  0.3888  0.4375 -0.2508
 7664TIP3    H144407   2.085   5.615  16.492  2.2872  1.4565 -1.0713
 7664TIP3    H244408   2.205   5.524  16.511  1.1725  0.3219  0.9164
 7665TIP3   OH244409   5.105   4.326  14.774  0.5829 -0.2481 -0.2823
 7665TIP3    H144410   5.141   4.325  14.862 -3.6336  0.0547  1.6656
 7665TIP3    H244411   5.081   4.234  14.757  0.5351 -0.1502 -0.7694
 7666TIP3   OH244412   5.803   4.752  14.867  0.4196  0.3667  0.2601
 7666TIP3    H144413   5.855   4.754  14.948 -0.6794  0.4943  0.9798
 7666TIP3    H244414   5.775   4.661  14.859 -2.2196  0.9216  1.8692
 7667TIP3   OH244415   4.195   2.434  15.326  0.2060 -0.2517  0.5185
 7667TIP3    H144416   4.209   2.411  15.418  2.6048  0.3902  0.3875
 7667TIP3    H244417   4.117   2.385  15.300  0.3899 -1.6767  2.4678
 7668TIP3   OH244418   4.287   6.152  11.726 -0.1483 -0.2333  0.4701
 7668TIP3    H144419   4.260   6.065  11.756 -0.7151 -0.2977 -0.1994
 7668TIP3    H244420   4.214   6.209  11.749  0.2119  0.0743  0.8866
 7669TIP3   OH244421   3.525   0.248   6.006 -0.3883  0.3217  0.4521
 7669TIP3    H144422   3.544   0.211   5.919 -0.1787  0.5360  0.4039
 7669TIP3    H244423   3.444   0.206   6.033 -0.2115 -0.0918  0.3491
 7670TIP3   OH244424   3.189   5.584   0.053  0.7543  0.0859 -0.3067
 7670TIP3    H144425   3.236   5.622  -0.022  1.0058  0.9136  0.2516
 7670TIP3    H244426   3.233   5.621   0.129  1.4682 -1.8959  0.3021
 7671TIP3   OH244427   5.864   5.729   3.218  0.0798  0.1200 -0.4993
 7671TIP3    H144428   5.924   5.803   3.213  1.2417 -0.8249 -4.7452
 7671TIP3    H244429   5.779   5.765   3.195  0.3020  0.4465 -0.8306
 7672TIP3   OH244430   1.179   4.943  14.505  0.3659  0.1951 -0.5446
 7672TIP3    H144431   1.093   4.948  14.462  0.3053 -2.3417 -0.8834
 7672TIP3    H244432   1.160   4.948  14.598  0.0423  1.3356 -0.6601
 7673TIP3   OH244433   4.961   6.304  14.482 -0.0642  0.0885 -0.9722
 7673TIP3    H144434   4.952   6.345  14.396 -0.0099  1.4520 -0.3593
 7673TIP3    H244435   5.056   6.301  14.498 -0.1144  0.9132 -0.4778
 7674TIP3   OH244436   5.813   2.563  11.148 -0.1195  0.4292 -0.2999
 7674TIP3    H144437   5.763   2.604  11.077 -1.0393 -1.1057 -0.5918
 7674TIP3    H244438   5.904   2.583  11.128 -0.3760  0.1901 -1.8341
 7675TIP3   OH244439   2.794   3.626   6.493 -0.3850 -0.4451 -0.7846
 7675TIP3    H144440   2.756   3.615   6.580  1.1988  1.8963  0.3205
 7675TIP3    H244441   2.866   3.564   6.490 -0.0414 -0.0872 -0.1472
 7676TIP3   OH244442   6.080   3.302  16.601  0.4525  0.6806  0.5216
 7676TIP3    H144443   6.136   3.380  16.609  0.7791  0.6522 -1.0858
 7676TIP3    H244444   5.995   3.336  16.575  0.8947  0.4591 -1.3116
 7677TIP3   OH244445   4.810   1.029   0.254  0.0251 -0.0503  0.3846
 7677TIP3    H144446   4.765   1.059   0.333 -2.1386 -2.8746  0.3589
 7677TIP3    H244447   4.741   1.024   0.188  0.7301 -2.5862 -0.2490
 7678TIP3   OH244448   5.533   2.102   1.945  0.7496  0.1745  0.1667
 7678TIP3    H144449   5.614   2.053   1.939  0.2248 -0.7889  0.7521
 7678TIP3    H244450   5.466   2.045   1.907  0.4179  1.1873 -0.8577
 7679TIP3   OH244451   0.705   0.014   1.405 -0.1352 -0.7238  0.0674
 7679TIP3    H144452   0.681  -0.068   1.448  0.6719 -1.4612 -0.8579
 7679TIP3    H244453   0.735  -0.011   1.318 -1.9088  0.7604 -1.0426
 7680TIP3   OH244454   5.434   6.674  13.094 -0.2199 -0.3877  0.5608
 7680TIP3    H144455   5.377   6.674  13.170  0.2139 -1.9566  0.9187
 7680TIP3    H244456   5.374   6.671  13.019 -0.6281  0.4038  0.8378
 7681TIP3   OH244457   2.901   4.996  15.725  0.2219 -0.3700 -0.5820
 7681TIP3    H144458   2.935   4.923  15.674 -0.5124 -0.4607 -0.9554
 7681TIP3    H244459   2.845   5.045  15.663 -0.6181 -0.4380  0.1001
 7682TIP3   OH244460   1.819   3.390  15.183  0.6153  0.1297 -0.5053
 7682TIP3    H144461   1.911   3.380  15.160  0.7387 -1.0289  0.4094
 7682TIP3    H244462   1.785   3.301  15.190 -0.0808  0.4718  1.0434
 7683TIP3   OH244463   1.238   1.032  14.687  0.3781  0.1684 -0.5985
 7683TIP3    H144464   1.151   1.031  14.648  1.0947 -0.1676 -2.2604
 7683TIP3    H244465   1.287   0.966  14.639  1.4923  0.1719  0.4780
 7684TIP3   OH244466   1.382   1.980  12.662  0.1339  0.2633  0.2036
 7684TIP3    H144467   1.390   2.057  12.605  0.0509 -0.2281 -0.4851
 7684TIP3    H244468   1.445   1.994  12.731  0.8454  0.4745 -0.4759
 7685TIP3   OH244469   4.661   2.238   3.753  0.0568 -0.4704 -0.1541
 7685TIP3    H144470   4.589   2.269   3.698  0.1241 -0.1042 -0.0453
 7685TIP3    H244471   4.662   2.299   3.827  1.3340  0.3749 -0.8313
 7686TIP3   OH244472   0.433   4.960  16.618  0.3248  0.7429  0.5573
 7686TIP3    H144473   0.455   4.949  16.526 -0.1985  1.3358  0.3550
 7686TIP3    H244474   0.352   4.911  16.630  0.7843  0.0391  0.8883
 7687TIP3   OH244475   2.267   2.227  16.005 -0.9624  0.9129  0.5611
 7687TIP3    H144476   2.206   2.207  15.934 -2.7860  2.9078  1.4350
 7687TIP3    H244477   2.230   2.182  16.081 -0.3763  0.7541  0.7576
 7688TIP3   OH244478   4.759   2.681   6.202  0.1754 -0.2679  0.1270
 7688TIP3    H144479   4.666   2.666   6.215  0.0706 -0.8407 -1.1709
 7688TIP3    H244480   4.788   2.609   6.145  2.0013 -1.6730  2.6410
 7689TIP3   OH244481   0.433   1.899   1.332 -0.2730  0.2984  0.2145
 7689TIP3    H144482   0.424   1.831   1.265 -1.6075 -0.6713  1.2885
 7689TIP3    H244483   0.508   1.871   1.385 -1.0405 -0.6200  0.8781
 7690TIP3   OH244484   0.538   1.319  12.291 -0.9290  0.2804  0.0166
 7690TIP3    H144485   0.526   1.293  12.200 -1.6385  1.2165 -0.1723
 7690TIP3    H244486   0.474   1.390  12.305  0.8685  1.9034  0.4999
 7691TIP3   OH244487   0.210   3.689   5.853  0.7101 -0.1431 -0.0455
 7691TIP3    H144488   0.245   3.602   5.837 -2.3468 -1.4368 -0.4340
 7691TIP3    H244489   0.140   3.675   5.918  0.9874  2.2501  0.8760
 7692TIP3   OH244490   3.515   4.149  13.072  0.2693  0.4507 -0.3634
 7692TIP3    H144491   3.538   4.237  13.042  0.7645  0.8738  1.2008
 7692TIP3    H244492   3.596   4.114  13.107 -0.5490  0.5016  1.7093
 7693TIP3   OH244493   1.241   2.143  11.376  0.5955  0.6478  0.7764
 7693TIP3    H144494   1.295   2.063  11.374 -0.4800 -0.0891  0.1316
 7693TIP3    H244495   1.255   2.182  11.289  0.4927  0.7279  0.7971
 7694TIP3   OH244496   3.997   0.169   2.297 -0.4603  0.7808  0.2265
 7694TIP3    H144497   4.078   0.131   2.331 -1.1479 -0.7331  0.2135
 7694TIP3    H244498   3.958   0.101   2.243 -1.9088  1.3723  0.4652
 7695TIP3   OH244499   5.920   2.862  14.258  0.1616  0.3574 -0.4279
 7695TIP3    H144500   5.849   2.812  14.298 -0.0186 -0.4081 -1.6303
 7695TIP3    H244501   5.957   2.802  14.193  0.2992  1.6206 -1.5449
 7696TIP3   OH244502   3.601   0.305   5.044  0.1592  0.2418 -0.4297
 7696TIP3    H144503   3.623   0.301   5.137  1.9893  1.2486 -0.7767
 7696TIP3    H244504   3.506   0.316   5.042 -0.0403 -0.8438  1.2784
 7697TIP3   OH244505   1.390   3.219  15.016  0.7704  0.0623  0.8058
 7697TIP3    H144506   1.448   3.295  15.016  1.3831 -0.2916  3.2419
 7697TIP3    H244507   1.439   3.152  15.064 -0.7244 -1.0237  0.8946
 7698TIP3   OH244508   1.579   3.425  13.984 -0.1568 -0.1730 -0.7034
 7698TIP3    H144509   1.525   3.347  13.975  2.1496 -1.7702 -1.6019
 7698TIP3    H244510   1.547   3.483  13.915 -1.0007 -0.8740 -0.9294
 7699TIP3   OH244511   2.181   2.446   1.033 -0.3728  0.2568 -0.6005
 7699TIP3    H144512   2.170   2.359   0.996  1.3935  0.6695 -2.2521
 7699TIP3    H244513   2.173   2.505   0.958  0.5025  1.3478  0.1391
 7700TIP3   OH244514   0.220   2.306  14.067 -0.9237  0.0234 -0.2173
 7700TIP3    H144515   0.189   2.222  14.099 -1.4657  0.1418 -0.4173
 7700TIP3    H244516   0.293   2.329  14.125 -1.8349  0.2005  0.8959
 7701TIP3   OH244517   5.779   2.210   0.936 -0.4566  0.1811 -0.2050
 7701TIP3    H144518   5.700   2.157   0.947  0.2091 -0.3985  2.3360
 7701TIP3    H244519   5.747   2.296   0.908 -1.8738 -0.3644 -0.3379
 7702TIP3   OH244520   5.124   2.774  12.676  0.0127 -0.0281 -0.1071
 7702TIP3    H144521   5.053   2.836  12.657  0.3753  0.6662  0.7322
 7702TIP3    H244522   5.091   2.722  12.749  0.5994  0.7499  0.7442
 7703TIP3   OH244523   1.928   5.454  15.182 -0.1614  0.3578 -0.1712
 7703TIP3    H144524   1.930   5.507  15.262 -0.4009  0.5977 -0.3201
 7703TIP3    H244525   1.901   5.367  15.211  0.8476  0.1462  0.1698
 7704TIP3   OH244526   3.010   2.189  10.627 -0.4455  0.3823 -0.5549
 7704TIP3    H144527   3.022   2.219  10.537  1.2212  1.0990 -0.1369
 7704TIP3    H244528   3.083   2.228  10.675 -2.0036  1.1041  1.3940
 7705TIP3   OH244529   1.956   5.713  16.830  0.4900 -0.2587 -0.5504
 7705TIP3    H144530   1.959   5.681  16.920  3.5482 -0.7824 -0.7272
 7705TIP3    H244531   1.890   5.660  16.787  0.4283 -1.4051  0.9088
 7706TIP3   OH244532   6.252   6.691  14.998 -0.5056  0.0595 -0.2863
 7706TIP3    H144533   6.200   6.765  14.967 -0.7008 -1.0178 -2.7160
 7706TIP3    H244534   6.334   6.698  14.949 -0.3226 -1.0287 -0.1560
 7707TIP3   OH244535   1.903   2.770   3.309 -0.7444 -0.3956 -0.4571
 7707TIP3    H144536   1.989   2.770   3.267 -1.2103  1.5173 -1.4950
 7707TIP3    H244537   1.871   2.680   3.299  0.7204 -0.8848 -0.8972
 7708TIP3   OH244538   0.405   2.786  15.311  0.0805 -0.4555  0.3673
 7708TIP3    H144539   0.356   2.819  15.386  0.2317 -0.4628  0.4709
 7708TIP3    H244540   0.374   2.837  15.237 -0.5171 -0.8729  0.3246
 7709TIP3   OH244541   1.863   4.316   1.447 -0.0911 -0.0473  0.1255
 7709TIP3    H144542   1.909   4.362   1.517 -1.4581  1.5553  0.0154
 7709TIP3    H244543   1.908   4.344   1.367 -0.1966  0.1922  0.1499
 7710TIP3   OH244544   2.397   6.577   6.432  0.4135 -0.1011 -0.1119
 7710TIP3    H144545   2.317   6.620   6.400  2.1814  0.7254 -4.0181
 7710TIP3    H244546   2.388   6.486   6.404  0.2644 -0.3518  0.7276
 7711TIP3   OH244547   4.449   4.463   4.318  0.0786 -0.1071  0.4644
 7711TIP3    H144548   4.471   4.531   4.382 -0.2264 -1.3879  1.9848
 7711TIP3    H244549   4.354   4.458   4.321  0.0780 -0.3124  0.0478
 7712TIP3   OH244550   4.944   5.240  15.365 -0.4845  0.6257 -0.4709
 7712TIP3    H144551   5.011   5.287  15.316  1.2645 -0.6877  0.5186
 7712TIP3    H244552   4.927   5.296  15.441  0.7095  0.2749  0.0916
 7713TIP3   OH244553   4.171   5.727  14.283 -0.6437 -0.2758  0.1756
 7713TIP3    H144554   4.226   5.660  14.242 -0.7828 -0.3334  0.0836
 7713TIP3    H244555   4.132   5.775  14.211 -1.3765 -0.7785  0.2312
 7714TIP3   OH244556   1.939   2.542   6.183  0.3365  0.2949  0.5700
 7714TIP3    H144557   1.886   2.554   6.261  0.4212 -0.8431  0.8296
 7714TIP3    H244558   1.925   2.450   6.158  1.5538  0.1829  0.1918
 7715TIP3   OH244559   4.277   4.920  11.834 -0.6468 -0.4515  0.0503
 7715TIP3    H144560   4.268   4.924  11.929 -0.1342 -0.8754  0.1230
 7715TIP3    H244561   4.354   4.973  11.815 -0.7475 -0.3688 -0.1245
 7716TIP3   OH244562   2.258   3.772  15.118 -0.0910 -0.2045  0.3316
 7716TIP3    H144563   2.235   3.865  15.124  2.6667  0.4707  2.3796
 7716TIP3    H244564   2.269   3.756  15.024  1.0973  2.0523  0.0329
 7717TIP3   OH244565   2.039   0.860  13.473  0.2400  0.1081  0.0764
 7717TIP3    H144566   2.105   0.909  13.523 -0.4196 -0.8987  2.0713
 7717TIP3    H244567   1.979   0.827  13.540 -2.4607  1.1654 -1.6841
 7718TIP3   OH244568   3.909   2.282  12.353 -0.0601  0.9724 -0.5979
 7718TIP3    H144569   3.845   2.353  12.355 -0.7214  0.3803 -0.3867
 7718TIP3    H244570   3.870   2.212  12.407  1.1027  0.8863  0.1836
 7719TIP3   OH244571   0.397   6.312  15.353 -0.2023 -0.6962  0.3742
 7719TIP3    H144572   0.391   6.397  15.309  1.1637 -1.3270 -1.1198
 7719TIP3    H244573   0.319   6.308  15.408  0.0054  1.8017  0.9917
 7720TIP3   OH244574   2.547   2.827  12.734  0.5940  0.1358 -0.6583
 7720TIP3    H144575   2.536   2.810  12.640  0.0609  2.2101 -1.0325
 7720TIP3    H244576   2.545   2.923  12.741 -1.6900  0.0413  1.7217
 7721TIP3   OH244577   1.844   3.868   0.734  0.2289  0.3264  1.2118
 7721TIP3    H144578   1.854   3.806   0.663  0.0882 -0.0538  1.5205
 7721TIP3    H244579   1.925   3.919   0.734 -0.3790  1.3665 -0.1953
 7722TIP3   OH244580   6.421   5.334  12.001  0.8296 -0.5012 -0.5931
 7722TIP3    H144581   6.399   5.368  12.088 -0.9361  1.3307 -1.6742
 7722TIP3    H244582   6.517   5.330  12.001  0.9323  0.6716  1.0100
 7723TIP3   OH244583   4.543   0.315   2.566 -0.0719 -0.0135 -0.0784
 7723TIP3    H144584   4.592   0.385   2.610  0.4192 -0.0831 -0.5023
 7723TIP3    H244585   4.588   0.234   2.591 -0.6018 -0.1855  0.3612
 7724TIP3   OH244586   5.545   4.277  14.005  0.2330 -0.4843 -0.1416
 7724TIP3    H144587   5.527   4.186  13.981  2.3265 -1.4331  1.5791
 7724TIP3    H244588   5.569   4.319  13.923 -0.6652 -1.4923 -0.9514
 7725TIP3   OH244589   3.912   6.087   5.570 -0.6783  0.4593 -0.5963
 7725TIP3    H144590   3.935   6.018   5.632  0.7650  1.3959 -0.0256
 7725TIP3    H244591   3.913   6.044   5.484 -2.3012 -0.7601 -0.0560
 7726TIP3   OH244592   4.384   1.072  17.111 -0.5883  0.0685  0.3037
 7726TIP3    H144593   4.462   1.051  17.060  0.1437 -1.2829  1.8697
 7726TIP3    H244594   4.315   1.018  17.073 -0.8709  1.4364 -1.2373
 7727TIP3   OH244595   0.151   2.621   4.219  0.0782  0.1050  0.4984
 7727TIP3    H144596   0.084   2.622   4.288 -1.2488  0.4737 -0.7508
 7727TIP3    H244597   0.218   2.560   4.251 -0.0092  0.9841  2.5414
 7728TIP3   OH244598   4.217   1.690  15.011  0.0454 -0.3810  0.2149
 7728TIP3    H144599   4.280   1.648  15.071  0.7994  0.3299 -0.0591
 7728TIP3    H244600   4.242   1.782  15.012 -1.5259  0.0578  0.7311
 7729TIP3   OH244601   6.362   5.039   1.964  0.4856  0.1778  0.3356
 7729TIP3    H144602   6.399   5.037   1.875 -1.0974 -1.3608 -0.3514
 7729TIP3    H244603   6.296   5.109   1.960 -0.9782 -1.1731 -0.3651
 7730TIP3   OH244604   2.040   5.659  15.890 -0.3828 -0.3460 -0.3172
 7730TIP3    H144605   2.103   5.596  15.855 -2.0474 -1.7167 -0.9931
 7730TIP3    H244606   2.088   5.706  15.958  1.4858 -1.0109 -1.1179
 7731TIP3   OH244607   5.908   6.403  14.615  0.6791 -0.2506  0.0011
 7731TIP3    H144608   5.959   6.327  14.588  1.0579  0.6753 -2.1092
 7731TIP3    H244609   5.904   6.397  14.710 -1.3380 -4.1685 -0.1435
 7732TIP3   OH244610   3.704   2.122   0.721 -0.0657  0.2029  0.1372
 7732TIP3    H144611   3.734   2.202   0.678  0.3749  0.4098  0.8095
 7732TIP3    H244612   3.619   2.145   0.759 -0.9774 -0.2839 -1.4727
 7733TIP3   OH244613   2.400   5.771   4.705 -0.3383  0.5653  0.0956
 7733TIP3    H144614   2.419   5.787   4.613  0.8549  0.5227  0.3101
 7733TIP3    H244615   2.333   5.702   4.705  1.0367 -0.8484 -0.7407
 7734TIP3   OH244616   4.901   1.356  16.592 -0.2581  0.0817  0.3271
 7734TIP3    H144617   4.906   1.411  16.514 -0.4764 -0.3310  0.0133
 7734TIP3    H244618   4.972   1.293  16.581  0.1180  0.4219  0.7825
 7735TIP3   OH244619   4.765   4.959  14.600  0.3293  0.3517 -0.0254
 7735TIP3    H144620   4.812   4.930  14.679 -0.5704  1.4272  0.9524
 7735TIP3    H244621   4.820   5.028  14.563  0.7896 -0.2058 -0.3880
 7736TIP3   OH244622   6.282   4.234  15.533 -0.3581  0.5738 -0.0519
 7736TIP3    H144623   6.364   4.187  15.550  1.1379  2.9062 -0.2201
 7736TIP3    H244624   6.239   4.240  15.619  0.3562  0.5052  0.3208
 7737TIP3   OH244625   2.462   0.167  15.489 -0.8481  0.4242  0.1381
 7737TIP3    H144626   2.372   0.200  15.489 -0.8943  0.2995  0.4590
 7737TIP3    H244627   2.464   0.104  15.417 -1.3880 -0.5628  0.9597
 7738TIP3   OH244628   4.123   2.508   3.455  0.1044  0.3479  0.7207
 7738TIP3    H144629   4.093   2.504   3.364  0.7860  1.5303  0.4241
 7738TIP3    H244630   4.218   2.511   3.449  0.1998 -0.5989  1.5334
 7739TIP3   OH244631   0.987   4.044  15.423  0.1141  0.0568  0.0763
 7739TIP3    H144632   1.059   4.078  15.370 -0.0612 -0.6239 -0.6141
 7739TIP3    H244633   0.918   4.110  15.415  0.4642  0.4546  0.3088
 7740TIP3   OH244634   4.935   5.227   5.546 -0.4396  0.5043  0.4333
 7740TIP3    H144635   4.966   5.242   5.456 -1.4282  1.1038  0.1739
 7740TIP3    H244636   4.845   5.258   5.545 -0.5491  0.2492  1.5722
 7741TIP3   OH244637   1.612   3.119   3.742 -0.2914 -0.5539 -0.1690
 7741TIP3    H144638   1.677   3.177   3.783  1.6179 -2.4748 -0.2762
 7741TIP3    H244639   1.546   3.106   3.809 -0.4623  1.2181  0.0602
 7742TIP3   OH244640   0.750   6.801  12.478  0.1452  0.4232  0.2912
 7742TIP3    H144641   0.812   6.803  12.551  1.4704  1.0238 -0.8040
 7742TIP3    H244642   0.784   6.865  12.415 -2.6311  2.1994  0.4328
 7743TIP3   OH244643   3.399   5.438  11.810  0.0337 -0.1244  0.3182
 7743TIP3    H144644   3.391   5.344  11.824 -1.7047 -0.2376 -1.0315
 7743TIP3    H244645   3.339   5.456  11.737 -0.8870  2.2684  1.5741
 7744TIP3   OH244646   1.888   4.283   6.069 -0.6822  0.3003 -0.0989
 7744TIP3    H144647   1.948   4.239   6.009 -2.2595 -1.0631 -0.7429
 7744TIP3    H244648   1.847   4.351   6.016  0.8436  1.8392  0.5721
 7745TIP3   OH244649   2.037   0.969   3.944 -0.1882  0.4063 -0.0767
 7745TIP3    H144650   2.018   1.062   3.930  1.1949  1.0652  1.8790
 7745TIP3    H244651   1.971   0.940   4.007 -0.7327 -0.0091 -0.8264
 7746TIP3   OH244652   0.330   3.429   5.824 -0.3878  0.0167  0.2065
 7746TIP3    H144653   0.405   3.377   5.795 -0.6994 -0.1571 -0.3153
 7746TIP3    H244654   0.352   3.456   5.913 -0.8224 -2.2359  1.0663
 7747TIP3   OH244655   4.747   5.772  16.882 -0.6175 -0.1484 -0.7565
 7747TIP3    H144656   4.717   5.771  16.973 -0.6561  0.7027 -0.7542
 7747TIP3    H244657   4.832   5.815  16.885 -1.1008  0.8762 -1.2545
 7748TIP3   OH244658   5.887   3.688  12.819  0.1663 -0.0859 -0.1515
 7748TIP3    H144659   5.882   3.782  12.802  4.1603  0.7471  1.8976
 7748TIP3    H244660   5.925   3.652  12.739 -1.5961 -0.1015 -1.0387
 7749TIP3   OH244661   4.380   0.780  11.799 -0.2379  0.2010 -0.0305
 7749TIP3    H144662   4.374   0.874  11.783 -1.3238  0.4256  1.5358
 7749TIP3    H244663   4.343   0.741  11.719 -0.7543  1.1307 -0.2699
 7750TIP3   OH244664   3.647   1.661   4.142  0.0738 -0.3084  0.6352
 7750TIP3    H144665   3.740   1.639   4.139 -0.6519 -4.2162  1.4398
 7750TIP3    H244666   3.627   1.671   4.235 -0.4243 -0.0039  0.5002
 7751TIP3   OH244667   1.918   5.030  16.019  0.2550  0.1347 -0.2699
 7751TIP3    H144668   1.990   5.053  16.078  0.8531 -0.6894 -0.6553
 7751TIP3    H244669   1.945   5.063  15.934  1.0519 -1.7550 -0.7984
 7752TIP3   OH244670   0.452   3.095   1.676 -0.7906 -0.1352  0.2954
 7752TIP3    H144671   0.458   3.047   1.594 -0.8242  0.6412 -0.1645
 7752TIP3    H244672   0.532   3.072   1.723  0.1389  0.8454 -0.7420
 7753TIP3   OH244673   3.706   4.822  11.881  0.4536 -0.5692 -0.4206
 7753TIP3    H144674   3.752   4.894  11.838 -2.2044  1.1967 -0.4881
 7753TIP3    H244675   3.613   4.843  11.872 -0.3508 -1.6475  3.4996
 7754TIP3   OH244676   2.709   3.534  13.379  0.2426 -0.8886 -0.2862
 7754TIP3    H144677   2.761   3.466  13.337  0.1373  0.5972 -2.9885
 7754TIP3    H244678   2.620   3.518  13.349  0.2250  0.4234 -0.9942
 7755TIP3   OH244679   1.130   5.778   0.632 -0.2943  0.6729 -0.3865
 7755TIP3    H144680   1.115   5.711   0.565 -2.3382  0.9729 -0.3065
 7755TIP3    H244681   1.096   5.740   0.713 -0.2079  1.2796 -0.0570
 7756TIP3   OH244682   1.379   2.672  12.242 -0.6068 -0.2440  0.6732
 7756TIP3    H144683   1.361   2.765  12.255 -0.8952 -0.3863  1.3314
 7756TIP3    H244684   1.315   2.627  12.297 -1.3161 -0.8717 -0.5977
 7757TIP3   OH244685   5.793   2.850  16.654 -0.2279 -0.5655  0.1297
 7757TIP3    H144686   5.857   2.852  16.583  0.2283 -0.7689  0.5279
 7757TIP3    H244687   5.843   2.873  16.732 -0.9109  0.5401  0.2583
 7758TIP3   OH244688   5.562   4.267  13.523 -0.0738 -0.1777  0.2176
 7758TIP3    H144689   5.618   4.199  13.486 -1.6087 -1.8015  0.7004
 7758TIP3    H244690   5.603   4.349  13.498  1.9286 -1.2733 -0.3040
 7759TIP3   OH244691   1.692   1.684   6.076 -0.6733 -0.3981  0.4664
 7759TIP3    H144692   1.676   1.656   6.166  0.0958 -0.0974  0.7078
 7759TIP3    H244693   1.689   1.780   6.080  2.3599 -0.2139  0.8235
 7760TIP3   OH244694   3.003   5.283   5.250  0.2326  0.8509  0.1671
 7760TIP3    H144695   3.052   5.252   5.326 -1.1223  0.8512  1.0752
 7760TIP3    H244696   2.932   5.219   5.240 -0.6004  1.7905 -0.0374
 7761TIP3   OH244697   4.191   4.701   1.137 -0.0540 -0.5166  0.1232
 7761TIP3    H144698   4.169   4.786   1.175 -0.2844 -1.1536  1.4548
 7761TIP3    H244699   4.196   4.717   1.043 -0.1778  0.9488  0.3525
 7762TIP3   OH244700   1.702   0.425   0.305  0.5487 -0.1877  0.2821
 7762TIP3    H144701   1.666   0.355   0.360 -0.7763 -0.8048 -1.3024
 7762TIP3    H244702   1.793   0.401   0.292  0.3835 -1.0395  0.6554
 7763TIP3   OH244703   1.346   2.555   1.438  0.7142 -0.4078  0.0602
 7763TIP3    H144704   1.322   2.560   1.531  1.4252 -3.2157  0.4560
 7763TIP3    H244705   1.423   2.612   1.430 -0.8537  1.9488  0.5497
 7764TIP3   OH244706   3.682   0.878  12.123 -0.5143  0.2104 -0.0772
 7764TIP3    H144707   3.605   0.838  12.084 -0.4506 -0.1399  0.1593
 7764TIP3    H244708   3.649   0.959  12.163 -0.8145 -0.1058  0.3119
 7765TIP3   OH244709   5.038   2.734   5.911  0.0907 -0.3450  0.0980
 7765TIP3    H144710   5.060   2.812   5.962 -0.4179  0.2718 -0.5975
 7765TIP3    H244711   5.115   2.678   5.918  1.3572  1.1478 -1.1417
 7766TIP3   OH244712   0.638   5.351  12.084 -0.7088 -0.3306 -0.2343
 7766TIP3    H144713   0.660   5.381  11.996  1.3339  1.5822  0.8304
 7766TIP3    H244714   0.565   5.408  12.110 -1.3904 -0.9729 -0.6875
 7767TIP3   OH244715   1.983   6.069   2.101 -0.3970  0.3310 -0.5383
 7767TIP3    H144716   1.935   6.148   2.126  0.9433  1.4047 -1.1900
 7767TIP3    H244717   1.971   6.065   2.006  1.0473  0.8242 -0.7611
 7768TIP3   OH244718   4.308   5.605   1.853  0.6906 -0.1946 -0.1028
 7768TIP3    H144719   4.349   5.642   1.931 -0.7553  0.8554  0.1979
 7768TIP3    H244720   4.229   5.657   1.840  0.3826 -0.9904 -1.7052
 7769TIP3   OH244721   6.137   5.855   3.199  0.0079  0.1352  0.2343
 7769TIP3    H144722   6.143   5.917   3.272 -2.5237  1.1287 -0.2942
 7769TIP3    H244723   6.181   5.900   3.126  0.1811  0.3065  0.4437
 7770TIP3   OH244724   3.904   4.609   1.941  0.0887 -0.4310 -0.4853
 7770TIP3    H144725   3.819   4.640   1.973  0.1649 -0.3090 -0.4037
 7770TIP3    H244726   3.939   4.557   2.014  1.2517  1.6335  0.5036
 7771TIP3   OH244727   4.776   5.889   2.463 -0.4781 -1.0551 -0.0963
 7771TIP3    H144728   4.787   5.795   2.457 -0.4908 -1.0002 -1.1375
 7771TIP3    H244729   4.812   5.923   2.381  1.5640  0.0466  1.1662
 7772TIP3   OH244730   5.397   2.117  12.601 -0.3182 -0.3948 -0.4229
 7772TIP3    H144731   5.337   2.142  12.531 -0.6816 -0.3205 -0.0896
 7772TIP3    H244732   5.370   2.028  12.625  1.8585 -1.7654 -2.5609
 7773TIP3   OH244733   3.492   0.415  13.774  0.8369 -0.4058 -0.1511
 7773TIP3    H144734   3.414   0.409  13.719 -1.0060  1.0408  2.1432
 7773TIP3    H244735   3.546   0.342  13.746 -1.6166 -1.8628 -1.4150
 7774TIP3   OH244736   3.461   2.907   3.835  0.0274  0.3708 -0.1074
 7774TIP3    H144737   3.372   2.873   3.846 -0.8030  2.5249  0.4130
 7774TIP3    H244738   3.488   2.878   3.748 -0.8936 -0.8914  0.0038
 7775TIP3   OH244739   1.548   3.343  16.383 -0.2698 -0.3525 -0.2827
 7775TIP3    H144740   1.558   3.429  16.342  3.7227 -0.5437 -0.1856
 7775TIP3    H244741   1.535   3.362  16.476  1.0064  0.2215 -0.1960
 7776TIP3   OH244742   0.849   1.209   1.122  0.0233  0.3778 -0.0575
 7776TIP3    H144743   0.858   1.201   1.027  0.7525  0.9599 -0.0520
 7776TIP3    H244744   0.902   1.137   1.157 -1.9391 -1.1377 -0.0938
 7777TIP3   OH244745   6.673   1.860  14.187  0.0854  0.1791 -0.4613
 7777TIP3    H144746   6.680   1.802  14.263 -0.2036 -0.9428 -1.2551
 7777TIP3    H244747   6.631   1.939  14.220 -0.3889 -0.4493  0.4712
 7778TIP3   OH244748   5.386   5.828   2.158  0.0676 -0.8183 -0.3291
 7778TIP3    H144749   5.336   5.791   2.085 -1.3246 -2.0158  1.1465
 7778TIP3    H244750   5.421   5.910   2.124 -1.9881 -0.4766 -1.8296
 7779TIP3   OH244751   5.042   1.493  12.392 -0.0890  0.7356 -0.3212
 7779TIP3    H144752   5.108   1.562  12.401  0.6798 -0.2451  2.4546
 7779TIP3    H244753   5.089   1.419  12.355 -0.2155  0.7908 -0.5943
 7780TIP3   OH244754   1.202   2.649   1.688 -0.0523  0.6970 -0.0386
 7780TIP3    H144755   1.163   2.608   1.765  0.4539 -1.2738 -0.7817
 7780TIP3    H244756   1.154   2.731   1.678 -2.0986 -0.3327  0.6878
 7781TIP3   OH244757   3.010   2.000   5.742 -0.4099 -0.5840  0.0455
 7781TIP3    H144758   3.079   1.980   5.804 -1.5876 -0.3596  1.4986
 7781TIP3    H244759   2.993   2.094   5.755  0.7673  0.0009 -2.1756
 7782TIP3   OH244760   3.918   5.048  17.097  0.1250 -0.0127 -0.1807
 7782TIP3    H144761   3.875   5.133  17.088 -2.2361 -1.0128  0.8558
 7782TIP3    H244762   3.876   5.008  17.173 -1.0990 -3.3490 -2.3946
 7783TIP3   OH244763   5.762   4.566  12.659  0.0481 -0.1998 -0.5920
 7783TIP3    H144764   5.811   4.646  12.641  0.8666 -1.1171 -2.7439
 7783TIP3    H244765   5.671   4.588  12.639 -0.4425  1.2429  2.5615
 7784TIP3   OH244766   4.072   5.826  13.237 -0.3362  0.0353 -0.1001
 7784TIP3    H144767   4.166   5.842  13.244  0.1454 -2.5668  0.3722
 7784TIP3    H244768   4.065   5.733  13.216 -2.8589 -0.4427  2.2886
 7785TIP3   OH244769   6.393   6.147   3.289 -0.1901 -0.0220 -0.3893
 7785TIP3    H144770   6.357   6.117   3.373  0.0260  2.0462  0.4976
 7785TIP3    H244771   6.446   6.073   3.259 -2.1296 -1.7225  0.0878
 7786TIP3   OH244772   2.431   6.785   3.958 -0.3094 -0.1266  0.0373
 7786TIP3    H144773   2.495   6.848   3.926  1.0162 -0.1598  2.4162
 7786TIP3    H244774   2.377   6.835   4.020  0.7448 -1.2352  1.9348
 7787TIP3   OH244775   3.765   5.774   0.525  0.2510  0.1726 -0.6885
 7787TIP3    H144776   3.703   5.707   0.554  0.1688  0.3167 -0.5328
 7787TIP3    H244777   3.719   5.819   0.454  0.7053 -0.6069 -1.4961
 7788TIP3   OH244778   6.399   2.182  16.272  0.0491  0.0158 -1.0561
 7788TIP3    H144779   6.322   2.165  16.218 -1.0324  1.5534 -0.0819
 7788TIP3    H244780   6.420   2.274  16.257  1.4970 -0.2796 -1.0252
 7789TIP3   OH244781   1.235   1.421   1.502  0.3334 -0.1185  0.5721
 7789TIP3    H144782   1.303   1.469   1.548  1.1593  0.4277 -1.1139
 7789TIP3    H244783   1.277   1.392   1.421 -0.7443 -1.9259  0.6070
 7790TIP3   OH244784   3.497   4.188   3.589  0.2149  0.0184 -1.0258
 7790TIP3    H144785   3.553   4.247   3.640  0.1247 -0.2421 -0.6142
 7790TIP3    H244786   3.556   4.151   3.523  0.3898  0.1880 -0.9684
 7791TIP3   OH244787   5.933   2.489  13.488  0.0936 -0.0864  0.5565
 7791TIP3    H144788   6.012   2.529  13.522 -0.7937 -0.0744  2.7414
 7791TIP3    H244789   5.920   2.410  13.541 -0.1411 -1.3728 -1.2916
 7792TIP3   OH244790   5.109   2.714   2.405 -0.1234  0.0525 -0.4979
 7792TIP3    H144791   5.023   2.698   2.366 -0.2604 -1.3203  0.2996
 7792TIP3    H244792   5.095   2.703   2.499  1.1586 -1.4794 -0.4434
 7793TIP3   OH244793   3.284   2.814  14.124  0.1663 -0.3558 -0.2812
 7793TIP3    H144794   3.255   2.859  14.045  0.7199  0.2109 -0.1696
 7793TIP3    H244795   3.210   2.823  14.185  0.2901  0.4713 -0.2383
 7794TIP3   OH244796   6.107   0.971  12.224  0.3252  0.1000 -0.1548
 7794TIP3    H144797   6.139   0.921  12.299  1.3239  1.7443  0.5744
 7794TIP3    H244798   6.017   0.940  12.211  0.4719 -0.9162  1.0772
 7795TIP3   OH244799   3.317   3.821   0.439  0.2076  0.3547  0.1586
 7795TIP3    H144800   3.368   3.740   0.436  0.3428  0.2514  2.9737
 7795TIP3    H244801   3.232   3.795   0.472 -0.3990  1.1247 -0.7332
 7796TIP3   OH244802   5.367   5.208  13.287  0.9030 -0.2262  0.7028
 7796TIP3    H144803   5.460   5.199  13.269  0.5930  1.1037 -2.0310
 7796TIP3    H244804   5.350   5.302  13.281 -0.7094 -0.4908  0.5691
 7797TIP3   OH244805   4.189   3.974  14.246  0.1057 -0.6000 -0.1483
 7797TIP3    H144806   4.252   4.037  14.213  0.4184 -0.7945  0.0716
 7797TIP3    H244807   4.116   4.028  14.279  0.8369 -0.2918  1.0204
 7798TIP3   OH244808   4.091   2.155   2.598  0.7695  0.3021  0.3736
 7798TIP3    H144809   4.077   2.247   2.621  1.7137  0.6000 -0.1814
 7798TIP3    H244810   4.121   2.114   2.680  0.6552  0.5563  0.5447
 7799TIP3   OH244811   4.861   0.650   2.880  0.1718  0.3082 -0.1087
 7799TIP3    H144812   4.876   0.744   2.889  1.2327  0.2163 -0.6539
 7799TIP3    H244813   4.787   0.631   2.937  0.1315  1.4243  0.2303
 7800TIP3   OH244814   5.169   0.774   1.624  0.9106 -0.0014 -0.7160
 7800TIP3    H144815   5.116   0.806   1.551  0.2955 -2.8873 -1.6455
 7800TIP3    H244816   5.148   0.681   1.630  1.7434 -0.1019  2.4929
 7801TIP3   OH244817   5.994   4.512  14.920  0.4284 -0.1139 -0.4068
 7801TIP3    H144818   6.051   4.531  14.995  0.3217  0.5495 -0.4869
 7801TIP3    H244819   5.948   4.432  14.945  0.0699  0.3419  0.4283
 7802TIP3   OH244820   5.782   0.598  12.649 -0.4564  0.0241 -0.2998
 7802TIP3    H144821   5.746   0.614  12.562 -0.0881  2.8478 -0.0090
 7802TIP3    H244822   5.743   0.666  12.704  1.4826  0.0905  1.1047
 7803TIP3   OH244823   2.279   5.208   1.612  0.3458 -0.1934  0.5856
 7803TIP3    H144824   2.193   5.170   1.592  0.0014  0.8519  0.0066
 7803TIP3    H244825   2.274   5.232   1.704 -0.3650  0.7853  0.3086
 7804TIP3   OH244826   0.523   0.469   0.299 -0.3879 -0.1672 -0.6191
 7804TIP3    H144827   0.580   0.488   0.374  0.8680 -0.6074 -1.4363
 7804TIP3    H244828   0.574   0.410   0.244 -0.8838  0.8898 -2.3007
 7805TIP3   OH244829   2.806   0.120   5.616  0.1843 -0.1084 -0.3843
 7805TIP3    H144830   2.775   0.042   5.569 -0.6539  0.6383 -1.1097
 7805TIP3    H244831   2.745   0.189   5.591  0.7886  0.7441  0.4153
 7806TIP3   OH244832   5.631   5.492  11.178 -0.2928 -0.2904 -0.0176
 7806TIP3    H144833   5.559   5.460  11.233 -1.7985 -0.3216 -1.9338
 7806TIP3    H244834   5.635   5.585  11.197 -0.9791 -0.2510 -0.0304
 7807TIP3   OH244835   0.764   3.754   5.097  0.2581 -0.5412  0.5296
 7807TIP3    H144836   0.745   3.661   5.087 -1.3847 -0.1840  0.0397
 7807TIP3    H244837   0.729   3.776   5.184  3.2519 -0.9482  1.9619
 7808TIP3   OH244838   3.230   0.579   1.283  0.0325  0.6533 -0.4773
 7808TIP3    H144839   3.168   0.651   1.271 -1.2626 -0.8457 -4.2245
 7808TIP3    H244840   3.288   0.584   1.207  0.0836 -1.9881 -0.7119
 7809TIP3   OH244841   3.313   5.439  10.562  0.5475  0.1566  0.2127
 7809TIP3    H144842   3.308   5.511  10.624 -1.0580 -0.2443  0.5799
 7809TIP3    H244843   3.253   5.463  10.491 -0.3453 -0.9880  0.5454
 7810TIP3   OH244844   3.406   6.403   4.734 -0.2204  0.5360 -0.0485
 7810TIP3    H144845   3.486   6.435   4.694  0.3390  0.8635  1.2897
 7810TIP3    H244846   3.432   6.373   4.821 -1.0626 -1.8236 -0.5266
 7811TIP3   OH244847   2.529   0.082   0.421 -0.4507 -0.0097 -0.1869
 7811TIP3    H144848   2.577   0.101   0.341 -2.1311 -1.4147 -1.6218
 7811TIP3    H244849   2.446   0.130   0.411 -1.0161 -0.8550  0.2921
 7812TIP3   OH244850   3.343   4.301   4.502  0.2037 -0.0002  0.0346
 7812TIP3    H144851   3.267   4.254   4.468  0.4315 -1.7750  1.7899
 7812TIP3    H244852   3.324   4.393   4.485 -1.8061 -0.4788 -0.5780
 7813TIP3   OH244853   3.983   3.986  17.134  0.2657  0.7165 -0.2611
 7813TIP3    H144854   3.969   3.957  17.043  2.1420 -2.5185  0.3143
 7813TIP3    H244855   3.905   3.957  17.181  1.1827 -1.7453 -0.1164
 7814TIP3   OH244856   5.957   1.930   1.250 -0.1984  0.0753 -0.3814
 7814TIP3    H144857   5.934   1.890   1.334 -0.9578  2.4481  0.6352
 7814TIP3    H244858   5.874   1.942   1.205 -0.0941  1.1266 -0.3305
 7815TIP3   OH244859   4.672   6.180   1.265 -0.1530 -0.2555  0.2968
 7815TIP3    H144860   4.633   6.123   1.331 -0.9118  0.5097  0.5330
 7815TIP3    H244861   4.697   6.121   1.194 -4.3501 -0.6254 -1.1580
 7816TIP3   OH244862   4.354   3.192   4.151 -0.0885  0.2888  0.4934
 7816TIP3    H144863   4.297   3.143   4.210  0.7067  0.1642  1.1776
 7816TIP3    H244864   4.410   3.126   4.111  1.2511  0.6254  1.7060
 7817TIP3   OH244865   2.936   0.977   2.423 -0.0894  0.0950 -0.1487
 7817TIP3    H144866   3.009   1.011   2.371 -0.2503  1.0237  0.2075
 7817TIP3    H244867   2.858   0.996   2.370 -0.1344 -0.2702 -0.2168
 7818TIP3   OH244868   1.736   5.472  16.276 -0.3963  0.1813 -1.1039
 7818TIP3    H144869   1.716   5.535  16.344 -1.0814 -0.9108 -0.2534
 7818TIP3    H244870   1.672   5.402  16.288 -0.2035 -0.2900 -2.5503
 7819TIP3   OH244871   4.120   1.781  14.697 -0.3572 -0.1221 -0.1831
 7819TIP3    H144872   4.084   1.829  14.772  2.1073 -0.9830  1.6874
 7819TIP3    H244873   4.099   1.836  14.621 -1.8066  1.4423  1.2634
 7820TIP3   OH244874   2.863   5.647   2.813  0.0894 -0.2319  0.1709
 7820TIP3    H144875   2.943   5.595   2.824  0.9052  1.1563  1.1776
 7820TIP3    H244876   2.799   5.605   2.870  1.1430  0.5739  2.0810
 7821TIP3   OH244877   3.629   0.333  14.273  0.4783  0.1077  0.2774
 7821TIP3    H144878   3.585   0.390  14.210  0.5590 -1.1917 -1.0096
 7821TIP3    H244879   3.560   0.277  14.308  0.9799 -1.8517 -1.6593
 7822TIP3   OH244880   5.595   4.449  13.782 -0.0990  0.0648  0.0017
 7822TIP3    H144881   5.507   4.487  13.786 -0.5145 -0.7330 -0.9433
 7822TIP3    H244882   5.654   4.524  13.782 -0.8326  0.6629 -0.4312
 7823TIP3   OH244883   2.035   2.153  12.753  0.2319 -0.4928 -0.6475
 7823TIP3    H144884   1.954   2.203  12.738  1.0090  0.7834 -0.7097
 7823TIP3    H244885   2.069   2.186  12.836  1.0437 -0.5321 -0.9546
 7824TIP3   OH244886   2.222   3.339   3.431 -0.1864  0.1937  0.4632
 7824TIP3    H144887   2.282   3.395   3.382  0.7598 -1.6616 -0.5919
 7824TIP3    H244888   2.223   3.375   3.520 -1.2331  3.0790 -0.5659
 7825TIP3   OH244889   6.488   3.762  14.472 -0.4294 -0.0716 -0.3443
 7825TIP3    H144890   6.425   3.811  14.420 -0.7082 -0.4340 -0.3548
 7825TIP3    H244891   6.565   3.819  14.477 -1.0795  0.7822  0.4393
 7826TIP3   OH244892   3.081   4.041  16.543  0.7840  0.3174  0.1032
 7826TIP3    H144893   3.018   4.023  16.612 -0.1918  2.6766 -0.0658
 7826TIP3    H244894   3.166   4.040  16.587  0.3775 -0.2176  0.8982
 7827TIP3   OH244895   4.765   2.786   1.076  0.2498 -0.3391 -0.2206
 7827TIP3    H144896   4.747   2.867   1.124 -1.0312 -0.7284 -0.0070
 7827TIP3    H244897   4.699   2.784   1.007  2.1672  0.2986 -2.1948
 7828TIP3   OH244898   1.214   0.630   2.399 -0.1445  0.3245  0.1598
 7828TIP3    H144899   1.293   0.609   2.350  0.7913  0.5146  1.5416
 7828TIP3    H244900   1.143   0.595   2.345  1.0291 -2.3390  0.1656
 7829TIP3   OH244901   3.362   6.028   1.682  0.0343  0.4150 -0.3894
 7829TIP3    H144902   3.275   5.988   1.681  0.1043  0.0659 -3.7635
 7829TIP3    H244903   3.345   6.122   1.687 -0.4036  0.3024  0.6619
 7830TIP3   OH244904   5.335   6.335  13.527 -0.1271 -0.6174  0.3706
 7830TIP3    H144905   5.304   6.301  13.442 -0.6229 -0.3158  0.4227
 7830TIP3    H244906   5.360   6.257  13.576  0.7714 -0.7580 -0.2825
 7831TIP3   OH244907   0.886   1.985   2.694  0.2964  0.0777 -0.1687
 7831TIP3    H144908   0.790   1.990   2.695  0.3335  0.8450 -0.4506
 7831TIP3    H244909   0.915   2.075   2.682  1.0789  0.0066  1.0276
 7832TIP3   OH244910   0.308   1.143  17.023 -0.0518  0.1682 -0.3270
 7832TIP3    H144911   0.229   1.193  17.004 -2.0767 -2.3577  0.8659
 7832TIP3    H244912   0.326   1.095  16.942  0.7075  1.2577 -0.8227
 7833TIP3   OH244913   0.307   5.691   2.955 -0.2715  0.1963 -0.0774
 7833TIP3    H144914   0.256   5.647   2.887 -0.7797  3.3520 -1.9335
 7833TIP3    H244915   0.242   5.725   3.017 -0.2122  1.3375 -0.6156
 7834TIP3   OH244916   0.237   1.088   0.792  0.5739  0.1146 -0.6734
 7834TIP3    H144917   0.288   1.009   0.776 -0.4777 -0.6349 -0.4045
 7834TIP3    H244918   0.300   1.160   0.780  2.1963 -0.8136  1.6324
 7835TIP3   OH244919   5.636   5.450  13.655  0.0551  0.0047 -0.6985
 7835TIP3    H144920   5.680   5.442  13.739 -2.9027  0.4504  1.0381
 7835TIP3    H244921   5.543   5.456  13.677 -0.9008 -0.3782 -4.0528
 7836TIP3   OH244922   6.266   4.460   0.698 -0.4158  0.1377 -0.1307
 7836TIP3    H144923   6.199   4.529   0.704 -0.8191  0.0293 -2.5277
 7836TIP3    H244924   6.275   4.443   0.605  0.2226 -2.5655  0.3380
 7837TIP3   OH244925   4.391   5.255   2.451  0.4609 -0.2193 -0.0336
 7837TIP3    H144926   4.410   5.240   2.543  2.7631  2.4025  0.0341
 7837TIP3    H244927   4.345   5.339   2.449 -1.4362 -1.2144 -1.1813
 7838TIP3   OH244928   0.823   3.867  10.748  0.6859 -0.2381  0.6091
 7838TIP3    H144929   0.914   3.874  10.776  0.7956 -2.3764  0.9985
 7838TIP3    H244930   0.823   3.793  10.687 -0.3245  1.5554 -1.6763
 7839TIP3   OH244931   4.834   4.596  11.920 -0.1805  0.2690 -0.1446
 7839TIP3    H144932   4.771   4.537  11.961 -0.5929  0.2852 -0.7448
 7839TIP3    H244933   4.847   4.560  11.832 -0.2254  0.9145 -0.4189
 7840TIP3   OH244934   2.705   6.724   5.469  0.0568  0.2733 -0.2288
 7840TIP3    H144935   2.766   6.696   5.400 -0.5520 -0.0456 -0.6487
 7840TIP3    H244936   2.622   6.736   5.423  0.1362  2.1805  0.0506
 7841TIP3   OH244937   5.684   5.183  16.385 -0.2464  0.2849  0.1178
 7841TIP3    H144938   5.705   5.275  16.373 -2.0288  0.8061  0.6329
 7841TIP3    H244939   5.685   5.146  16.296 -2.4590  1.5404 -0.5086
 7842TIP3   OH244940   1.774   1.417   4.674  0.0653  0.4353  0.1266
 7842TIP3    H144941   1.751   1.420   4.581 -1.3676 -0.8770  0.3967
 7842TIP3    H244942   1.693   1.437   4.720 -0.0646 -1.9190  1.1034
 7843TIP3   OH244943   6.379   1.989  13.768  0.3643 -0.1103  0.1457
 7843TIP3    H144944   6.315   1.921  13.788 -0.0171  0.1987 -0.0074
 7843TIP3    H244945   6.432   1.953  13.696  0.5256 -0.4653  0.4409
 7844TIP3   OH244946   5.675   4.378   1.495 -0.1843 -0.0425  0.5009
 7844TIP3    H144947   5.661   4.453   1.552  1.1811 -0.2656  1.1821
 7844TIP3    H244948   5.689   4.305   1.555 -1.5422 -0.8812 -0.1496
 7845TIP3   OH244949   0.456   6.414   5.792  0.3977 -0.2139 -0.3367
 7845TIP3    H144950   0.485   6.323   5.802 -0.9550 -0.6968 -0.5926
 7845TIP3    H244951   0.438   6.444   5.882 -0.5037 -0.6876 -0.3414
 7846TIP3   OH244952   1.909   5.629   0.440  0.2530  0.2189 -0.7209
 7846TIP3    H144953   1.865   5.545   0.424  1.4354 -0.6323  0.2955
 7846TIP3    H244954   1.838   5.687   0.469 -0.2692 -1.1284  0.9310
 7847TIP3   OH244955   2.927   1.316  16.547  0.3742 -0.1266  0.0751
 7847TIP3    H144956   3.006   1.264  16.533 -1.0400 -2.9464  1.7988
 7847TIP3    H244957   2.915   1.364  16.465  2.6602 -1.2799 -1.0149
 7848TIP3   OH244958   1.908   2.807  11.781 -0.5699  0.0790 -0.7972
 7848TIP3    H144959   1.973   2.874  11.758 -0.6267  0.5418  0.3387
 7848TIP3    H244960   1.836   2.856  11.821  0.7412 -0.8251  3.1076
 7849TIP3   OH244961   0.135   6.224  13.946  0.0072 -0.1716 -0.3826
 7849TIP3    H144962   0.146   6.284  14.020  1.9458 -1.2835  0.2995
 7849TIP3    H244963   0.053   6.252  13.905  0.4548  2.4924  0.3006
 7850TIP3   OH244964   3.023   5.749  16.244  0.4835 -0.0335 -0.6482
 7850TIP3    H144965   3.056   5.787  16.163  0.8809  0.2613 -0.3502
 7850TIP3    H244966   3.062   5.661  16.247  0.5936  0.0142 -0.6978
 7851TIP3   OH244967   4.142   0.307  12.717 -0.3606 -0.0756  0.2095
 7851TIP3    H144968   4.055   0.335  12.745 -0.0043 -0.1495  1.4514
 7851TIP3    H244969   4.185   0.387  12.687 -0.2037  0.3096  1.4055
 7852TIP3   OH244970   2.988   2.647  16.721 -0.1531 -0.2067 -0.2481
 7852TIP3    H144971   3.054   2.713  16.742 -1.7796  1.0165  1.3342
 7852TIP3    H244972   2.964   2.609  16.805 -1.0465 -1.0396 -0.8560
 7853TIP3   OH244973   0.778   5.582  16.785  0.1585  0.1189 -0.6674
 7853TIP3    H144974   0.696   5.618  16.752 -0.0595 -0.3591 -0.6551
 7853TIP3    H244975   0.820   5.655  16.831  0.8318  1.0266 -2.6183
 7854TIP3   OH244976   6.580   4.822   1.763  0.0354 -0.3892 -0.4731
 7854TIP3    H144977   6.507   4.815   1.825  0.4491 -0.0354  0.0675
 7854TIP3    H244978   6.633   4.744   1.780  0.9126  0.4105  0.6457
 7855TIP3   OH244979   1.481   3.846   4.876  0.1415  0.2007 -0.1975
 7855TIP3    H144980   1.443   3.759   4.863 -0.6850  0.7069 -1.4346
 7855TIP3    H244981   1.445   3.898   4.804  1.9409  1.1454 -0.4611
 7856TIP3   OH244982   6.437   0.423   4.937 -0.1088 -0.6795  0.1386
 7856TIP3    H144983   6.434   0.504   4.987 -0.5038 -0.0327 -0.8951
 7856TIP3    H244984   6.406   0.448   4.850  1.3166 -1.6010 -0.6612
 7857TIP3   OH244985   3.196   0.018  16.936 -0.1123  0.4180 -0.0012
 7857TIP3    H144986   3.122  -0.004  16.992 -0.4438  1.3453 -0.0496
 7857TIP3    H244987   3.261  -0.050  16.954 -0.8734 -0.2580  0.2307
 7858TIP3   OH244988   2.006   1.855  15.781 -0.0942  0.2568 -0.4869
 7858TIP3    H144989   2.004   1.772  15.734 -1.4793  1.1608 -2.0973
 7858TIP3    H244990   1.917   1.865  15.816  0.1520  0.9338 -0.0308
 7859TIP3   OH244991   5.238   4.367   5.523  0.3306 -0.1969  0.6623
 7859TIP3    H144992   5.284   4.402   5.600 -1.0422  0.7641  1.0863
 7859TIP3    H244993   5.174   4.435   5.501  1.3926  0.0671 -2.0052
 7860TIP3   OH244994   0.042   2.070  16.251  0.4476  0.2976  0.1981
 7860TIP3    H144995  -0.043   2.063  16.295  1.0473 -0.9418  1.2249
 7860TIP3    H244996   0.028   2.027  16.166  0.5458 -1.8277  1.1834
 7861TIP3   OH244997   3.335   3.117  15.469  0.3852  0.5928 -0.3474
 7861TIP3    H144998   3.260   3.113  15.529  1.3739 -1.5269  0.8409
 7861TIP3    H244999   3.296   3.132  15.383 -1.4774 -0.8411  0.1855
 7862TIP3   OH245000   6.536   0.312   1.054  0.2146  0.1322  0.2552
 7862TIP3    H145001   6.452   0.352   1.034 -0.2048 -0.7578  0.1890
 7862TIP3    H245002   6.533   0.295   1.148  0.8165  1.1878  0.4886
 7863TIP3   OH245003   3.744   2.628  11.781  0.0477 -0.4094 -0.4521
 7863TIP3    H145004   3.701   2.562  11.726  0.5644 -0.4224 -0.8444
 7863TIP3    H245005   3.703   2.710  11.755  0.3969 -0.3962 -0.9743
 7864TIP3   OH245006   5.219   6.042  12.093 -0.9353 -0.1795 -0.1386
 7864TIP3    H145007   5.188   6.116  12.145 -0.0842  0.1213 -0.0419
 7864TIP3    H245008   5.141   5.989  12.077 -1.2730 -0.1037  1.1507
 7865TIP3   OH245009   5.065   6.239   3.309  0.1823 -0.3759  0.0810
 7865TIP3    H145010   5.156   6.265   3.295 -0.9434  3.2594 -1.7581
 7865TIP3    H245011   5.055   6.239   3.404  1.6964  1.0707  0.2942
 7866TIP3   OH245012   5.498   6.637  14.567  0.2039  0.2027  0.6191
 7866TIP3    H145013   5.528   6.635  14.476 -0.2576  0.3777  0.4552
 7866TIP3    H245014   5.492   6.731  14.587 -3.1913  0.3631 -0.3985
 7867TIP3   OH245015   0.897   0.703  15.779 -0.1358 -0.1941 -0.0116
 7867TIP3    H145016   0.817   0.656  15.801  1.5527 -4.5879 -2.1259
 7867TIP3    H245017   0.953   0.691  15.856 -0.7948  1.4075  0.7734
 7868TIP3   OH245018   3.394   4.815   5.850 -0.2469 -0.0466  0.7526
 7868TIP3    H145019   3.476   4.836   5.894 -0.1401 -0.9391  0.9945
 7868TIP3    H245020   3.329   4.811   5.921 -0.3450 -0.0939  0.6606
 7869TIP3   OH245021   0.944   4.058   5.648 -0.1623 -0.4801 -0.1203
 7869TIP3    H145022   0.884   4.103   5.589 -1.4986 -2.3392 -0.2466
 7869TIP3    H245023   0.937   4.106   5.731  0.4376  1.0866 -0.9328
 7870TIP3   OH245024   6.029   3.201   6.313 -0.1696 -0.5716  0.5125
 7870TIP3    H145025   6.037   3.245   6.398  1.4833  1.9209 -0.8217
 7870TIP3    H245026   5.961   3.249   6.266  0.3996 -0.5814 -0.3401
 7871TIP3   OH245027   0.937   0.607   0.735 -0.1064 -0.0977 -0.3461
 7871TIP3    H145028   0.888   0.558   0.802 -0.1009 -0.5815 -0.6980
 7871TIP3    H245029   0.883   0.685   0.720 -0.6234 -0.4733 -0.5011
 7872TIP3   OH245030   3.587   5.554   2.991  0.3149  0.2508 -0.1220
 7872TIP3    H145031   3.664   5.602   2.958  1.6157  0.1612  2.5345
 7872TIP3    H245032   3.607   5.462   2.972  0.2645  0.3332 -0.5772
 7873TIP3   OH245033   0.227   3.365  15.368 -0.2003 -0.5374  0.3804
 7873TIP3    H145034   0.285   3.442  15.377 -0.9974  0.0205  0.8898
 7873TIP3    H245035   0.274   3.307  15.309  1.3609 -0.5353  1.5415
 7874TIP3   OH245036   2.439   5.210   0.954  0.0475  0.0740 -0.2178
 7874TIP3    H145037   2.449   5.128   0.906  1.1322  0.3513 -0.4961
 7874TIP3    H245038   2.346   5.229   0.949 -0.2304 -1.1867 -0.0647
 7875TIP3   OH245039   1.018   4.829  12.885 -0.3746  0.1067  0.0598
 7875TIP3    H145040   0.967   4.807  12.807  1.2196  0.4606 -1.1541
 7875TIP3    H245041   0.962   4.888  12.935 -1.1879  0.4270 -1.1699
 7876TIP3   OH245042   5.729   5.875   0.334 -0.2023  0.0832  0.5601
 7876TIP3    H145043   5.754   5.785   0.314  0.5885  0.3731  0.2187
 7876TIP3    H245044   5.752   5.887   0.426  0.3355  0.1530  0.4168
 7877TIP3   OH245045   5.799   0.119  11.151  0.3115 -0.0670  0.1905
 7877TIP3    H145046   5.803   0.072  11.234  0.1873 -0.0429  0.2117
 7877TIP3    H245047   5.792   0.211  11.177  2.8820  0.1911  0.1508
 7878TIP3   OH245048   4.171   4.283   0.488  0.4109  0.5769 -0.4430
 7878TIP3    H145049   4.088   4.330   0.496 -0.4083 -0.7405 -0.8581
 7878TIP3    H245050   4.225   4.316   0.560 -0.6004  1.1995  0.0493
 7879TIP3   OH245051   5.841   4.410   3.413  0.2761 -0.2198  0.3856
 7879TIP3    H145052   5.763   4.459   3.438 -0.4394 -0.3792 -1.3791
 7879TIP3    H245053   5.807   4.327   3.378  1.2468 -0.4504 -0.0498
 7880TIP3   OH245054   1.665   1.250   0.962 -0.5094  0.4174 -0.2907
 7880TIP3    H145055   1.590   1.206   0.922 -0.1664 -0.3242 -0.1389
 7880TIP3    H245056   1.738   1.235   0.901 -0.3134  0.5119 -0.0838
 7881TIP3   OH245057   0.261   6.626  14.837  0.2568  0.0462 -0.6316
 7881TIP3    H145058   0.345   6.631  14.885  0.2198 -0.2377 -0.5376
 7881TIP3    H245059   0.257   6.708  14.788  0.6636 -0.0042 -0.7553
 7882TIP3   OH245060   3.375   2.247  11.562 -0.7448 -0.0845 -0.3481
 7882TIP3    H145061   3.357   2.237  11.468  0.0024  0.9907 -0.6241
 7882TIP3    H245062   3.292   2.276  11.599 -1.0995 -0.7025 -0.6368
 7883TIP3   OH245063   0.445   5.719  11.196 -0.2934 -0.2295 -1.0486
 7883TIP3    H145064   0.506   5.669  11.142  0.6579 -0.8476  0.5455
 7883TIP3    H245065   0.385   5.654  11.232  0.8833 -0.3089  0.9487
 7884TIP3   OH245066   1.593   4.952  15.267  0.0756  0.2583 -0.0462
 7884TIP3    H145067   1.516   4.938  15.321  0.1182  0.0820 -0.0321
 7884TIP3    H245068   1.559   4.956  15.177  0.1331 -0.5049 -0.1030
 7885TIP3   OH245069   3.433   1.871   5.112  1.0929  0.5641 -0.3524
 7885TIP3    H145070   3.350   1.831   5.138  0.1028  1.5158 -1.8741
 7885TIP3    H245071   3.479   1.889   5.194  0.2534 -0.9085  0.4704
 7886TIP3   OH245072   4.372   3.907  11.762 -0.0002 -0.2628  0.4165
 7886TIP3    H145073   4.376   3.815  11.738 -0.4433 -0.3329  0.6021
 7886TIP3    H245074   4.299   3.943  11.711 -0.7126 -0.3313  1.3634
 7887TIP3   OH245075   5.013   6.428   2.312 -0.3388  0.2924 -0.6373
 7887TIP3    H145076   5.073   6.460   2.379  0.9404 -0.5176 -1.3578
 7887TIP3    H245077   5.063   6.362   2.264 -0.9316  1.3344 -2.8580
 7888TIP3   OH245078   0.950   2.717  10.598  0.4864 -0.5661 -0.4399
 7888TIP3    H145079   0.919   2.798  10.639 -0.8835 -1.2670 -0.0388
 7888TIP3    H245080   1.015   2.747  10.534 -1.1197  1.0450 -1.4519
 7889TIP3   OH245081   2.749   6.552  14.138  0.3320 -0.6577 -0.1295
 7889TIP3    H145082   2.759   6.473  14.085  0.4531  0.6966 -2.2013
 7889TIP3    H245083   2.674   6.598  14.100  1.3940  1.1280 -0.1714
 7890TIP3   OH245084   3.573   5.996   5.668 -0.2607  0.4965 -0.2090
 7890TIP3    H145085   3.534   6.083   5.678  1.8988  1.5866 -0.7639
 7890TIP3    H245086   3.616   5.998   5.583  0.1484 -0.9992 -0.0689
 7891TIP3   OH245087   5.907   0.824  14.617 -0.1716  0.1663  0.0457
 7891TIP3    H145088   5.870   0.757  14.674 -0.4887  0.3080  0.0076
 7891TIP3    H245089   5.916   0.901  14.673 -0.7112  0.3785 -0.1538
 7892TIP3   OH245090   2.303   5.192  16.374  0.3268  0.1220 -0.3943
 7892TIP3    H145091   2.313   5.286  16.359 -0.8186  0.2654 -0.3394
 7892TIP3    H245092   2.384   5.165  16.417  1.1839  0.8474 -1.5147
 7893TIP3   OH245093   2.834   1.608  17.067 -0.1425 -0.3698  0.5495
 7893TIP3    H145094   2.887   1.542  17.111 -0.8200 -0.6713  0.9409
 7893TIP3    H245095   2.897   1.674  17.038  0.7482 -1.9641 -1.3347
 7894TIP3   OH245096   1.477   4.313   0.108 -0.0859 -0.2687  0.0742
 7894TIP3    H145097   1.455   4.257   0.034  1.1935 -0.3063 -0.3021
 7894TIP3    H245098   1.527   4.385   0.070  0.8730 -0.4604  0.9314
 7895TIP3   OH245099   5.934   5.700   2.903  0.4846 -0.2740  0.2594
 7895TIP3    H145100   5.906   5.623   2.952 -2.5243 -0.0405 -0.8685
 7895TIP3    H245101   5.894   5.774   2.949  2.1747  0.5321  0.5266
 7896TIP3   OH245102   2.994   0.485   6.477 -0.1479  0.2195  0.4080
 7896TIP3    H145103   3.002   0.576   6.505  2.3219  0.0251  0.5754
 7896TIP3    H245104   3.058   0.475   6.407 -1.0958 -1.1601 -0.3219
 7897TIP3   OH245105   0.258   0.785   6.006  0.4042  0.2186  0.1727
 7897TIP3    H145106   0.319   0.841   5.958  0.5446  0.5426  0.7234
 7897TIP3    H245107   0.255   0.822   6.094  1.8288 -1.6291  1.0725
 7898TIP3   OH245108   3.976   2.649  15.011 -0.1832  0.4619 -0.0750
 7898TIP3    H145109   4.020   2.712  14.954 -0.6280 -0.1311 -1.0935
 7898TIP3    H245110   3.971   2.694  15.096  0.2694  1.4532 -0.5484
 7899TIP3   OH245111   6.180   2.356  12.519 -0.4012  0.1807 -0.0774
 7899TIP3    H145112   6.167   2.268  12.483 -0.5245 -0.7263  2.0836
 7899TIP3    H245113   6.271   2.378  12.496  0.7745 -1.9443  2.1732
 7900TIP3   OH245114   6.745   1.426   5.386 -0.3118  0.0906 -0.6527
 7900TIP3    H145115   6.667   1.381   5.419  0.0003 -1.0115 -1.3626
 7900TIP3    H245116   6.759   1.498   5.448 -1.8489  0.2891 -0.4823
 7901TIP3   OH245117   6.231   3.859   6.908  0.1061  0.5769  0.0847
 7901TIP3    H145118   6.256   3.773   6.944 -0.4338  0.8200  1.0992
 7901TIP3    H245119   6.312   3.895   6.872  1.0033  0.8329  2.1807
 7902TIP3   OH245120   4.763   1.908  13.279 -0.6178 -0.1493 -1.0482
 7902TIP3    H145121   4.717   1.884  13.359 -0.8223 -0.0323 -1.1292
 7902TIP3    H245122   4.844   1.950  13.310  0.0951 -1.5782 -0.9065
 7903TIP3   OH245123   0.972   2.335  16.824 -0.4428  0.3142  0.4495
 7903TIP3    H145124   0.979   2.343  16.729  0.1830  0.3354  0.4964
 7903TIP3    H245125   0.994   2.244  16.843  0.1334  0.4868  0.6345
 7904TIP3   OH245126   2.932   1.082  13.245  0.3057 -0.1474 -1.1132
 7904TIP3    H145127   2.848   1.123  13.265 -0.2565 -2.5495  2.4172
 7904TIP3    H245128   2.909   1.004  13.194  0.0423 -1.8037  1.3883
 7905TIP3   OH245129   5.845   0.210  17.044  0.1115  0.6445 -0.4662
 7905TIP3    H145130   5.848   0.163  17.127 -0.9422 -1.0334 -1.3235
 7905TIP3    H245131   5.929   0.255  17.040  0.8029 -0.4219  0.8403
 7906TIP3   OH245132   0.993   3.303   3.119  0.2355 -0.4524  0.3293
 7906TIP3    H145133   1.089   3.298   3.120  0.3124  0.7316  1.3618
 7906TIP3    H245134   0.966   3.267   3.203 -0.0688  1.1789  0.9741
 7907TIP3   OH245135   4.986   1.475   3.815  0.1217 -0.0333  0.3737
 7907TIP3    H145136   4.955   1.399   3.864 -1.2671  0.2375 -0.0511
 7907TIP3    H245137   5.020   1.438   3.733 -1.2332 -0.1491 -0.1495
 7908TIP3   OH245138   2.002   4.520  11.585 -0.3941 -0.3001 -0.0854
 7908TIP3    H145139   2.006   4.432  11.623  1.5657  0.7833  2.5434
 7908TIP3    H245140   2.017   4.579  11.659 -0.3577  2.2126 -1.9496
 7909TIP3   OH245141   4.759   4.681   6.193 -0.5604  0.4901  0.3109
 7909TIP3    H145142   4.793   4.665   6.281  0.1266 -0.0209 -0.0324
 7909TIP3    H245143   4.807   4.619   6.137 -3.1534 -1.4365  0.0116
 7910TIP3   OH245144   6.245   0.399   4.321 -0.7328 -0.1464  0.0060
 7910TIP3    H145145   6.331   0.357   4.318  0.1605  0.8944  4.1360
 7910TIP3    H245146   6.238   0.446   4.238  1.9270 -1.6053 -1.1746
 7911TIP3   OH245147   6.111   4.814   2.852  0.1653 -0.4648  0.5239
 7911TIP3    H145148   6.074   4.753   2.916 -0.6906 -0.0486  0.4438
 7911TIP3    H245149   6.045   4.818   2.783 -0.2042  1.2057  0.9408
 7912TIP3   OH245150   6.319   5.467   1.379  0.2283  0.0039  0.4260
 7912TIP3    H145151   6.240   5.472   1.433  1.1070  0.7138  1.6957
 7912TIP3    H245152   6.384   5.518   1.427  2.5537 -3.3966  1.3130
 7913TIP3   OH245153   6.230   1.610  15.406 -0.2387  0.3393  0.9049
 7913TIP3    H145154   6.222   1.576  15.316  0.6552  0.6341  0.7082
 7913TIP3    H245155   6.148   1.658  15.420  0.4074  1.9625 -0.4785
 7914TIP3   OH245156   0.113   1.045   4.029 -0.3950 -0.4206 -0.0935
 7914TIP3    H145157   0.147   0.987   3.962 -0.4278 -0.3348 -0.1849
 7914TIP3    H245158   0.132   1.133   3.997  0.2769 -0.3838  0.3643
 7915TIP3   OH245159   2.926   1.944   1.937  0.3557 -0.1912  0.4083
 7915TIP3    H145160   3.006   1.998   1.931 -0.0322  0.4338  0.7053
 7915TIP3    H245161   2.950   1.872   1.995  0.8873 -0.3388  0.0100
 7916TIP3   OH245162   4.380   4.193   2.111 -0.3852 -0.3078 -0.2708
 7916TIP3    H145163   4.362   4.114   2.060 -1.2687 -0.7540  0.6898
 7916TIP3    H245164   4.471   4.183   2.139 -0.5698 -1.1497  0.0845
 7917TIP3   OH245165   3.745   5.460   3.961  0.5586  0.4150 -0.8053
 7917TIP3    H145166   3.726   5.551   3.982  0.6143 -0.1641  2.1607
 7917TIP3    H245167   3.829   5.443   4.004  1.1660 -0.7316 -2.3600
 7918TIP3   OH245168   4.906   2.559  11.608  0.0929  0.0878 -0.2920
 7918TIP3    H145169   4.981   2.504  11.587 -2.2473 -3.2774 -0.7257
 7918TIP3    H245170   4.839   2.498  11.637 -2.6760  2.8077 -0.4111
 7919TIP3   OH245171   4.174   0.105   0.800 -0.3153 -0.1735 -0.4446
 7919TIP3    H145172   4.120   0.028   0.819 -1.1156  0.8042  1.4964
 7919TIP3    H245173   4.144   0.171   0.861  0.7058  1.5572 -1.7284
 7920TIP3   OH245174   1.466   0.180  14.377  0.1078 -0.5270 -0.1276
 7920TIP3    H145175   1.386   0.197  14.326 -0.2764 -0.0301  0.6206
 7920TIP3    H245176   1.525   0.251  14.352 -0.9733  1.2115  1.9099
 7921TIP3   OH245177   4.769   6.515  15.057 -0.1319  0.4513 -0.2682
 7921TIP3    H145178   4.741   6.596  15.015  0.4731 -0.2704 -2.1652
 7921TIP3    H245179   4.732   6.446  15.002  2.4963 -0.5309 -0.9640
 7922TIP3   OH245180   3.790   5.111   1.997 -0.2479 -0.0696 -0.5319
 7922TIP3    H145181   3.711   5.165   1.988 -0.2634 -0.1908 -1.2293
 7922TIP3    H245182   3.844   5.134   1.921 -0.4340 -1.3085 -1.0791
 7923TIP3   OH245183   6.588   6.076  14.846 -0.2568  0.1039 -0.1523
 7923TIP3    H145184   6.624   6.112  14.928  1.4841  0.9899 -1.2413
 7923TIP3    H245185   6.651   6.102  14.779 -1.5751 -0.7138 -1.7791
 7924TIP3   OH245186   1.079   3.111   5.296 -0.1669  0.2676  0.1151
 7924TIP3    H145187   1.119   3.035   5.338  1.1499  0.0376 -1.4252
 7924TIP3    H245188   1.017   3.073   5.234 -0.2752  0.4901  0.0865
 7925TIP3   OH245189   2.963   1.258  14.189  0.8544  0.1021 -0.4226
 7925TIP3    H145190   2.980   1.173  14.230 -1.3198 -1.2155 -2.0548
 7925TIP3    H245191   2.923   1.311  14.259 -1.7840 -1.7260 -0.4001
 7926TIP3   OH245192   5.842   1.792   1.826  0.1807  0.9700 -0.2213
 7926TIP3    H145193   5.837   1.783   1.922  1.7425  2.7112  0.0895
 7926TIP3    H245194   5.815   1.707   1.793  2.5537 -0.7791  1.9011
 7927TIP3   OH245195   1.638   2.202   1.710 -0.0302  0.1145  0.1733
 7927TIP3    H145196   1.589   2.122   1.694 -0.4112  0.2353  0.7157
 7927TIP3    H245197   1.638   2.212   1.806  0.3124  0.5716  0.1299
 7928TIP3   OH245198   4.390   3.047   2.093 -0.3934  0.6031  0.0583
 7928TIP3    H145199   4.472   3.001   2.076 -0.4378  0.4380  0.3077
 7928TIP3    H245200   4.416   3.128   2.138 -0.1461  1.6366 -1.8189
 7929TIP3   OH245201   1.533   6.317   2.902 -0.5349  0.2932  0.3165
 7929TIP3    H145202   1.613   6.313   2.849 -0.2919  0.4603  0.6650
 7929TIP3    H245203   1.556   6.375   2.974 -0.6975 -0.3278  0.8776
 7930TIP3   OH245204   1.019   3.677  14.575  0.4025 -0.0008  0.4170
 7930TIP3    H145205   0.931   3.669  14.614 -0.3789 -0.7652 -1.3902
 7930TIP3    H245206   1.032   3.771  14.564 -1.0573  0.0719 -1.0736
 7931TIP3   OH245207   4.473   3.960   1.520 -0.2637 -0.3036  0.2612
 7931TIP3    H145208   4.502   3.883   1.472 -0.2214  0.9006 -1.7294
 7931TIP3    H245209   4.394   3.932   1.566 -1.4746 -1.0075 -2.1452
 7932TIP3   OH245210   2.139   6.284  13.948  0.5318  0.1344 -0.3590
 7932TIP3    H145211   2.122   6.366  13.995 -0.2146  1.7328 -3.1797
 7932TIP3    H245212   2.123   6.215  14.012 -2.4068  2.0810  1.1808
 7933TIP3   OH245213   1.882   1.260  13.164 -0.4307  0.1584 -0.5472
 7933TIP3    H145214   1.848   1.289  13.249 -1.0839  1.5200 -1.2422
 7933TIP3    H245215   1.877   1.165  13.168 -0.1571  0.1828  1.0538
 7934TIP3   OH245216   4.462   5.294  12.049  0.2181  0.0285 -0.5347
 7934TIP3    H145217   4.371   5.303  12.022  0.3736  0.5669 -0.8986
 7934TIP3    H245218   4.479   5.200  12.044 -0.2827 -0.0641 -0.5702
 7935TIP3   OH245219   1.362   2.306  11.579  0.0983 -0.3517  0.1812
 7935TIP3    H145220   1.270   2.296  11.554 -0.5856  1.7670  1.5889
 7935TIP3    H245221   1.406   2.333  11.499 -0.8349  0.2156 -0.1520
 7936TIP3   OH245222   2.601   2.957   4.908 -0.3046 -0.0578  0.4113
 7936TIP3    H145223   2.519   2.971   4.955 -1.4509  0.5373 -1.6597
 7936TIP3    H245224   2.575   2.918   4.825  1.2462  2.1682 -1.2353
 7937TIP3   OH245225   2.142   4.820  16.635  0.1801  0.0860  0.3960
 7937TIP3    H145226   2.062   4.798  16.683 -0.4659  0.2502 -0.5878
 7937TIP3    H245227   2.112   4.869  16.559  1.2217  0.1552  0.0164
 7938TIP3   OH245228   1.249   6.177  12.239 -0.1866 -0.0293  0.0171
 7938TIP3    H145229   1.228   6.183  12.332 -0.4425  2.2410 -0.1256
 7938TIP3    H245230   1.272   6.085  12.225  0.3453 -0.3308  2.4166
 7939TIP3   OH245231   3.939   2.632   1.156  0.4280  0.1671 -0.0440
 7939TIP3    H145232   3.969   2.544   1.135  1.0761  0.5569 -0.7996
 7939TIP3    H245233   3.844   2.624   1.164  0.5645 -0.7744  0.8114
 7940TIP3   OH245234   3.025   0.340   1.113  0.2812 -0.4313 -0.1314
 7940TIP3    H145235   3.120   0.331   1.117  0.4263 -0.0045 -1.8944
 7940TIP3    H245236   3.006   0.418   1.166  0.9678 -0.2557 -0.1404
 7941TIP3   OH245237   2.892   3.447   3.652  0.3144 -0.0162 -0.3720
 7941TIP3    H145238   2.839   3.374   3.622  0.8766 -0.5533 -0.0914
 7941TIP3    H245239   2.955   3.463   3.582  0.5658 -0.1867 -0.1875
 7942TIP3   OH245240   1.618   1.959  15.782 -0.7783  0.2081 -0.5251
 7942TIP3    H145241   1.678   2.028  15.811 -0.2235 -0.2618 -0.5475
 7942TIP3    H245242   1.552   1.954  15.852  0.5666 -0.9371  0.7292
 7943TIP3   OH245243   1.595   4.106  12.606 -0.5126 -0.1941 -0.4586
 7943TIP3    H145244   1.620   4.015  12.593 -0.6606 -0.0707 -1.7382
 7943TIP3    H245245   1.531   4.124  12.537  1.2446  1.5207 -1.7480
 7944TIP3   OH245246   6.570   1.321  13.868 -0.2606  0.1067  0.3741
 7944TIP3    H145247   6.523   1.385  13.920  0.9736  0.0088  1.6927
 7944TIP3    H245248   6.662   1.331  13.895  0.2374 -0.8512 -0.8465
 7945TIP3   OH245249   6.009   4.123   1.297  0.1153  0.0060 -0.1602
 7945TIP3    H145250   6.042   4.081   1.377 -0.6026  0.8857  0.6233
 7945TIP3    H245251   5.914   4.125   1.309  0.0128  0.2632 -0.9824
 7946TIP3   OH245252   0.868   4.394  14.402  0.5678  0.2945 -0.1783
 7946TIP3    H145253   0.822   4.456  14.344  2.0692  2.8883  1.2002
 7946TIP3    H245254   0.904   4.328  14.343 -0.1694  1.3702 -1.9081
 7947TIP3   OH245255   0.215   2.722   3.233 -0.0371 -0.1642  0.1394
 7947TIP3    H145256   0.120   2.734   3.234 -0.0302 -0.0615 -0.5017
 7947TIP3    H245257   0.230   2.655   3.167  0.4967  1.2457 -1.2202
 7948TIP3   OH245258   3.693   3.369   5.741  0.9331  0.0847 -0.3132
 7948TIP3    H145259   3.726   3.457   5.727  1.8616 -0.0200  0.9513
 7948TIP3    H245260   3.667   3.338   5.655  3.3669  0.5198 -1.2823
 7949TIP3   OH245261   4.411   6.218   0.702 -0.2189 -0.1430  0.0802
 7949TIP3    H145262   4.403   6.207   0.608  0.4480 -0.8067  0.0954
 7949TIP3    H245263   4.431   6.311   0.713 -1.2564  0.1410 -0.3611
 7950TIP3   OH245264   3.010   0.581   2.361 -0.3630  0.5716 -0.1720
 7950TIP3    H145265   2.965   0.590   2.276  0.7166  0.9612 -0.7152
 7950TIP3    H245266   2.939   0.577   2.425 -1.1677  2.0472 -0.9332
 7951TIP3   OH245267   1.133   2.830  16.394  0.1504  0.0627  0.0284
 7951TIP3    H145268   1.175   2.903  16.349 -0.5349  0.7345  0.4465
 7951TIP3    H245269   1.118   2.863  16.483 -2.7126  0.5035 -0.5240
 7952TIP3   OH245270   1.113   5.798  11.161 -0.2835 -0.1115 -0.0769
 7952TIP3    H145271   1.167   5.813  11.083 -0.7280 -0.1080 -0.3875
 7952TIP3    H245272   1.098   5.703  11.163 -0.6741 -0.0565 -0.2695
 7953TIP3   OH245273   5.967   2.187  15.452  0.0461  0.4857 -0.2736
 7953TIP3    H145274   6.057   2.214  15.468 -0.0227  0.9957 -0.7082
 7953TIP3    H245275   5.955   2.109  15.505  0.3640  1.1058  0.7379
 7954TIP3   OH245276   2.426   5.921   4.429  0.3952  0.2006  0.1060
 7954TIP3    H145277   2.386   6.004   4.402 -0.5518  0.2245  1.4553
 7954TIP3    H245278   2.427   5.868   4.349 -2.8297  0.0440  0.0324
 7955TIP3   OH245279   1.760   4.187   0.252 -0.2411  0.1309 -0.1078
 7955TIP3    H145280   1.799   4.256   0.305 -0.2073 -0.4017  0.5810
 7955TIP3    H245281   1.780   4.106   0.299  0.2373 -0.4130 -1.2113
 7956TIP3   OH245282   3.857   0.500   2.071 -0.2107  0.5978 -0.0607
 7956TIP3    H145283   3.866   0.489   2.166 -2.2088 -0.0244  0.1091
 7956TIP3    H245284   3.816   0.419   2.041  1.5554  0.2421 -1.6916
 7957TIP3   OH245285   0.076   6.794  15.269  0.1869  0.1131 -0.4733
 7957TIP3    H145286   0.120   6.861  15.216  0.6411  0.1219 -0.0984
 7957TIP3    H245287   0.138   6.777  15.340  0.4055 -1.2481 -0.9632
 7958TIP3   OH245288   1.195   5.213  15.068 -0.0631  0.0637 -0.6143
 7958TIP3    H145289   1.159   5.221  15.157  0.9651 -0.2087 -0.1676
 7958TIP3    H245290   1.142   5.145  15.027 -0.8462  0.5079 -0.3732
 7959TIP3   OH245291   6.075   3.236   5.070 -0.0928  0.0329  0.6343
 7959TIP3    H145292   6.069   3.211   4.978  0.0657 -2.3455  1.2022
 7959TIP3    H245293   5.990   3.275   5.090  0.3525  1.9137 -0.8122
 7960TIP3   OH245294   0.279   4.987   1.192 -0.8859  0.2797 -0.4788
 7960TIP3    H145295   0.279   4.891   1.191 -2.1747  0.2618 -0.9118
 7960TIP3    H245296   0.233   5.012   1.112  0.0567  1.2862 -0.7234
 7961TIP3   OH245297   5.987   2.647   4.062 -0.0339  0.1154  0.1906
 7961TIP3    H145298   5.973   2.557   4.093 -1.7364  1.2375  3.1584
 7961TIP3    H245299   5.902   2.674   4.027  0.0292  0.9779  0.6588
 7962TIP3   OH245300   2.963   5.573   5.450 -0.0381  0.0929 -0.5633
 7962TIP3    H145301   2.890   5.622   5.489  0.4308  0.8871 -0.6752
 7962TIP3    H245302   2.968   5.605   5.360  2.0427  1.9283  0.1159
 7963TIP3   OH245303   5.225   6.571  15.197 -0.3688  0.1860 -0.1134
 7963TIP3    H145304   5.291   6.514  15.156 -2.8550 -1.9074 -1.5373
 7963TIP3    H245305   5.220   6.648  15.140 -0.2859 -0.4109 -0.9479
 7964TIP3   OH245306   4.842   4.532  15.857  1.0516 -0.2074 -0.6837
 7964TIP3    H145307   4.783   4.501  15.788  0.4023 -1.1151  0.2457
 7964TIP3    H245308   4.786   4.586  15.913  1.3295 -0.3340 -0.2853
 7965TIP3   OH245309   4.676   5.429   2.598  0.6569  0.3414  0.8045
 7965TIP3    H145310   4.633   5.363   2.653  1.1605 -1.0532 -0.3845
 7965TIP3    H245311   4.679   5.388   2.511  1.4987  1.7244  0.1551
 7966TIP3   OH245312   0.087   6.024   0.243  0.2010  0.2958 -0.0607
 7966TIP3    H145313   0.169   6.040   0.197  1.4528 -0.4779  1.8158
 7966TIP3    H245314   0.103   5.947   0.297 -1.4728  0.6439  1.0298
 7967TIP3   OH245315   1.099   4.079   3.994 -0.1602  0.0555  0.3321
 7967TIP3    H145316   1.153   4.006   3.964  1.3364  0.6970  1.3115
 7967TIP3    H245317   1.030   4.039   4.046  0.1287 -0.7277  0.1232
 7968TIP3   OH245318   0.420   1.898   2.964  0.3125  0.6604 -0.1327
 7968TIP3    H145319   0.344   1.864   2.918  0.9686  0.7089 -1.2745
 7968TIP3    H245320   0.484   1.828   2.961  0.6953  1.0029 -0.1053
 7969TIP3   OH245321   2.268   6.478  12.797  0.3521  0.2085 -0.1549
 7969TIP3    H145322   2.200   6.545  12.805 -0.3377 -0.6078  1.1911
 7969TIP3    H245323   2.279   6.466  12.703  0.7404  2.4396 -0.4455
 7970TIP3   OH245324   6.365   4.012   2.581 -0.0128 -0.2207  0.3418
 7970TIP3    H145325   6.460   4.022   2.592 -0.0131 -0.4309  0.5573
 7970TIP3    H245326   6.350   3.918   2.597 -0.2495 -0.1954  0.2596
 7971TIP3   OH245327   0.154   6.292   4.996 -0.6175  0.2258 -0.0823
 7971TIP3    H145328   0.183   6.242   4.921  1.4517  2.0031 -0.5568
 7971TIP3    H245329   0.208   6.260   5.069  0.5563  1.5173 -0.3424
 7972TIP3   OH245330   3.875   3.277  12.319 -0.1660 -0.3355  0.3691
 7972TIP3    H145331   3.780   3.271  12.313 -0.0575 -1.0428 -1.0082
 7972TIP3    H245332   3.902   3.320  12.238  0.8346 -2.0328 -0.2425
 7973TIP3   OH245333   1.590   1.448   5.928 -0.3225  0.4679  0.3281
 7973TIP3    H145334   1.608   1.385   5.998 -3.0396  0.8861  1.5390
 7973TIP3    H245335   1.614   1.533   5.966 -1.1763  0.6276  0.5209
 7974TIP3   OH245336   1.904   5.266   2.335  0.0772  0.1377 -0.7556
 7974TIP3    H145337   1.846   5.331   2.374 -0.4399 -0.2405 -0.8667
 7974TIP3    H245338   1.845   5.193   2.313  0.7492 -0.6401 -0.0239
 7975TIP3   OH245339   4.814   2.941  16.284 -0.2529 -0.0156  0.9354
 7975TIP3    H145340   4.785   2.850  16.273 -1.0903  0.2215  1.1778
 7975TIP3    H245341   4.735   2.990  16.305  0.1777  0.7982  0.7041
 7976TIP3   OH245342   5.591   0.538  15.657  0.4095  1.0728 -0.1114
 7976TIP3    H145343   5.661   0.589  15.698  0.5662  0.3344  0.5572
 7976TIP3    H245344   5.635   0.465  15.614  0.1793  1.4629 -1.0294
 7977TIP3   OH245345   1.015   0.215   4.415  0.1741  0.0534 -0.2155
 7977TIP3    H145346   0.935   0.267   4.414  0.4813  0.5334 -0.2300
 7977TIP3    H245347   1.069   0.252   4.345  0.3951 -0.2940 -0.2354
 7978TIP3   OH245348   5.799   1.627  13.485  0.4635 -0.1959  0.0472
 7978TIP3    H145349   5.883   1.627  13.438  0.3935  1.4520 -0.1665
 7978TIP3    H245350   5.823   1.616  13.577  0.8850 -0.1386 -0.0531
 7979TIP3   OH245351   0.292   4.837  13.819  0.2802 -0.1380  0.0789
 7979TIP3    H145352   0.354   4.811  13.887 -0.4561  0.5304  1.0461
 7979TIP3    H245353   0.230   4.894  13.865 -0.3559  0.1606 -1.1208
 7980TIP3   OH245354   1.234   2.917   3.786 -0.1114 -0.4011  0.0695
 7980TIP3    H145355   1.238   2.861   3.709  2.1544 -1.1636  0.6650
 7980TIP3    H245356   1.232   3.006   3.750  0.1166 -0.7580 -0.8654
 7981TIP3   OH245357   0.635   3.070   0.981 -0.4672  0.2019  0.4605
 7981TIP3    H145358   0.544   3.078   1.008 -0.3376  0.5032  0.8206
 7981TIP3    H245359   0.674   3.010   1.045 -0.7234 -1.0046 -0.4784
 7982TIP3   OH245360   4.523   5.032  12.069  0.2067 -0.5309  0.6801
 7982TIP3    H145361   4.450   4.989  12.113  0.0789 -0.4712  0.5301
 7982TIP3    H245362   4.591   4.965  12.063  0.2362 -0.5317  0.9893
 7983TIP3   OH245363   6.174   3.105  16.420  0.1223  0.0219 -0.2658
 7983TIP3    H145364   6.162   3.162  16.496  0.1112  0.1581 -0.3707
 7983TIP3    H245365   6.241   3.149  16.368  0.7332 -0.4857  0.0758
 7984TIP3   OH245366   6.214   5.202  15.076 -0.5839  0.4945 -0.3763
 7984TIP3    H145367   6.256   5.281  15.112  1.0534 -0.2272 -0.5861
 7984TIP3    H245368   6.157   5.172  15.146  0.1494  0.8746  0.4164
 7985TIP3   OH245369   6.464   0.392  13.034 -0.2213 -0.0750  0.1105
 7985TIP3    H145370   6.452   0.301  13.009 -0.4859 -0.3787  1.2603
 7985TIP3    H245371   6.455   0.442  12.953 -2.0237 -0.9148 -0.2542
 7986TIP3   OH245372   3.168   6.784   4.885 -0.0164 -0.2114 -0.1346
 7986TIP3    H145373   3.212   6.810   4.966  0.9280 -0.6767 -0.4888
 7986TIP3    H245374   3.238   6.753   4.828 -0.6446  0.3481 -1.2324
 7987TIP3   OH245375   6.068   5.996  11.710 -0.5155 -0.1600  0.1607
 7987TIP3    H145376   6.120   5.946  11.648 -0.8297 -0.1631 -0.1038
 7987TIP3    H245377   5.980   5.998  11.672 -0.8469 -0.6508  0.8859
 7988TIP3   OH245378   5.541   1.698   3.242 -0.1091  0.0970 -0.2802
 7988TIP3    H145379   5.617   1.695   3.300  0.7813 -0.3567 -1.4452
 7988TIP3    H245380   5.516   1.607   3.230 -1.1122  0.2544  0.3994
 7989TIP3   OH245381   0.693   2.129  11.038 -0.1599  0.2658  0.4870
 7989TIP3    H145382   0.628   2.102  11.103  0.8779  0.7773  1.7817
 7989TIP3    H245383   0.658   2.210  11.001 -1.0088 -0.3083  0.0129
 7990TIP3   OH245384   1.589   3.813   2.350 -0.6490 -0.1447  0.0849
 7990TIP3    H145385   1.593   3.864   2.269 -1.1390  0.8929  0.6935
 7990TIP3    H245386   1.568   3.724   2.321 -0.5286  0.1475 -0.9475
 7991TIP3   OH245387   1.821   1.602  11.754  0.2466  0.0233  0.0979
 7991TIP3    H145388   1.842   1.524  11.704 -1.3302  0.3388 -1.1507
 7991TIP3    H245389   1.729   1.591  11.778  0.2774  1.0519  0.7781
 7992TIP3   OH245390   2.440   6.160  14.190 -0.0824  0.2275  0.0368
 7992TIP3    H145391   2.462   6.237  14.242  1.2342  1.0139 -1.6071
 7992TIP3    H245392   2.514   6.101  14.203  1.8980  1.7111 -3.2645
 7993TIP3   OH245393   0.130   2.155  14.647 -0.0870  0.1573  0.2623
 7993TIP3    H145394   0.145   2.094  14.575  1.1398 -0.1073  0.7186
 7993TIP3    H245395   0.054   2.207  14.620  0.3417  0.0533 -1.1933
 7994TIP3   OH245396   2.057   5.298  11.266  0.3120  0.3753 -0.9295
 7994TIP3    H145397   2.111   5.367  11.306 -0.7396  0.8850 -0.3649
 7994TIP3    H245398   2.028   5.244  11.340  1.3317 -0.8521 -1.3904
 7995TIP3   OH245399   2.478   1.605   2.789  0.4127  0.2505 -0.1473
 7995TIP3    H145400   2.473   1.520   2.745  0.3544 -0.5320  1.3064
 7995TIP3    H245401   2.393   1.646   2.772 -0.0555 -0.5495  0.2298
 7996TIP3   OH245402   3.382   0.835  14.895 -0.5490  0.1351 -0.2516
 7996TIP3    H145403   3.308   0.775  14.888 -0.0080 -0.6781  0.7101
 7996TIP3    H245404   3.417   0.841  14.806 -1.6680  0.4147 -0.6847
 7997TIP3   OH245405   5.921   1.545   3.022 -0.1332 -0.2385 -0.0975
 7997TIP3    H145406   5.863   1.573   2.951 -1.2080  0.5122  1.0233
 7997TIP3    H245407   5.886   1.589   3.100 -0.1272 -2.4905  1.2560
 7998TIP3   OH245408   4.674   2.340  14.546 -0.1950  0.4993  0.0976
 7998TIP3    H145409   4.655   2.424  14.587  0.1277  1.3421 -1.4058
 7998TIP3    H245410   4.714   2.287  14.615 -0.1518  1.6857  0.9909
 7999TIP3   OH245411   5.668   0.051   0.054 -0.3655  0.0735 -0.1081
 7999TIP3    H145412   5.638   0.035   0.143  0.7656  0.5070  0.3807
 7999TIP3    H245413   5.645   0.142   0.036  0.9832  0.5495  0.4384
 8000TIP3   OH245414   0.342   4.423  15.806  0.3879  0.0108 -0.4095
 8000TIP3    H145415   0.288   4.461  15.875  0.9404  0.1223 -0.0270
 8000TIP3    H245416   0.342   4.329  15.826 -0.1298 -0.0629 -0.7464
 8001TIP3   OH245417   0.447   1.238   4.281 -0.0942  0.1445  0.1743
 8001TIP3    H145418   0.409   1.309   4.333 -0.3808 -0.9886  1.5484
 8001TIP3    H245419   0.537   1.230   4.314  0.7048  1.3451 -1.5532
 8002TIP3   OH245420   3.091   5.247  11.450 -0.2051 -0.0505 -0.0214
 8002TIP3    H145421   3.013   5.232  11.396 -0.6313  1.4022  0.1480
 8002TIP3    H245422   3.128   5.329  11.416  1.3757 -0.7985 -0.2258
 8003TIP3   OH245423   0.817   5.102   5.607 -0.1809  0.2882  0.1777
 8003TIP3    H145424   0.769   5.021   5.618 -0.7566  0.6025 -0.0007
 8003TIP3    H245425   0.756   5.171   5.634 -0.7504  0.9048 -2.4147
 8004TIP3   OH245426   0.326   1.827   3.609 -0.0587  0.6040 -0.3535
 8004TIP3    H145427   0.305   1.766   3.538  1.4409  0.7580 -0.9737
 8004TIP3    H245428   0.241   1.861   3.637 -0.9187 -1.5486 -0.1621
 8005TIP3   OH245429   2.257   5.876  12.495 -0.1257  0.1077 -0.0279
 8005TIP3    H145430   2.344   5.907  12.520 -0.1981 -0.5874  1.1856
 8005TIP3    H245431   2.257   5.783  12.520 -2.0880  0.6932  2.4849
 8006TIP3   OH245432   6.505   0.442   5.316 -0.1597  1.1254  0.0675
 8006TIP3    H145433   6.561   0.462   5.391 -0.8585  1.6337  0.4708
 8006TIP3    H245434   6.434   0.389   5.352 -0.1081  0.7473 -0.3785
 8007TIP3   OH245435   1.878   1.160  13.636  0.0493  0.2466  0.7360
 8007TIP3    H145436   1.826   1.100  13.690  0.9804 -0.1193  1.2389
 8007TIP3    H245437   1.883   1.240  13.688 -1.6058  0.9789 -0.1433
 8008TIP3   OH245438   0.904   6.554  11.724 -0.2076  0.4120  0.2229
 8008TIP3    H145439   0.927   6.633  11.674 -2.1478  0.9650  0.1162
 8008TIP3    H245440   0.869   6.494  11.659  0.9446 -0.4392  0.3602
 8009TIP3   OH245441   5.249   4.011  13.300  0.7513  0.0008  0.6016
 8009TIP3    H145442   5.182   4.042  13.240  1.9020 -0.3478 -0.9166
 8009TIP3    H245443   5.299   4.090  13.322  1.1991 -0.1006 -0.0393
 8010TIP3   OH245444   0.730   6.728  12.161  0.0521 -0.0771  0.1369
 8010TIP3    H145445   0.789   6.778  12.217  0.7923  0.3828 -1.0231
 8010TIP3    H245446   0.688   6.793  12.104 -0.4422 -0.5644 -0.0770
 8011TIP3   OH245447   5.841   0.736   0.792  0.3453  0.0437  0.6930
 8011TIP3    H145448   5.787   0.813   0.809 -1.5963 -0.6332 -1.7629
 8011TIP3    H245449   5.909   0.767   0.732 -1.1216 -0.2590 -1.2393
 8012TIP3   OH245450   2.872   4.663   5.939 -0.0106 -0.3178 -0.6136
 8012TIP3    H145451   2.954   4.636   5.897 -0.2129  1.8760 -2.6917
 8012TIP3    H245452   2.889   4.753   5.967 -0.5311 -1.0757  2.5121
 8013TIP3   OH245453   3.127   5.916   5.256  0.3728  0.1847 -0.3854
 8013TIP3    H145454   3.081   5.957   5.183  0.8326 -0.4656 -1.0508
 8013TIP3    H245455   3.058   5.887   5.315 -0.0113  0.3700 -0.7429
 8014TIP3   OH245456   4.743   3.311   3.453 -0.3003 -0.1897  0.5416
 8014TIP3    H145457   4.816   3.351   3.500 -0.2189  2.2749 -1.4366
 8014TIP3    H245458   4.784   3.272   3.375 -0.8544 -0.5622  0.4346
 8015TIP3   OH245459   4.837   5.784  13.539  0.4745  0.0869  0.2912
 8015TIP3    H145460   4.767   5.837  13.579 -0.5979 -0.0929 -1.2832
 8015TIP3    H245461   4.796   5.699  13.523 -0.0170  0.8881 -3.5076
 8016TIP3   OH245462   1.671   3.436  13.303  0.3281  0.1768  0.2689
 8016TIP3    H145463   1.600   3.501  13.305  0.3496  0.2001  0.2685
 8016TIP3    H245464   1.692   3.422  13.395  0.0926 -0.0832  0.2862
 8017TIP3   OH245465   6.083   4.038  16.643 -0.0145 -0.6368  0.3094
 8017TIP3    H145466   6.072   3.943  16.634  0.7885 -0.7221  0.1825
 8017TIP3    H245467   6.148   4.061  16.577 -0.5398  0.0802  0.0279
 8018TIP3   OH245468   3.459   1.628  11.959  0.2324  0.3576  0.1020
 8018TIP3    H145469   3.442   1.624  12.053  0.8970  0.5767  0.2372
 8018TIP3    H245470   3.381   1.590  11.919  0.7341 -1.5634  0.8268
 8019TIP3   OH245471   1.010   3.849   3.530 -0.0788  0.2373 -0.4414
 8019TIP3    H145472   1.046   3.815   3.612  0.4957  0.9228 -0.4035
 8019TIP3    H245473   1.070   3.919   3.504 -1.5293  1.5980 -0.2491
 8020TIP3   OH245474   2.201   0.303   5.373  0.0799  0.1617 -0.3241
 8020TIP3    H145475   2.192   0.375   5.436  1.9502 -0.0459  0.2683
 8020TIP3    H245476   2.262   0.337   5.307 -0.1522 -0.3891 -0.8340
 8021TIP3   OH245477   3.355   6.401   2.750  0.6514  0.1814 -0.0159
 8021TIP3    H145478   3.437   6.377   2.792  0.4172 -0.2287  0.2120
 8021TIP3    H245479   3.287   6.377   2.813  0.1842 -1.8758 -1.2159
 8022TIP3   OH245480   1.891   2.188  14.913  0.2887 -0.2637 -1.0623
 8022TIP3    H145481   1.921   2.203  15.002 -2.7308  0.6209 -0.0814
 8022TIP3    H245482   1.876   2.275  14.877 -2.3344 -0.5799 -0.9319
 8023TIP3   OH245483   5.887   0.799  13.886  0.0528  0.3444  0.5268
 8023TIP3    H145484   5.817   0.750  13.842 -2.3715  1.8077  2.4644
 8023TIP3    H245485   5.908   0.869  13.825 -1.8144  1.1775  0.7666
 8024TIP3   OH245486   4.781   1.118  16.995 -0.0185 -0.1694 -0.1042
 8024TIP3    H145487   4.783   1.200  16.945 -1.0164  0.4997  0.8911
 8024TIP3    H245488   4.842   1.132  17.067  0.1406 -0.4810 -0.1762
 8025TIP3   OH245489   4.277   3.028   0.193 -0.0349 -0.3126 -0.0909
 8025TIP3    H145490   4.249   2.958   0.252 -1.8660  0.7882  0.4168
 8025TIP3    H245491   4.353   3.068   0.237 -0.5700 -0.3465  0.8782
 8026TIP3   OH245492   1.612   3.576  16.232  0.2355  0.5990  0.3856
 8026TIP3    H145493   1.520   3.587  16.253  0.3348 -1.0995  1.8535
 8026TIP3    H245494   1.614   3.563  16.137 -1.2993 -1.6843  0.6115
 8027TIP3   OH245495   2.590   0.384  12.227 -0.3545 -0.0611 -0.0639
 8027TIP3    H145496   2.642   0.404  12.305 -0.8351 -0.2648  0.3120
 8027TIP3    H245497   2.556   0.296  12.242  0.8219 -0.7591 -1.2066
 8028TIP3   OH245498   1.180   5.672  16.536  0.1996 -0.6446  0.0274
 8028TIP3    H145499   1.112   5.718  16.585 -0.0913  2.2086 -2.7578
 8028TIP3    H245500   1.261   5.717  16.557 -0.0147  1.0191 -2.3751
 8029TIP3   OH245501   3.808   6.428  10.232  0.4309 -0.0882 -0.1179
 8029TIP3    H145502   3.856   6.461  10.156  1.4252  3.0232  1.6568
 8029TIP3    H245503   3.770   6.506  10.272 -1.5846 -1.8263  1.6138
 8030TIP3   OH245504   0.127   5.324  13.915  0.1351 -0.3591  0.1546
 8030TIP3    H145505   0.061   5.308  13.982 -0.9890  1.1763 -0.5049
 8030TIP3    H245506   0.165   5.409  13.938  0.9079 -0.5843 -0.2475
 8031TIP3   OH245507   3.215   2.179  13.460  0.5428 -0.4161 -0.1184
 8031TIP3    H145508   3.134   2.188  13.511  0.6351  0.0965 -0.0632
 8031TIP3    H245509   3.258   2.264  13.467  0.5768 -0.3512 -1.0320
 8032TIP3   OH245510   4.392   0.736  14.934  0.0319  0.3646  0.0464
 8032TIP3    H145511   4.335   0.727  15.010 -0.4102  1.2139 -0.1606
 8032TIP3    H245512   4.422   0.648  14.914  0.4584  0.1750  1.4317
 8033TIP3   OH245513   4.643   0.026  12.551 -0.3366  0.1677 -0.1962
 8033TIP3    H145514   4.565  -0.029  12.562 -0.2915  0.0810 -0.2992
 8033TIP3    H245515   4.682  -0.006  12.470 -1.4271  1.7162 -1.3808
 8034TIP3   OH245516   1.571   1.841  13.195  0.2117 -0.0935  0.6322
 8034TIP3    H145517   1.640   1.843  13.128  0.7007 -0.2603  1.1258
 8034TIP3    H245518   1.490   1.850  13.145  0.4165 -2.2566 -0.2150
 8035TIP3   OH245519   4.307   2.234  16.971  0.7614  0.2571 -0.2262
 8035TIP3    H145520   4.252   2.246  17.049 -0.9098  0.1244 -1.3513
 8035TIP3    H245521   4.387   2.194  17.005  0.3246  0.7654  1.5133
 8036TIP3   OH245522   0.929   5.409  15.377  0.5049 -0.0888 -0.2596
 8036TIP3    H145523   0.923   5.493  15.332  1.9940  1.6594  2.5262
 8036TIP3    H245524   0.844   5.398  15.419  0.4913  0.2866 -0.1889
 8037TIP3   OH245525   3.653   1.807  16.424 -0.6651  0.3067 -0.1995
 8037TIP3    H145526   3.680   1.722  16.391 -0.6780  0.5546 -0.8551
 8037TIP3    H245527   3.615   1.788  16.510 -0.9216 -0.3838 -0.4555
 8038TIP3   OH245528   6.513   2.131   2.354 -0.5507  0.0731 -0.1456
 8038TIP3    H145529   6.514   2.208   2.297  0.7312 -0.4522 -0.8864
 8038TIP3    H245530   6.483   2.060   2.297 -1.5554 -0.0089  0.4848
 8039TIP3   OH245531   0.790   2.194   1.818 -0.2074  0.4260  0.4661
 8039TIP3    H145532   0.729   2.125   1.843  0.5756 -1.0612 -1.5037
 8039TIP3    H245533   0.735   2.272   1.808 -1.5493 -0.5276  0.1685
 8040TIP3   OH245534   5.911   0.517   1.488 -0.0449  0.0016  0.2317
 8040TIP3    H145535   5.927   0.564   1.570  4.1135  1.3119 -1.1118
 8040TIP3    H245536   5.860   0.579   1.435 -0.1852  0.3616  0.7742
 8041TIP3   OH245537   2.102   1.819   5.333  0.1313 -0.3654  0.0538
 8041TIP3    H145538   2.139   1.890   5.280  0.4230  0.9124  1.8953
 8041TIP3    H245539   2.009   1.843   5.343  0.3442  0.0638  1.1090
 8042TIP3   OH245540   5.043   2.284   0.060  0.0214 -0.1390 -0.2245
 8042TIP3    H145541   5.059   2.194   0.090 -0.9939 -0.4075 -0.4370
 8042TIP3    H245542   4.963   2.310   0.107  0.5685  0.8312  0.1913
 8043TIP3   OH245543   4.914   0.668  14.512  0.0393 -0.3964  0.9876
 8043TIP3    H145544   4.890   0.759  14.493  1.1196 -0.1058  0.9183
 8043TIP3    H245545   4.998   0.656  14.468  0.1264 -1.2940  1.3713
 8044TIP3   OH245546   2.964   3.064  14.072  0.1407 -0.4687  0.3421
 8044TIP3    H145547   2.878   3.063  14.030  0.6744 -0.3197 -0.7690
 8044TIP3    H245548   2.975   2.975  14.105 -0.2418 -0.6175  0.0812
 8045TIP3   OH245549   2.706   0.497   3.589  0.0874 -0.2731  0.1142
 8045TIP3    H145550   2.694   0.583   3.550  1.6188 -0.0193  0.1231
 8045TIP3    H245551   2.690   0.509   3.682  1.3082  0.2619  0.2747
 8046TIP3   OH245552   6.420   6.806   2.360  0.2350  0.2930  0.4606
 8046TIP3    H145553   6.467   6.758   2.428 -0.9743  0.1753  1.2556
 8046TIP3    H245554   6.410   6.894   2.396  2.4748  1.2253 -1.0037
 8047TIP3   OH245555   2.258   1.518   3.423 -0.5866 -0.1602 -0.1127
 8047TIP3    H145556   2.177   1.477   3.391 -1.3824  0.9538  0.4067
 8047TIP3    H245557   2.270   1.482   3.511 -1.6484  1.1830  0.6020
 8048TIP3   OH245558   4.972   5.482   3.711  0.1662  0.1684  0.0669
 8048TIP3    H145559   4.971   5.578   3.706 -0.2843  0.1466 -0.4686
 8048TIP3    H245560   4.880   5.457   3.703  0.4126 -0.3666 -1.4598
 8049TIP3   OH245561   6.367   0.309   3.878 -0.2835 -0.3613 -0.1234
 8049TIP3    H145562   6.381   0.261   3.797  0.2211  0.4295 -0.5150
 8049TIP3    H245563   6.435   0.377   3.879 -1.8767  1.3142 -0.3307
 8050TIP3   OH245564   0.792   1.739  15.825  0.2899 -0.0064  0.3558
 8050TIP3    H145565   0.781   1.646  15.839  1.6025  0.1067  2.5505
 8050TIP3    H245566   0.705   1.770  15.799  0.0770 -1.9539 -1.5756
 8051TIP3   OH245567   3.440   2.949   2.557 -0.3852 -0.1973  0.2253
 8051TIP3    H145568   3.470   3.034   2.525 -0.4625  0.1297  1.0083
 8051TIP3    H245569   3.381   2.917   2.488 -1.2338  0.8833  0.4211
 8052TIP3   OH245570   1.753   0.885   2.320  0.4475 -0.1464 -0.5480
 8052TIP3    H145571   1.738   0.795   2.291 -0.5187 -0.6135  1.2883
 8052TIP3    H245572   1.782   0.877   2.410 -1.4700  1.4405  0.2833
 8053TIP3   OH245573   6.635   5.690   3.380  0.6902 -0.2324  0.1670
 8053TIP3    H145574   6.716   5.713   3.425 -0.0534  1.2134  0.8261
 8053TIP3    H245575   6.567   5.741   3.425 -0.3603 -0.2330 -1.3552
 8054TIP3   OH245576   5.852   5.062   3.980  0.5449 -0.1954  0.1464
 8054TIP3    H145577   5.910   5.087   4.052  1.2791 -0.4478 -0.3454
 8054TIP3    H245578   5.902   4.998   3.930 -0.9259 -1.9582  0.8241
 8055TIP3   OH245579   3.081   5.162  11.175  0.2070  0.1942 -0.6924
 8055TIP3    H145580   3.082   5.160  11.080  1.5327 -0.9177 -0.6844
 8055TIP3    H245581   3.173   5.169  11.201  0.1467 -2.1847  0.4793
 8056TIP3   OH245582   1.933   2.386  13.206 -0.0784 -0.1356 -0.6841
 8056TIP3    H145583   1.990   2.410  13.133  1.1757 -1.9623 -0.3740
 8056TIP3    H245584   1.908   2.470  13.245  1.5596  0.7866 -1.4869
 8057TIP3   OH245585   4.987   1.994  12.016 -0.3091 -0.2360  0.2378
 8057TIP3    H145586   4.952   1.916  11.973  3.2988 -2.2151  0.5396
 8057TIP3    H245587   5.016   1.964  12.102  0.7554  1.5294  0.5491
 8058TIP3   OH245588   2.991   0.692   6.150 -0.2285 -0.4255 -0.6190
 8058TIP3    H145589   3.066   0.642   6.182 -0.8460 -0.9364  0.0642
 8058TIP3    H245590   2.949   0.725   6.230 -1.4815 -1.2512 -0.9080
 8059TIP3   OH245591   3.805   4.982   2.288 -0.3430  0.3255 -0.2030
 8059TIP3    H145592   3.792   4.898   2.332  0.4103  0.6743  0.7153
 8059TIP3    H245593   3.769   4.969   2.200  1.9613 -1.7743 -0.9656
 8060TIP3   OH245594   5.484   6.345   0.317 -0.5252 -0.5011  0.0249
 8060TIP3    H145595   5.443   6.259   0.318 -0.1768 -0.8919 -3.9835
 8060TIP3    H245596   5.577   6.328   0.328 -0.5954 -0.4691  0.6914
 8061TIP3   OH245597   0.627   6.295  15.488  0.4800  0.0085 -0.5235
 8061TIP3    H145598   0.556   6.311  15.426  3.2253 -0.5830 -4.1343
 8061TIP3    H245599   0.673   6.379  15.493  0.0968  0.1516  1.1001
 8062TIP3   OH245600   2.549   2.830   5.508  0.2915 -0.3934  0.5756
 8062TIP3    H145601   2.512   2.789   5.586  0.6696 -0.3010  0.8056
 8062TIP3    H245602   2.495   2.799   5.436 -0.7618  0.3961  0.9991
 8063TIP3   OH245603   4.310   1.812  13.045  0.4208  0.3968 -0.3920
 8063TIP3    H145604   4.302   1.898  13.085  0.8935  0.3907 -0.2838
 8063TIP3    H245605   4.332   1.829  12.954 -1.7424  0.4449 -0.9787
 8064TIP3   OH245606   4.367   4.368   5.586 -0.5329 -0.5097  0.1466
 8064TIP3    H145607   4.441   4.362   5.526 -0.2382 -0.0434  0.4597
 8064TIP3    H245608   4.384   4.299   5.651  0.6170  0.7760  1.2843
 8065TIP3   OH245609   2.954   2.996   0.596 -0.2598  0.4442 -0.2643
 8065TIP3    H145610   3.001   3.001   0.679 -2.2892  0.8003  0.9479
 8065TIP3    H245611   2.946   2.903   0.578  0.9412  0.3816 -0.5415
 8066TIP3   OH245612   3.561   1.913  14.843 -0.5934  0.3547 -0.1312
 8066TIP3    H145613   3.548   1.834  14.791  0.2175 -0.3088  0.6558
 8066TIP3    H245614   3.544   1.985  14.781 -2.6075 -0.4084 -0.5239
 8067TIP3   OH245615   6.250   1.878   5.470  0.1899  0.4209 -0.2049
 8067TIP3    H145616   6.215   1.879   5.559 -0.9257  1.2338 -0.6252
 8067TIP3    H245617   6.338   1.915   5.478  0.1594  0.3385  0.5794
 8068TIP3   OH245618   1.992   5.193  10.848  0.8555 -0.3508  0.0184
 8068TIP3    H145619   1.920   5.130  10.843 -0.7890  1.3367  0.7471
 8068TIP3    H245620   2.069   5.141  10.872 -1.1289 -1.7256  4.5222
 8069TIP3   OH245621   1.052   6.009   4.621 -0.2965 -0.0435  0.1257
 8069TIP3    H145622   1.071   5.916   4.631 -0.8709 -0.0512  1.3002
 8069TIP3    H245623   1.131   6.054   4.651 -0.5629 -0.1414  1.0066
 8070TIP3   OH245624   1.791   5.737  14.814 -0.2467 -0.0296  0.8260
 8070TIP3    H145625   1.800   5.800  14.885  0.5882 -0.5353  1.1806
 8070TIP3    H245626   1.727   5.674  14.845 -0.3452  0.0920  0.8718
 8071TIP3   OH245627   2.430   3.159   3.572  0.1048 -0.5059  0.2902
 8071TIP3    H145628   2.391   3.078   3.540  0.2145 -0.5176  0.1846
 8071TIP3    H245629   2.378   3.228   3.531  0.9704 -0.5057 -0.8560
 8072TIP3   OH245630   3.580   1.719  14.092 -0.2305  0.2187  0.5872
 8072TIP3    H145631   3.522   1.713  14.168  0.9418  1.4212  1.6325
 8072TIP3    H245632   3.637   1.793  14.112  1.8158 -1.0425 -0.2578
 8073TIP3   OH245633   3.710   6.699  10.307  0.0767 -0.1606 -0.3520
 8073TIP3    H145634   3.692   6.752  10.384 -0.6747 -0.6323 -0.2028
 8073TIP3    H245635   3.636   6.639  10.300  0.4659 -0.5765 -1.0506
 8074TIP3   OH245636   3.563   2.159   5.422  0.1720 -0.1432  0.1001
 8074TIP3    H145637   3.595   2.126   5.506 -1.0435  0.2291  0.7466
 8074TIP3    H245638   3.517   2.084   5.384  0.7247 -0.3123 -0.2419
 8075TIP3   OH245639   4.640   3.152   1.944  0.2233  0.0229  0.2475
 8075TIP3    H145640   4.653   3.058   1.935  2.4473  0.3262 -0.2625
 8075TIP3    H245641   4.628   3.166   2.037 -1.1752 -0.8536  0.2230
 8076TIP3   OH245642   1.911   4.234  13.219 -0.3809 -0.3413  0.4444
 8076TIP3    H145643   1.985   4.201  13.169 -2.1523  0.1524 -2.7456
 8076TIP3    H245644   1.898   4.323  13.188 -1.9729 -0.2269  1.3183
 8077TIP3   OH245645   6.131   0.268   3.982  0.2875  0.4205 -0.5433
 8077TIP3    H145646   6.205   0.308   3.936  0.9506 -0.9510 -0.7228
 8077TIP3    H245647   6.171   0.207   4.044 -0.6856 -0.0693 -0.3779
 8078TIP3   OH245648   0.974   3.916  13.130  0.5375  0.3490  1.3611
 8078TIP3    H145649   0.949   3.886  13.043  1.5250  0.1642  1.1328
 8078TIP3    H245650   0.909   3.984  13.152  0.5130  0.6658  0.3328
 8079TIP3   OH245651   2.703   6.791  16.840 -0.2301  0.0569  0.7224
 8079TIP3    H145652   2.689   6.854  16.911 -1.5196  0.9695 -0.2692
 8079TIP3    H245653   2.615   6.759  16.820 -0.0858  0.7018 -1.1922
 8080TIP3   OH245654   0.649   1.077  14.640  0.2329  0.2690  0.1190
 8080TIP3    H145655   0.615   1.079  14.551 -0.1906  0.3180  0.2793
 8080TIP3    H245656   0.581   1.119  14.693 -0.2211 -1.0985  0.6864
 8081TIP3   OH245657   4.017   2.505  11.768  0.0051  0.2737  0.1985
 8081TIP3    H145658   3.944   2.556  11.804 -0.7422  0.5785 -1.5905
 8081TIP3    H245659   3.977   2.424  11.737  0.9342 -0.7759  1.6543
 8082TIP3   OH245660   2.590   0.028   1.185  0.7581 -0.0498  0.8252
 8082TIP3    H145661   2.677   0.064   1.166 -0.1197  1.6030 -0.2170
 8082TIP3    H245662   2.580  -0.044   1.122 -0.0120  2.0472 -1.5833
 8083TIP3   OH245663   3.415   2.762  14.802 -0.2321 -0.2395 -0.8479
 8083TIP3    H145664   3.420   2.800  14.714 -0.6457 -0.6950 -1.0711
 8083TIP3    H245665   3.505   2.768  14.835  0.1212 -0.8637 -1.6461
 8084TIP3   OH245666   5.132   1.242  14.075 -0.2381  0.2499  0.5999
 8084TIP3    H145667   5.208   1.189  14.100 -0.7054  0.2073  1.9955
 8084TIP3    H245668   5.066   1.222  14.140 -1.7650 -0.3183 -1.0423
 8085TIP3   OH245669   4.669   6.432  11.998  0.2764 -0.2710 -0.7609
 8085TIP3    H145670   4.725   6.380  11.940 -0.1260 -2.3389  0.5864
 8085TIP3    H245671   4.583   6.390  11.991  0.2527 -0.6827  1.3752
 8086TIP3   OH245672   3.755   6.765  15.001  0.3330  0.1601 -0.7149
 8086TIP3    H145673   3.712   6.851  14.999  1.3174  0.6882  0.1635
 8086TIP3    H245674   3.756   6.737  14.910 -0.9338  0.5977 -0.8890
 8087TIP3   OH245675   3.841   5.499   3.428 -0.1273  0.0898  0.1586
 8087TIP3    H145676   3.748   5.487   3.407 -0.4270  1.3021  0.6893
 8087TIP3    H245677   3.885   5.425   3.386 -1.3188 -0.4471 -0.1853
 8088TIP3   OH245678   2.428   1.446   5.426 -0.4317  0.2701 -0.5028
 8088TIP3    H145679   2.357   1.508   5.442 -0.3035  0.4137 -0.4890
 8088TIP3    H245680   2.390   1.360   5.444 -0.8084  0.2879 -1.1649
 8089TIP3   OH245681   4.125   1.090  11.025 -0.0298  0.2137  0.4046
 8089TIP3    H145682   4.106   1.144  10.948  0.1662  0.8065  0.7622
 8089TIP3    H245683   4.039   1.071  11.063 -0.1378 -0.2211 -0.0477
 8090TIP3   OH245684   2.618   2.811  15.969  0.1525  0.5098  0.0970
 8090TIP3    H145685   2.598   2.886  15.912  0.7230  0.9450  0.4569
 8090TIP3    H245686   2.637   2.740  15.909 -5.3445 -0.9491 -0.4928
 8091TIP3   OH245687   6.759   5.829  16.237  0.2276 -0.2425  0.3948
 8091TIP3    H145688   6.671   5.866  16.226  0.2524 -0.4487 -0.6225
 8091TIP3    H245689   6.749   5.764  16.306 -0.4503 -0.3247  0.2275
 8092TIP3   OH245690   4.555   1.911   1.399  0.0165 -0.1842  0.0803
 8092TIP3    H145691   4.468   1.924   1.362  0.8454  0.7244 -1.7010
 8092TIP3    H245692   4.553   1.824   1.438 -2.1074  0.3838  1.4067
 8093TIP3   OH245693   1.997   6.312  16.189 -0.2222 -0.2202  0.0169
 8093TIP3    H145694   2.086   6.325  16.157 -0.3456  0.6141 -0.0144
 8093TIP3    H245695   2.007   6.303  16.284  0.0589 -1.8654 -0.1501
 8094TIP3   OH245696   3.253   6.318   1.733  0.5709 -0.2175  0.1580
 8094TIP3    H145697   3.181   6.279   1.684  0.1950 -1.3536  1.5701
 8094TIP3    H245698   3.239   6.413   1.725  1.1441 -0.2892 -2.8067
 8095TIP3   OH245699   3.050   1.257   5.517 -0.1794  0.5530 -0.0911
 8095TIP3    H145700   2.967   1.298   5.542  0.1804  0.5896  1.1434
 8095TIP3    H245701   3.083   1.219   5.599  0.8022  0.1472 -0.6565
 8096TIP3   OH245702   0.698   6.001   4.293  0.6653  0.2679  0.0735
 8096TIP3    H145703   0.712   6.095   4.298  1.4830  0.1910 -0.4840
 8096TIP3    H245704   0.733   5.976   4.207  2.4984 -0.8480  1.0748
 8097TIP3   OH245705   6.531   1.789  11.973 -0.4356 -0.3730 -0.5674
 8097TIP3    H145706   6.437   1.800  11.987 -0.3288  0.4673 -0.4752
 8097TIP3    H245707   6.571   1.859  12.024  0.1895 -0.1556 -1.3439
 8098TIP3   OH245708   0.214   2.872   4.574  0.4893 -0.3946  0.2526
 8098TIP3    H145709   0.123   2.891   4.549  0.7970  0.1529 -0.4836
 8098TIP3    H245710   0.216   2.777   4.587 -0.2720 -0.3661  0.6326
 8099TIP3   OH245711   2.702   3.668  13.035 -0.6722  0.1875  0.5677
 8099TIP3    H145712   2.684   3.585  13.078 -1.1521  0.3979  0.7736
 8099TIP3    H245713   2.664   3.734  13.092  0.8369  0.6568  1.0673
 8100TIP3   OH245714   4.688   0.794  16.691  0.0622  0.1306  0.5797
 8100TIP3    H145715   4.761   0.732  16.684 -0.4433 -0.4359  0.2955
 8100TIP3    H245716   4.612   0.745  16.661 -0.6090  0.4320  1.7558
 8101TIP3   OH245717   1.397   0.982   5.531  0.4414  0.2402  0.5465
 8101TIP3    H145718   1.374   1.025   5.613 -2.0108 -1.1208  0.6640
 8101TIP3    H245719   1.385   0.889   5.548  2.8848 -0.3529 -0.5188
 8102TIP3   OH245720   4.626   0.443   4.917 -0.8245  0.3668 -0.2779
 8102TIP3    H145721   4.537   0.477   4.917  0.4731  4.2406  0.8937
 8102TIP3    H245722   4.655   0.450   5.008  0.4596 -1.6119 -0.4699
 8103TIP3   OH245723   6.489   2.444  11.117 -0.5943  0.1725  0.5373
 8103TIP3    H145724   6.577   2.411  11.098 -1.5610 -2.3211  0.0418
 8103TIP3    H245725   6.487   2.530  11.076  1.5199  0.1746  0.3134
 8104TIP3   OH245726   1.715   3.972   2.556 -0.6198 -0.3063  0.4385
 8104TIP3    H145727   1.675   3.924   2.482 -1.1734 -1.0710  1.2143
 8104TIP3    H245728   1.781   3.912   2.590  0.6901  0.6334 -0.3245
 8105TIP3   OH245729   5.910   5.015   3.273 -0.6406  0.1703  0.1437
 8105TIP3    H145730   5.963   5.060   3.339 -0.8409 -0.2404  0.5895
 8105TIP3    H245731   5.895   5.081   3.205 -1.6352  1.0611  1.1778
 8106TIP3   OH245732   5.515   6.290   5.822 -0.2900  0.5068  0.0458
 8106TIP3    H145733   5.485   6.226   5.758  3.4101  0.7508 -2.2290
 8106TIP3    H245734   5.569   6.240   5.883  0.1518  0.9833  0.0545
 8107TIP3   OH245735   6.633   1.411   1.577  0.1232  0.1979  0.5375
 8107TIP3    H145736   6.704   1.472   1.562 -0.0383  0.6547  1.5342
 8107TIP3    H245737   6.586   1.406   1.494  2.0755 -1.1513 -0.5555
 8108TIP3   OH245738   5.679   0.948   0.914 -0.3091  0.9925 -0.6699
 8108TIP3    H145739   5.590   0.921   0.892  0.3519 -0.7153 -1.4824
 8108TIP3    H245740   5.706   1.003   0.840  0.2947 -0.9562 -1.9972
 8109TIP3   OH245741   4.459   3.980  12.300 -0.0909 -0.5202 -0.7429
 8109TIP3    H145742   4.510   3.899  12.297  0.8632  0.0110  0.1881
 8109TIP3    H245743   4.416   3.985  12.215 -0.2186 -2.0286 -0.7888
 8110TIP3   OH245744   2.393   5.088  15.351 -0.0395  0.7109 -0.5359
 8110TIP3    H145745   2.325   5.022  15.366  0.2562  0.0915 -1.7138
 8110TIP3    H245746   2.385   5.148  15.424 -0.0769 -0.8368  0.7995
 8111TIP3   OH245747   1.537   0.786   5.042 -0.3660 -0.5851  0.1353
 8111TIP3    H145748   1.466   0.740   4.997 -1.5627  0.9682  0.3625
 8111TIP3    H245749   1.494   0.833   5.113  0.7532  1.0752 -0.2357
 8112TIP3   OH245750   4.590   5.844  11.703 -0.2309 -0.6117  0.0026
 8112TIP3    H145751   4.669   5.809  11.662 -0.1804 -1.5330  0.8390
 8112TIP3    H245752   4.521   5.783  11.677 -0.1519 -1.3600  1.4613
 8113TIP3   OH245753   6.679   6.415  11.171 -0.0160 -0.0586  0.1128
 8113TIP3    H145754   6.698   6.500  11.132  0.9359 -0.2171  0.1943
 8113TIP3    H245755   6.711   6.351  11.107 -1.3560 -0.3825 -0.2599
 8114TIP3   OH245756   2.059   4.214   5.841 -0.8805 -0.1412  0.3470
 8114TIP3    H145757   2.003   4.136   5.835  0.5913 -1.1971 -0.1473
 8114TIP3    H245758   2.135   4.185   5.891  0.0204  0.7768 -0.4657
 8115TIP3   OH245759   3.151   3.326   4.482  0.2057 -0.9019  0.1981
 8115TIP3    H145760   3.243   3.353   4.488 -0.0020 -0.2769  0.7316
 8115TIP3    H245761   3.129   3.297   4.571 -0.3084 -0.3836  0.2443
 8116TIP3   OH245762   0.583   2.023   4.666  0.2701 -0.1719 -0.1348
 8116TIP3    H145763   0.588   2.067   4.752 -0.4701 -1.7371  0.7473
 8116TIP3    H245764   0.494   1.989   4.662  0.7856 -1.4742 -0.8355
 8117TIP3   OH245765   4.364   5.275   5.381  0.0737  0.1054  0.2388
 8117TIP3    H145766   4.285   5.262   5.434  0.0252  0.3145  0.2177
 8117TIP3    H245767   4.425   5.321   5.438  0.4082 -0.5947  0.4560
 8118TIP3   OH245768   0.551   3.465   2.940 -0.4907 -0.3227  0.1360
 8118TIP3    H145769   0.554   3.559   2.956  1.5113 -0.0294 -1.5113
 8118TIP3    H245770   0.627   3.430   2.987 -0.2809 -0.8455 -0.5641
 8119TIP3   OH245771   1.255   0.801  13.032  0.0636 -0.1157  0.7373
 8119TIP3    H145772   1.170   0.772  13.064 -0.2752 -2.0373 -1.6454
 8119TIP3    H245773   1.313   0.725  13.045  0.8078  0.3351  0.1450
 8120TIP3   OH245774   0.465   1.488  10.894  0.0799  0.1812 -0.1540
 8120TIP3    H145775   0.397   1.517  10.955 -0.1440  0.0556 -0.3409
 8120TIP3    H245776   0.421   1.486  10.809  1.1358  3.2100 -0.8808
 8121TIP3   OH245777   3.533   4.284   1.346  0.4644 -0.5318 -0.0575
 8121TIP3    H145778   3.611   4.338   1.336 -0.2036  0.7090  0.9974
 8121TIP3    H245779   3.534   4.257   1.438  0.3755 -1.6742 -0.3818
 8122TIP3   OH245780   2.420   2.222   0.883 -0.9961  0.1884 -0.3067
 8122TIP3    H145781   2.440   2.220   0.977  0.5262  0.2044 -0.5970
 8122TIP3    H245782   2.503   2.247   0.842 -1.3999 -0.6789 -1.7206
 8123TIP3   OH245783   2.136   2.258  11.069 -0.6070  0.3257  0.0211
 8123TIP3    H145784   2.216   2.228  11.025 -0.1486  0.2081  0.9169
 8123TIP3    H245785   2.105   2.182  11.118  0.2005  1.0901  1.7913
 8124TIP3   OH245786   5.861   3.379  14.115 -0.3576  0.2307  0.4950
 8124TIP3    H145787   5.774   3.420  14.115 -0.1785  0.6241 -0.2932
 8124TIP3    H245788   5.895   3.396  14.028 -0.3239 -1.7168  0.0880
 8125TIP3   OH245789   1.032   4.715  13.553  0.2997  0.6594 -0.4272
 8125TIP3    H145790   1.057   4.800  13.517  1.1361 -0.0785 -1.6413
 8125TIP3    H245791   0.936   4.714  13.548  0.2847  1.4662 -0.5071
 8126TIP3   OH245792   3.946   4.680   3.776 -0.2892  1.0400  0.5849
 8126TIP3    H145793   3.976   4.771   3.779 -0.6576  1.1660  0.4481
 8126TIP3    H245794   3.868   4.679   3.831  0.2054  0.6158  1.2989
 8127TIP3   OH245795   2.560   3.347  15.564 -0.1480  0.3572 -0.4052
 8127TIP3    H145796   2.491   3.363  15.629  0.2107 -1.4829  0.4777
 8127TIP3    H245797   2.585   3.435  15.534  0.1122  1.3233  2.3887
 8128TIP3   OH245798   3.678   6.562   3.084  0.1789  0.2924 -0.1537
 8128TIP3    H145799   3.741   6.609   3.029 -0.0870 -0.1261 -0.8259
 8128TIP3    H245800   3.600   6.617   3.081 -0.0567 -0.0639 -0.7536
 8129TIP3   OH245801   6.262   4.504  14.100  0.8588 -0.2930  0.0070
 8129TIP3    H145802   6.222   4.576  14.051 -0.0708 -0.3156  0.7085
 8129TIP3    H245803   6.338   4.542  14.142  0.4732  0.2434  0.2291
 8130TIP3   OH245804   2.676   1.237   1.750 -0.9849 -0.4458  0.1541
 8130TIP3    H145805   2.694   1.275   1.836 -2.1523  1.1411 -0.2632
 8130TIP3    H245806   2.653   1.146   1.769  1.1084 -0.8202  1.2567
 8131TIP3   OH245807   4.232   1.780  16.703  0.3701  0.2084 -0.4086
 8131TIP3    H145808   4.159   1.718  16.706  0.2686  0.3227 -0.4783
 8131TIP3    H245809   4.309   1.726  16.689  0.3335  0.0622 -0.0479
 8132TIP3   OH245810   5.633   4.791  10.780 -0.0924  0.0426  0.8326
 8132TIP3    H145811   5.539   4.785  10.792 -0.0585 -0.5084  0.8507
 8132TIP3    H245812   5.654   4.728  10.711 -0.2257  2.9237 -2.0884
 8133TIP3   OH245813   4.584   0.599  15.199  0.0802 -0.1351 -0.0190
 8133TIP3    H145814   4.545   0.685  15.183 -0.1418 -0.2675 -0.1999
 8133TIP3    H245815   4.517   0.551  15.247  0.6161  0.1516  1.0767
 8134TIP3   OH245816   6.271   3.458   6.625  0.0306 -0.1550  0.2606
 8134TIP3    H145817   6.214   3.508   6.683 -0.1185  0.5833 -0.4994
 8134TIP3    H245818   6.343   3.517   6.604 -1.0358  0.4540 -2.0577
 8135TIP3   OH245819   2.754   0.769   2.286  0.0368 -0.1462 -0.2755
 8135TIP3    H145820   2.773   0.862   2.272 -0.3421 -0.2878 -2.0643
 8135TIP3    H245821   2.821   0.724   2.234  0.5570 -0.9063  1.0211
 8136TIP3   OH245822   6.618   3.074  12.174  0.7442 -0.0109  0.3077
 8136TIP3    H145823   6.557   3.041  12.109  0.6256  0.3466  0.2321
 8136TIP3    H245824   6.565   3.128  12.232  1.1323  1.1117 -0.3309
 8137TIP3   OH245825   0.488   2.194   0.503  0.0236 -0.1055 -0.3199
 8137TIP3    H145826   0.452   2.265   0.449 -1.4775  0.1704  0.9753
 8137TIP3    H245827   0.473   2.223   0.593  0.4742 -1.5404  0.2395
 8138TIP3   OH245828   0.075   0.527  13.591  0.4222 -0.4535  0.0005
 8138TIP3    H145829  -0.019   0.537  13.606  0.5792  0.3800  0.5035
 8138TIP3    H245830   0.108   0.617  13.586  1.3612 -0.7317  0.9022
 8139TIP3   OH245831   4.502   2.426   0.405 -0.2055 -0.2052 -0.3386
 8139TIP3    H145832   4.568   2.494   0.395 -0.1857  0.0102  1.1449
 8139TIP3    H245833   4.467   2.438   0.493 -0.7941 -1.5795 -0.3536
 8140TIP3   OH245834   1.154   2.638   0.697 -0.3116 -0.3086 -0.6436
 8140TIP3    H145835   1.090   2.578   0.736  1.8763 -1.7868  0.8976
 8140TIP3    H245836   1.140   2.721   0.743 -0.3766 -0.9352  0.5104
 8141TIP3   OH245837   1.814   4.025   4.336 -0.2994  0.1388  0.2574
 8141TIP3    H145838   1.753   3.964   4.377 -1.0131  2.0618  2.2674
 8141TIP3    H245839   1.889   4.028   4.396 -0.7243  1.9578  0.7334
 8142TIP3   OH245840   0.516   2.753  11.332 -0.4838 -0.0008  0.0912
 8142TIP3    H145841   0.475   2.753  11.419 -0.2396 -0.5023  0.2082
 8142TIP3    H245842   0.478   2.678  11.287  0.8824 -0.9619  0.4833
 8143TIP3   OH245843   3.105   3.576   2.389  0.0147 -0.4849 -0.6737
 8143TIP3    H145844   3.091   3.498   2.443  0.7781  0.2501  0.6389
 8143TIP3    H245845   3.101   3.649   2.451 -1.5429  0.6281 -2.0044
 8144TIP3   OH245846   2.349   1.864   2.179 -0.3427  0.2152 -0.3743
 8144TIP3    H145847   2.430   1.878   2.227 -0.5635 -0.8064  0.3109
 8144TIP3    H245848   2.290   1.932   2.211 -0.1180  0.2640 -0.0642
 8145TIP3   OH245849   5.421   5.995   1.633 -0.0363  0.1319 -0.2974
 8145TIP3    H145850   5.379   5.931   1.574 -0.5948  0.3757 -0.1727
 8145TIP3    H245851   5.364   6.072   1.628  0.0438  0.2379  0.3769
 8146TIP3   OH245852   1.612   3.826  12.457 -0.2531  0.2262 -0.0639
 8146TIP3    H145853   1.640   3.871  12.377  0.6157 -1.0975 -0.5251
 8146TIP3    H245854   1.572   3.745  12.426 -1.1669  0.3334  0.7942
 8147TIP3   OH245855   3.908   0.246   5.727  0.1128  0.0694 -0.4076
 8147TIP3    H145856   3.853   0.324   5.734 -2.3641 -1.6458  0.1394
 8147TIP3    H245857   3.863   0.189   5.665  1.2844 -1.4240  0.0365
 8148TIP3   OH245858   3.787   2.939  16.755  0.2542  0.0506 -0.2366
 8148TIP3    H145859   3.769   3.021  16.710  2.1788  1.3290  1.2112
 8148TIP3    H245860   3.709   2.924  16.809 -0.9013 -0.0992 -1.8471
 8149TIP3   OH245861   1.536   2.854   4.979  0.5636 -0.3775  0.0457
 8149TIP3    H145862   1.585   2.809   5.049  0.4544 -0.6741 -0.0666
 8149TIP3    H245863   1.564   2.945   4.985  0.6383 -0.4218  0.4086
 8150TIP3   OH245864   2.174   1.367   0.208  1.0037 -0.4535  0.2687
 8150TIP3    H145865   2.247   1.379   0.268  0.4224 -1.7399  1.2854
 8150TIP3    H245866   2.199   1.294   0.153 -0.0398 -1.8307  1.5440
 8151TIP3   OH245867   6.412   5.312   5.395  0.1808  0.4098  0.1960
 8151TIP3    H145868   6.371   5.395   5.370  2.0806  1.0720 -0.9304
 8151TIP3    H245869   6.347   5.246   5.371 -1.1137  1.5005  0.5235
 8152TIP3   OH245870   6.347   3.110  15.869 -0.5146 -0.0883  0.1895
 8152TIP3    H145871   6.405   3.049  15.823 -0.2091 -1.3773  2.1726
 8152TIP3    H245872   6.352   3.191  15.818  2.2431 -0.4768 -0.3169
 8153TIP3   OH245873   6.547   4.976  13.459 -0.0012  0.1895  0.1795
 8153TIP3    H145874   6.593   4.993  13.377  0.6025  0.0050  0.4777
 8153TIP3    H245875   6.606   4.919  13.508 -0.3447  0.3292  0.7574
 8154TIP3   OH245876   0.670   3.139   3.059 -0.2009  0.3343 -0.0140
 8154TIP3    H145877   0.665   3.198   3.134 -1.5420 -1.3822  1.3093
 8154TIP3    H245878   0.681   3.052   3.097  0.1467 -0.4769 -1.8623
 8155TIP3   OH245879   3.467   2.100   0.950  0.4780  0.2142 -0.2683
 8155TIP3    H145880   3.373   2.103   0.967  0.8512  0.1984  2.1365
 8155TIP3    H245881   3.496   2.191   0.958  1.1230 -0.1313  2.5763
 8156TIP3   OH245882   2.401   4.288   3.572 -0.0610  0.5043 -0.3944
 8156TIP3    H145883   2.351   4.248   3.500 -0.9606  1.5351 -0.3667
 8156TIP3    H245884   2.334   4.326   3.629  0.6573 -0.0072  0.8243
 8157TIP3   OH245885   5.093   4.575   2.284  0.0795  0.5664  0.3540
 8157TIP3    H145886   5.127   4.657   2.320  0.3918  0.3881  0.4700
 8157TIP3    H245887   5.132   4.570   2.196  0.9159  0.0225  0.7445
 8158TIP3   OH245888   0.720   0.444   6.642 -0.2165 -0.1711 -0.4345
 8158TIP3    H145889   0.745   0.354   6.664 -1.6761 -1.3320 -3.0921
 8158TIP3    H245890   0.757   0.458   6.555  0.3089  2.0101  0.0798
 8159TIP3   OH245891   1.361   5.533   1.384  0.1708 -0.2875 -0.1008
 8159TIP3    H145892   1.328   5.524   1.474 -0.8480  1.7271 -0.2088
 8159TIP3    H245893   1.308   5.472   1.333 -1.9555  1.2381  0.1179
 8160TIP3   OH245894   5.180   3.307   2.026  0.2856 -0.2396  0.4925
 8160TIP3    H145895   5.158   3.388   2.073 -0.8565  0.7290 -1.5625
 8160TIP3    H245896   5.153   3.324   1.936  1.8280 -2.2265 -0.4176
 8161TIP3   OH245897   3.817   6.485  14.977  0.6034  0.9448 -0.1865
 8161TIP3    H145898   3.801   6.553  14.912  0.2948  1.8485  0.8071
 8161TIP3    H245899   3.734   6.476  15.023  1.2484  1.4310  1.1061
 8162TIP3   OH245900   3.930   6.205  10.041 -0.1570 -0.0185 -0.0490
 8162TIP3    H145901   3.957   6.212   9.949 -1.2075  0.3230 -0.3467
 8162TIP3    H245902   3.934   6.295  10.074  1.1727 -0.2715  0.5394
 8163TIP3   OH245903   4.152   6.403  14.620  0.2324  0.4756  0.1387
 8163TIP3    H145904   4.075   6.430  14.570  0.4826 -0.2383 -0.6506
 8163TIP3    H245905   4.168   6.313  14.593  2.3591  1.1408 -1.0160
 8164TIP3   OH245906   5.134   5.860   2.655 -0.3565 -0.4217  0.1333
 8164TIP3    H145907   5.149   5.766   2.666  0.2328 -0.2431  0.9574
 8164TIP3    H245908   5.194   5.885   2.585 -1.6114 -0.9231 -1.1726
 8165TIP3   OH245909   0.705   4.225  11.804  0.0694 -0.5559 -0.0637
 8165TIP3    H145910   0.655   4.283  11.861  1.0639 -1.2338  1.5871
 8165TIP3    H245911   0.682   4.252  11.715  0.1800  2.0547  0.6352
 8166TIP3   OH245912   6.593   3.708   3.666 -0.3982  0.2325 -0.3703
 8166TIP3    H145913   6.531   3.713   3.739 -0.7032  0.1348 -0.6160
 8166TIP3    H245914   6.678   3.692   3.707 -0.4656  0.8147  0.0002
 8167TIP3   OH245915   0.246   1.499   1.503  0.2788 -0.1821 -0.7640
 8167TIP3    H145916   0.318   1.475   1.445  0.0103 -1.3957 -0.6137
 8167TIP3    H245917   0.272   1.466   1.589 -0.0798  0.1347 -0.5302
 8168TIP3   OH245918   3.042   6.210   2.511 -0.0654 -0.6073  0.0018
 8168TIP3    H145919   2.976   6.278   2.517  0.6387 -0.0037  1.3937
 8168TIP3    H245920   3.116   6.251   2.466 -0.1848 -0.9165 -0.4857
 8169TIP3   OH245921   2.327   1.081  16.947  0.1323  0.6814 -0.1318
 8169TIP3    H145922   2.389   1.145  16.982 -1.5700  2.1462  0.4076
 8169TIP3    H245923   2.330   1.094  16.852 -0.5914  2.0227 -0.0012
 8170TIP3   OH245924   4.354   3.601   1.372 -1.0228 -0.0360  0.5371
 8170TIP3    H145925   4.295   3.585   1.299  0.7676 -2.9491 -0.4432
 8170TIP3    H245926   4.337   3.530   1.433  1.1885 -0.7757  0.3645
 8171TIP3   OH245927   2.220   1.345   4.866 -0.2998 -0.5282  0.1801
 8171TIP3    H145928   2.209   1.264   4.916  1.7408 -0.9496  0.0478
 8171TIP3    H245929   2.279   1.320   4.794  1.2752  1.3047  0.7695
 8172TIP3   OH245930   0.896   4.698  14.484 -0.2975  1.1523  0.1242
 8172TIP3    H145931   0.900   4.603  14.475  1.4029  1.3037 -1.1176
 8172TIP3    H245932   0.849   4.712  14.566  0.0714 -0.7578  0.7161
 8173TIP3   OH245933   5.513   3.842  14.780  0.0918  0.0677  0.3690
 8173TIP3    H145934   5.602   3.813  14.757 -0.2591 -1.0438  0.3693
 8173TIP3    H245935   5.460   3.817  14.705 -0.2636  0.5771  0.4461
 8174TIP3   OH245936   2.725   2.020   3.867 -0.3207 -0.4348 -0.2884
 8174TIP3    H145937   2.776   1.939   3.872 -0.2078 -0.5041 -1.8787
 8174TIP3    H245938   2.644   2.001   3.914 -0.6556 -1.7684 -1.3484
 8175TIP3   OH245939   3.536   0.638  16.048  0.0129  0.0566  0.4630
 8175TIP3    H145940   3.515   0.717  15.999  2.6239  0.1885 -0.5841
 8175TIP3    H245941   3.556   0.669  16.136 -1.6755  0.1863  0.8279
 8176TIP3   OH245942   6.793   4.289   3.616  0.0093 -0.2010 -0.1291
 8176TIP3    H145943   6.887   4.270   3.621 -0.0925 -0.4002  3.3297
 8176TIP3    H245944   6.753   4.204   3.599  0.4049  0.0179 -2.5303
 8177TIP3   OH245945   2.811   2.262   5.211  0.6463 -0.0163  0.0841
 8177TIP3    H145946   2.717   2.241   5.206  0.1288  1.9510  0.5814
 8177TIP3    H245947   2.813   2.358   5.213  2.6055 -0.0467  1.4393
 8178TIP3   OH245948   3.698   6.536  13.485  0.2678  0.5871  0.5007
 8178TIP3    H145949   3.743   6.509  13.405 -2.8670  0.0575 -1.2515
 8178TIP3    H245950   3.681   6.454  13.532 -0.8024  0.4963 -0.0084
 8179TIP3   OH245951   4.642   4.127   2.014  0.6906 -0.3472  0.1879
 8179TIP3    H145952   4.659   4.118   2.107  0.5885 -1.7106  0.0932
 8179TIP3    H245953   4.555   4.088   2.001 -0.3470  1.9268 -0.1308
 8180TIP3   OH245954   0.384   3.938   4.689 -0.2694 -0.6133 -0.6042
 8180TIP3    H145955   0.321   3.965   4.623 -2.8457 -3.2013  0.5664
 8180TIP3    H245956   0.460   3.908   4.638 -1.0529 -0.0094 -2.2165
 8181TIP3   OH245957   1.783   2.309  12.176 -0.3136  0.1310  0.0338
 8181TIP3    H145958   1.866   2.337  12.137  0.5093 -0.3107  1.3993
 8181TIP3    H245959   1.747   2.388  12.215 -2.1239  1.0440 -3.1476
 8182TIP3   OH245960   5.990   6.756  15.852 -0.0257 -0.1750 -0.1654
 8182TIP3    H145961   5.908   6.750  15.802 -1.3382 -1.3287  1.9975
 8182TIP3    H245962   6.042   6.681  15.823 -0.2827 -0.1835 -0.6137
 8183TIP3   OH245963   4.051   0.203  11.094  0.1758 -0.3558  0.5861
 8183TIP3    H145964   4.128   0.153  11.120  0.7860 -0.2713 -1.0055
 8183TIP3    H245965   3.977   0.146  11.117  0.8264 -1.7154 -0.5619
 8184TIP3   OH245966   4.562   6.484   0.578  0.5232  0.7322 -0.7114
 8184TIP3    H145967   4.562   6.523   0.490 -0.0542 -2.0989 -2.0876
 8184TIP3    H245968   4.613   6.403   0.569  2.0733  1.2752  2.0942
 8185TIP3   OH245969   1.343   4.551  16.537 -0.6347 -0.3345 -0.2304
 8185TIP3    H145970   1.436   4.570  16.543 -0.7176 -0.0950  0.4006
 8185TIP3    H245971   1.338   4.461  16.503 -0.1760 -0.4083 -0.1027
 8186TIP3   OH245972   1.859   1.714   0.334  0.5417  0.6144 -0.7488
 8186TIP3    H145973   1.811   1.784   0.290  1.1124  0.0311 -2.4044
 8186TIP3    H245974   1.921   1.682   0.267  2.4880  0.6361  0.9343
 8187TIP3   OH245975   5.458   4.648  11.076 -0.0609  0.3417 -0.2707
 8187TIP3    H145976   5.413   4.691  11.003 -0.7377 -1.7556 -1.1563
 8187TIP3    H245977   5.392   4.645  11.146 -0.6643 -0.8656 -0.8566
 8188TIP3   OH245978   6.339   6.215  13.529 -0.5704  0.3440 -0.6741
 8188TIP3    H145979   6.430   6.213  13.501  0.0590  0.8116  1.2067
 8188TIP3    H245980   6.300   6.136  13.490  1.0497 -0.7413 -0.2030
 8189TIP3   OH245981   1.423   0.178   2.086 -0.4842 -0.3771 -0.0726
 8189TIP3    H145982   1.446   0.145   2.173  0.7824  0.9541  0.1346
 8189TIP3    H245983   1.504   0.173   2.036 -0.8624  0.1388 -0.7643
 8190TIP3   OH245984   2.441   1.751   4.030 -0.7280 -0.1373  0.4417
 8190TIP3    H145985   2.428   1.661   3.998 -1.4926  0.3813 -0.7649
 8190TIP3    H245986   2.357   1.774   4.070 -0.4525 -0.0429  0.9650
 8191TIP3   OH245987   2.266   1.293  11.357 -0.0622 -0.7448 -0.1702
 8191TIP3    H145988   2.172   1.311  11.346  0.0677  0.9183  1.0836
 8191TIP3    H245989   2.269   1.222  11.421 -0.4531 -0.5197  0.1020
 8192TIP3   OH245990   3.466   4.314   0.117 -0.7052 -0.0173  0.1626
 8192TIP3    H145991   3.396   4.300   0.054 -0.9955 -0.0008  0.4773
 8192TIP3    H245992   3.430   4.283   0.200 -0.4470  0.2625  0.3836
 8193TIP3   OH245993   5.955   4.508  12.872  0.2621  0.1018 -0.2641
 8193TIP3    H145994   5.909   4.429  12.846 -1.3224 -0.0154  2.4804
 8193TIP3    H245995   5.928   4.574  12.809 -0.3580 -0.9634 -1.1314
 8194TIP3   OH245996   2.991   0.995   1.996  0.0998  0.3634  0.0227
 8194TIP3    H145997   3.054   1.036   2.055 -0.7636  1.7116  0.0473
 8194TIP3    H245998   3.027   1.010   1.908  0.6750 -0.4135  0.1132
 8195TIP3   OH245999   0.975   5.733  13.558  0.0769 -0.2392 -0.2752
 8195TIP3    H146000   1.065   5.748  13.588  0.3091  0.3009 -1.2104
 8195TIP3    H246001   0.928   5.705  13.637  0.9116  0.0997  0.3566
 8196TIP3   OH246002   4.687   1.768   0.927 -0.3089 -0.1877 -0.0867
 8196TIP3    H146003   4.701   1.689   0.980 -1.2830  0.2800  0.9078
 8196TIP3    H246004   4.638   1.737   0.851 -0.2550 -0.6130  0.0494
 8197TIP3   OH246005   3.928   3.704  14.400  0.7541  0.3419  0.1158
 8197TIP3    H146006   3.934   3.765  14.326  0.7877 -1.5485 -1.5338
 8197TIP3    H246007   3.850   3.731  14.447  0.5080  1.3636 -0.8238
 8198TIP3   OH246008   2.492   5.266  12.247  0.7510  0.6264 -0.4641
 8198TIP3    H146009   2.439   5.344  12.232 -3.7596 -2.3031 -1.6119
 8198TIP3    H246010   2.546   5.258  12.168  0.6561  2.0161 -0.7021
 8199TIP3   OH246011   1.209   2.053  10.897 -0.5362 -0.3047 -0.5382
 8199TIP3    H146012   1.154   1.984  10.862  1.1227 -1.9113 -0.1010
 8199TIP3    H246013   1.268   2.009  10.958 -1.6279  1.9517  2.4532
 8200TIP3   OH246014   3.516   1.633  11.306 -0.3314 -0.2877 -0.3335
 8200TIP3    H146015   3.596   1.631  11.253 -0.5022 -1.2189 -0.5808
 8200TIP3    H246016   3.467   1.708  11.272  0.4812  0.3671 -0.1004
 8201TIP3   OH246017   3.983   4.114  12.026  0.3262 -0.4807 -0.3734
 8201TIP3    H146018   3.971   4.160  11.943  1.3024 -1.1505 -0.9117
 8201TIP3    H246019   3.965   4.180  12.093 -1.6319 -0.2326 -1.0778
 8202TIP3   OH246020   0.329   4.219  16.746  0.2687 -0.0578  0.0559
 8202TIP3    H146021   0.412   4.264  16.736  0.4922 -0.3490  0.5814
 8202TIP3    H246022   0.277   4.275  16.803  0.9423 -0.9653  1.6113
 8203TIP3   OH246023   2.918   1.697   6.518 -0.3692  0.6745  0.0817
 8203TIP3    H146024   2.967   1.769   6.558 -3.7792  3.2939 -0.0497
 8203TIP3    H246025   2.834   1.696   6.564 -0.8570 -2.6363 -0.6236
 8204TIP3   OH246026   0.882   6.793  14.081  0.0865  0.0706 -0.2970
 8204TIP3    H146027   0.854   6.731  14.148  2.8449  0.2287  1.1253
 8204TIP3    H246028   0.860   6.750  13.998  0.3029 -2.0155  0.6664
 8205TIP3   OH246029   2.025   2.654  14.008  0.3456  0.3107 -0.5404
 8205TIP3    H146030   2.112   2.695  14.001 -0.4053  2.2748  0.8832
 8205TIP3    H246031   2.037   2.567  13.968  2.4460  1.2586 -2.2061
 8206TIP3   OH246032   0.166   3.050   2.856 -0.4301  0.5579 -0.4137
 8206TIP3    H146033   0.202   2.966   2.829 -0.3553  0.8416 -1.2461
 8206TIP3    H246034   0.242   3.099   2.889 -0.4675  0.3245  0.0318
 8207TIP3   OH246035   1.010   4.759  15.081  0.6672  0.3010  0.5405
 8207TIP3    H146036   0.944   4.717  15.026  0.3701  0.6519  0.6223
 8207TIP3    H246037   1.063   4.687  15.115  0.8849  0.0800 -0.2467
 8208TIP3   OH246038   4.793   3.777  14.083  0.1029 -0.0809 -0.0141
 8208TIP3    H146039   4.875   3.824  14.065  0.7657 -0.1550  2.3949
 8208TIP3    H246040   4.739   3.793  14.006  2.4006 -0.0966 -1.7392
 8209TIP3   OH246041   3.233   0.708   1.705  0.1056  0.1015  0.3929
 8209TIP3    H146042   3.148   0.747   1.686  0.3384 -0.1792 -1.4376
 8209TIP3    H246043   3.212   0.621   1.741 -0.4408 -0.6948 -1.6914
 8210TIP3   OH246044   0.952   3.039  16.211  0.2723 -0.5183  0.2683
 8210TIP3    H146045   1.026   2.986  16.180 -0.2122 -0.4117 -1.1360
 8210TIP3    H246046   0.983   3.076  16.293  1.3471 -1.4169  0.3026
 8211TIP3   OH246047   1.181   2.029   4.479 -0.3008 -0.0756 -0.1801
 8211TIP3    H146048   1.110   2.070   4.429 -0.4275 -0.8585 -0.6697
 8211TIP3    H246049   1.221   1.968   4.417 -1.5197 -2.3275  1.1219
 8212TIP3   OH246050   3.986   2.197   1.507 -0.1216 -1.3036 -0.6244
 8212TIP3    H146051   4.037   2.242   1.441  1.1025 -1.3278  0.2755
 8212TIP3    H246052   4.017   2.106   1.504 -0.7064 -1.5096 -0.6340
 8213TIP3   OH246053   6.136   5.241   2.035 -0.1489  0.3085 -0.2059
 8213TIP3    H146054   6.204   5.284   2.087  0.7064 -0.2388 -0.8486
 8213TIP3    H246055   6.118   5.303   1.964 -2.0663  1.5311  1.2486
 8214TIP3   OH246056   0.770   5.059  12.464 -0.0082 -0.2483  0.2932
 8214TIP3    H146057   0.801   5.116  12.534  0.6057 -2.0411  1.5471
 8214TIP3    H246058   0.680   5.089  12.446 -0.9782 -1.0152  3.3228
 8215TIP3   OH246059   0.636   3.923   3.741  0.0128  0.4731 -0.5175
 8215TIP3    H146060   0.675   3.891   3.659  0.4109  0.4771 -0.3289
 8215TIP3    H246061   0.542   3.913   3.727  0.1094 -0.5554 -0.5665
 8216TIP3   OH246062   6.325   6.349   0.167 -0.2891 -0.0698 -0.0193
 8216TIP3    H146063   6.400   6.408   0.168 -0.4334  0.1313 -0.6475
 8216TIP3    H246064   6.352   6.275   0.221  0.0603  0.3630  0.4123
 8217TIP3   OH246065   6.609   3.866   4.250 -0.8671  0.8317 -0.2022
 8217TIP3    H146066   6.647   3.831   4.170  0.0733  1.7804 -0.1939
 8217TIP3    H246067   6.539   3.925   4.221 -2.0982 -0.5839 -0.2296
 8218TIP3   OH246068   4.213   2.983  10.795  0.3838 -0.4292  0.4969
 8218TIP3    H146069   4.185   2.894  10.772  1.2953 -0.8861  1.0683
 8218TIP3    H246070   4.290   2.970  10.851  0.7081  0.7260  0.3512
 8219TIP3   OH246071   2.726   1.119  14.447 -0.4119  0.0646 -0.7146
 8219TIP3    H146072   2.747   1.045  14.390 -1.4473 -0.8488  0.0125
 8219TIP3    H246073   2.704   1.191  14.388 -1.7558 -0.9412 -1.5079
 8220TIP3   OH246074   3.154   3.242  13.990  0.2101 -0.4490  0.0992
 8220TIP3    H146075   3.102   3.319  14.014 -0.2088 -0.2863 -1.2782
 8220TIP3    H246076   3.113   3.170  14.036 -0.8913 -0.2264 -0.5109
 8221TIP3   OH246077   3.072   2.255   4.043 -0.4656  0.2415 -0.4622
 8221TIP3    H146078   3.018   2.327   4.076 -0.7325 -1.2744  2.7989
 8221TIP3    H246079   3.047   2.180   4.097  1.7740 -1.6088 -1.8388
 8222TIP3   OH246080   3.987   5.198  13.831  0.4331 -0.3783  0.0427
 8222TIP3    H146081   3.917   5.251  13.870 -0.3672 -1.7442  0.4941
 8222TIP3    H246082   4.016   5.141  13.901  0.7490 -1.0890 -0.6524
 8223TIP3   OH246083   6.571   3.690   2.961 -0.5721 -0.2032  0.2842
 8223TIP3    H146084   6.509   3.715   3.030 -1.3186  0.8418 -0.7224
 8223TIP3    H246085   6.633   3.632   3.005 -0.2638  1.4182  2.1654
 8224TIP3   OH246086   1.448   1.236   5.349 -0.2519 -0.0777  0.1889
 8224TIP3    H146087   1.410   1.163   5.399  0.7278  0.4002  1.6740
 8224TIP3    H246088   1.536   1.207   5.327 -0.0730  0.4188  0.2412
 8225TIP3   OH246089   1.189   0.748  13.410  0.2965  0.5007  0.8147
 8225TIP3    H146090   1.218   0.831  13.374  0.2800  0.5804  0.9838
 8225TIP3    H246091   1.116   0.771  13.467 -1.9381  0.0486 -1.6626
 8226TIP3   OH246092   4.565   4.221  12.970  0.2707 -0.2957  0.0200
 8226TIP3    H146093   4.629   4.214  13.040 -0.1701  1.1348  0.6063
 8226TIP3    H246094   4.491   4.267  13.010  0.2781  1.1517 -1.5340
 8227TIP3   OH246095   5.509   4.022   1.684 -0.1851 -0.5054  0.1470
 8227TIP3    H146096   5.464   4.104   1.665  1.3064  0.1774 -0.5756
 8227TIP3    H246097   5.530   3.985   1.598 -0.4924 -1.4643  0.4646
 8228TIP3   OH246098   3.819   1.972   3.244 -0.0864 -0.4450  0.4061
 8228TIP3    H146099   3.807   1.877   3.251 -0.8075 -0.3257  0.9225
 8228TIP3    H246100   3.858   1.998   3.327  1.2232 -0.4371 -0.1867
 8229TIP3   OH246101   2.295   0.901   5.548 -0.2495 -0.2950  0.4033
 8229TIP3    H146102   2.385   0.919   5.520 -0.2195 -0.5923  0.3053
 8229TIP3    H246103   2.305   0.845   5.625 -0.2998  1.4479  1.7555
 8230TIP3   OH246104   6.280   4.073  16.478  1.0411  0.1230  0.1000
 8230TIP3    H146105   6.334   4.010  16.431 -1.5432  0.5891 -3.9674
 8230TIP3    H246106   6.321   4.157  16.462  0.7881  0.1562 -0.3978
 8231TIP3   OH246107   6.257   5.291   2.952 -0.6351  0.0208 -0.0828
 8231TIP3    H146108   6.201   5.238   2.897 -0.5533  0.8802 -1.0207
 8231TIP3    H246109   6.344   5.285   2.912 -0.3640 -0.1207  0.5082
 8232TIP3   OH246110   3.047   1.345  13.688  0.3003 -0.5348 -0.0649
 8232TIP3    H146111   3.136   1.379  13.700  0.4707 -1.3779  1.3563
 8232TIP3    H246112   3.059   1.252  13.670 -0.2898 -0.9543  1.5049
 8233TIP3   OH246113   3.970   5.911   2.792 -0.2200  0.0852 -0.2568
 8233TIP3    H146114   4.049   5.963   2.805 -1.0521  1.2213  0.5418
 8233TIP3    H246115   3.918   5.927   2.872 -1.4421 -0.2532 -0.9547
 8234TIP3   OH246116   0.938   4.745   5.781  0.5325  0.8173 -0.7166
 8234TIP3    H146117   0.967   4.824   5.735  0.5583 -0.8119 -3.8007
 8234TIP3    H246118   1.015   4.688   5.780 -0.3085 -0.3540 -1.3220
 8235TIP3   OH246119   4.929   4.858   0.225 -0.4327 -0.2559 -0.0153
 8235TIP3    H146120   4.943   4.766   0.204  0.2685 -0.9175  2.8644
 8235TIP3    H246121   5.011   4.901   0.200 -0.7782 -0.3711 -1.4076
 8236TIP3   OH246122   2.427   1.740  15.856 -0.5191 -0.0431 -0.0181
 8236TIP3    H146123   2.521   1.731  15.871 -0.5157  0.0135 -0.0032
 8236TIP3    H246124   2.404   1.823  15.899 -1.3653 -1.9803  3.6563
 8237TIP3   OH246125   1.138   0.454   3.916 -0.0545 -0.2269  0.3057
 8237TIP3    H146126   1.092   0.519   3.863  0.1232 -1.4368 -1.4190
 8237TIP3    H246127   1.226   0.450   3.879  0.9376  0.7217  2.3836
 8238TIP3   OH246128   5.655   5.849  16.430  0.0697  0.0135 -0.7240
 8238TIP3    H146129   5.603   5.797  16.492 -1.0972 -0.3308 -1.9551
 8238TIP3    H246130   5.652   5.938  16.466 -1.0237 -0.0837 -0.5361
 8239TIP3   OH246131   3.691   2.809  13.759  0.6757  0.4164  0.0974
 8239TIP3    H146132   3.727   2.893  13.728  1.2469 -0.0628 -0.5682
 8239TIP3    H246133   3.599   2.828  13.777  0.8307  1.2247  0.1047
 8240TIP3   OH246134   6.017   4.032  15.765  0.1275 -0.1059 -0.2505
 8240TIP3    H146135   6.108   4.028  15.794  0.0240  2.6029  0.6927
 8240TIP3    H246136   6.006   3.954  15.710  3.2785 -0.0242 -1.1969
 8241TIP3   OH246137   1.906   2.172   4.513  0.1640  0.0144 -0.2490
 8241TIP3    H146138   1.964   2.212   4.449  0.9922  0.9512  1.0406
 8241TIP3    H246139   1.821   2.166   4.468  0.0703  2.9191 -0.6691
 8242TIP3   OH246140   3.331   0.656  15.439 -0.9564  0.0896 -0.0518
 8242TIP3    H146141   3.347   0.748  15.460  0.3639 -0.0035 -0.5562
 8242TIP3    H246142   3.411   0.611  15.465 -1.3141 -0.8090 -0.4626
 8243TIP3   OH246143   5.927   6.536   3.903  0.0520 -0.0442 -0.7393
 8243TIP3    H146144   5.980   6.551   3.824  0.5818 -1.6251 -0.7099
 8243TIP3    H246145   5.973   6.467   3.950 -1.4072 -0.6164 -0.1024
 8244TIP3   OH246146   1.113   1.836  11.204  0.2911  0.7742  0.0037
 8244TIP3    H146147   1.121   1.772  11.275 -0.4024 -1.9887 -2.2397
 8244TIP3    H246148   1.193   1.825  11.153  0.7613  2.6881  0.2722
 8245TIP3   OH246149   1.596   1.070   2.909 -0.0334 -0.3334 -0.4429
 8245TIP3    H146150   1.636   1.020   2.839  1.8873  1.2612 -0.5607
 8245TIP3    H246151   1.669   1.095   2.966 -1.0992  1.1401  0.3533
 8246TIP3   OH246152   5.034   1.660   4.833 -0.4475 -0.0330 -0.4980
 8246TIP3    H146153   5.045   1.568   4.859 -1.6250  0.2709  1.2700
 8246TIP3    H246154   5.100   1.707   4.883 -1.8455  0.4003  1.0396
 8247TIP3   OH246155   2.620   1.735  12.442 -0.0632 -0.8034  0.0070
 8247TIP3    H146156   2.625   1.646  12.407 -0.6074 -1.4834  1.5775
 8247TIP3    H246157   2.701   1.746  12.491  0.1077 -0.3299 -0.3714
 8248TIP3   OH246158   5.644   3.130  11.976 -0.0023  0.0623  0.0309
 8248TIP3    H146159   5.684   3.130  11.889 -0.9670 -0.6944 -0.4408
 8248TIP3    H246160   5.583   3.056  11.974 -0.1447  0.1236  1.3076
 8249TIP3   OH246161   0.050   2.846   5.459  0.1475 -0.7466 -0.1463
 8249TIP3    H146162   0.117   2.778   5.465  2.0011  1.0979  1.6674
 8249TIP3    H246163   0.011   2.834   5.372  1.7760 -2.8316 -0.6581
 8250TIP3   OH246164   3.438   1.959  11.441 -0.2163 -0.2491  0.2968
 8250TIP3    H146165   3.464   1.950  11.350 -1.1302 -0.1627  0.0186
 8250TIP3    H246166   3.383   2.038  11.443  1.8841  1.3041  1.3927
 8251TIP3   OH246167   5.011   0.374   5.086 -0.6197  0.4679  0.0153
 8251TIP3    H146168   4.943   0.316   5.119  1.3433 -1.9712  0.0912
 8251TIP3    H246169   5.015   0.446   5.149 -1.9171 -0.2509  0.9642
 8252TIP3   OH246170   5.238   4.994   5.280 -0.2010  0.1137  0.2032
 8252TIP3    H146171   5.214   4.918   5.332 -0.3759  0.9488  1.3838
 8252TIP3    H246172   5.177   4.994   5.207 -2.4857  0.9951  2.0051
 8253TIP3   OH246173   2.448   5.943  16.885 -0.2129  0.9039  0.1939
 8253TIP3    H146174   2.434   5.920  16.977 -0.3435 -0.5978 -0.1744
 8253TIP3    H246175   2.369   5.991  16.859 -1.0551 -0.3596  0.3493
 8254TIP3   OH246176   1.556   5.046  11.815  0.4323  0.2765 -0.6431
 8254TIP3    H146177   1.527   5.120  11.868  0.6684  1.3865 -1.9990
 8254TIP3    H246178   1.475   5.006  11.783  0.2643 -0.7843  0.9931
 8255TIP3   OH246179   6.375   3.391   0.530 -1.0723  0.5283 -0.1085
 8255TIP3    H146180   6.449   3.422   0.478 -1.0931  2.8384  1.0926
 8255TIP3    H246181   6.298   3.425   0.484 -1.2935 -0.2292 -0.3127
 8256TIP3   OH246182   2.927   1.006  16.409 -0.2374 -0.7720 -0.1876
 8256TIP3    H146183   2.880   1.070  16.462  0.1770 -2.5451  2.5167
 8256TIP3    H246184   2.866   0.985  16.338 -0.4606  2.3403 -1.0872
 8257TIP3   OH246185   3.370   5.136  11.949  0.4143 -0.0365  0.1541
 8257TIP3    H146186   3.324   5.131  12.033 -0.6410 -3.3619 -0.5144
 8257TIP3    H246187   3.461   5.112  11.970  0.4660  0.4695  0.5258
 8258TIP3   OH246188   4.339   1.111   4.659 -0.3939  0.5374 -0.2194
 8258TIP3    H146189   4.263   1.066   4.696 -0.4814 -0.1528 -1.1977
 8258TIP3    H246190   4.362   1.059   4.581  0.6640  1.1168 -0.3156
 8259TIP3   OH246191   4.169   2.067  16.668  0.0133 -0.5991  0.2160
 8259TIP3    H146192   4.231   2.001  16.698  0.0355 -0.7668 -0.2043
 8259TIP3    H246193   4.185   2.075  16.574  0.8345  0.8704  0.4576
 8260TIP3   OH246194   1.289   2.902   5.808 -0.0054  0.1433 -0.6169
 8260TIP3    H146195   1.319   2.883   5.719  0.2314  0.7155 -0.6635
 8260TIP3    H246196   1.369   2.919   5.857 -0.0401 -1.3135  0.0042
 8261TIP3   OH246197   0.479   0.156   1.528 -0.1897 -0.2599 -0.2968
 8261TIP3    H146198   0.510   0.246   1.524 -0.6761  0.0303  1.6243
 8261TIP3    H246199   0.555   0.103   1.504  0.5131  0.6073 -0.0292
 8262TIP3   OH246200   2.438   0.223  11.524  0.5310 -0.0397  0.2212
 8262TIP3    H146201   2.356   0.226  11.473  0.6508 -0.7635 -0.0279
 8262TIP3    H246202   2.478   0.140  11.499  1.7288  0.6589 -0.2520
 8263TIP3   OH246203   2.690   3.079   2.595 -0.0927 -0.8738  0.0311
 8263TIP3    H146204   2.769   3.107   2.641 -1.0031  2.4648 -0.1960
 8263TIP3    H246205   2.714   2.995   2.556  2.9332 -0.5488  0.9098
 8264TIP3   OH246206   6.259   6.318  13.099  0.0978  0.1988 -0.2408
 8264TIP3    H146207   6.214   6.337  13.181 -0.1151 -0.7751 -0.1248
 8264TIP3    H246208   6.201   6.354  13.031 -1.3648 -1.8261 -0.1560
 8265TIP3   OH246209   1.781   2.709  12.657  0.1271  0.6346 -0.1773
 8265TIP3    H146210   1.777   2.674  12.745  2.1535  2.2941  0.6616
 8265TIP3    H246211   1.712   2.663  12.609 -0.5112 -0.8557  2.0443
 8266TIP3   OH246212   3.434   0.140  14.388  1.0014 -0.5480 -0.2442
 8266TIP3    H146213   3.346   0.105  14.402  0.6618 -0.2981 -1.5951
 8266TIP3    H246214   3.491   0.086  14.444  0.0748 -1.0648  0.2296
 8267TIP3   OH246215   1.742   2.225   4.729  0.6939 -0.0388  0.1553
 8267TIP3    H146216   1.724   2.226   4.635  1.2755 -0.7039  0.0308
 8267TIP3    H246217   1.835   2.247   4.735  1.4875 -3.0544  0.3486
 8268TIP3   OH246218   0.090   5.432  16.630 -1.1725  0.1147  0.1552
 8268TIP3    H146219   0.060   5.357  16.682 -2.3346  0.5841  0.1834
 8268TIP3    H246220   0.034   5.504  16.657 -1.2475  0.5703 -1.1561
 8269TIP3   OH246221   4.754   4.852   3.222  0.1583 -0.3877 -0.0854
 8269TIP3    H146222   4.804   4.890   3.294 -2.8224  1.3424  1.2285
 8269TIP3    H246223   4.724   4.767   3.255 -0.0021 -0.2334  0.1690
 8270TIP3   OH246224   2.193   0.934   0.737 -0.6045 -0.2662  0.2943
 8270TIP3    H146225   2.232   1.019   0.755 -0.0685 -0.2370 -0.8935
 8270TIP3    H246226   2.149   0.945   0.653 -1.4255 -0.8870  0.6219
 8271TIP3   OH246227   4.547   6.225  12.820 -0.1543 -0.5364  0.6187
 8271TIP3    H146228   4.601   6.186  12.889  1.5797  0.1377 -0.2936
 8271TIP3    H246229   4.487   6.283  12.867  1.5164  0.5171  1.5521
 8272TIP3   OH246230   0.182   6.587  16.969  0.1195 -0.1002  0.1374
 8272TIP3    H146231   0.131   6.569  17.048 -0.0900 -1.4185 -0.2680
 8272TIP3    H246232   0.203   6.680  16.975 -0.5872  0.0114  1.3316
 8273TIP3   OH246233   2.319   4.262  15.038 -0.1607 -0.0114 -0.5129
 8273TIP3    H146234   2.361   4.267  14.952 -0.5353  1.4490 -0.6302
 8273TIP3    H246235   2.257   4.335  15.039  0.3446  0.4330  1.2721
 8274TIP3   OH246236   4.939   6.182  17.036 -0.3480  0.5491 -0.1927
 8274TIP3    H146237   4.914   6.239  16.964  1.6827  1.0706 -0.5298
 8274TIP3    H246238   5.028   6.209  17.059 -0.0440 -1.2195  0.9103
 8275TIP3   OH246239   6.070   3.355  10.570  0.0549 -0.4753 -0.3980
 8275TIP3    H146240   6.158   3.320  10.583  0.2160  0.0657  0.0318
 8275TIP3    H246241   6.081   3.450  10.574 -0.2921 -0.3292 -2.0446
 8276TIP3   OH246242   1.970   1.810  12.095  0.3316  0.1487  0.0251
 8276TIP3    H146243   1.930   1.889  12.131  0.2150  0.0281  0.1588
 8276TIP3    H246244   1.960   1.745  12.163  1.5447  0.3521  0.4151
 8277TIP3   OH246245   4.534   3.554   4.071  0.3547  0.2948  0.1662
 8277TIP3    H146246   4.442   3.567   4.050  0.3432 -0.8053 -0.5366
 8277TIP3    H246247   4.558   3.474   4.025  1.3762 -0.0256  1.2080
 8278TIP3   OH246248   4.779   0.424   4.332  0.5614  0.2250  0.9767
 8278TIP3    H146249   4.859   0.446   4.283 -0.0405  0.3198  0.0078
 8278TIP3    H246250   4.796   0.456   4.421  1.6866  0.0393  0.8499
 8279TIP3   OH246251   1.949   3.204   4.878 -0.2835  0.1570  0.2093
 8279TIP3    H146252   2.019   3.143   4.856  1.0829  2.0873 -1.1553
 8279TIP3    H246253   1.942   3.200   4.973  1.0893 -0.7211  0.3000
 8280TIP3   OH246254   5.843   6.487  12.028 -0.1219  0.4384  0.1068
 8280TIP3    H146255   5.758   6.476  11.985 -0.8421  2.1620  0.9916
 8280TIP3    H246256   5.891   6.546  11.969  0.0610  0.3093  0.1275
 8281TIP3   OH246257   5.975   0.794   6.157  0.4002 -0.0499 -0.0651
 8281TIP3    H146258   6.011   0.709   6.129 -1.3677 -0.5307 -1.0633
 8281TIP3    H246259   6.050   0.841   6.193  1.8568 -1.2554 -1.3526
 8282TIP3   OH246260   2.738   5.979   1.149 -0.6243  0.1852 -0.1816
 8282TIP3    H146261   2.732   6.075   1.143 -0.5534  0.2335  0.4897
 8282TIP3    H246262   2.648   5.949   1.143 -0.7091  0.3371  0.2956
 8283TIP3   OH246263   1.879   4.814  16.194 -0.1656 -0.1942 -0.3533
 8283TIP3    H146264   1.873   4.865  16.113 -0.5499 -2.2685 -1.6982
 8283TIP3    H246265   1.958   4.762  16.184  1.3705  1.5215  1.9110
 8284TIP3   OH246266   4.001   6.789   3.291 -0.0718  0.3633  0.3322
 8284TIP3    H146267   4.013   6.816   3.200  0.2954  0.7379  0.4871
 8284TIP3    H246268   4.081   6.743   3.314  0.3799  1.3548  0.8380
 8285TIP3   OH246269   0.906   0.200   0.984 -0.6523  0.5680  0.4286
 8285TIP3    H146270   0.882   0.134   1.049  0.7463 -2.2223 -1.6993
 8285TIP3    H246271   0.981   0.246   1.023 -0.8590  0.0777  1.4413
 8286TIP3   OH246272   1.493   3.343  10.876  0.5694  0.2695 -0.3733
 8286TIP3    H146273   1.475   3.257  10.840  1.5447 -0.5564  1.0298
 8286TIP3    H246274   1.573   3.372  10.832  0.4194  0.3308 -0.6090
 8287TIP3   OH246275   0.388   0.830   0.051  0.4468  0.8669 -0.0164
 8287TIP3    H146276   0.301   0.851   0.084  1.1148 -0.1648  2.7254
 8287TIP3    H246277   0.387   0.735   0.039  0.9440  0.9519 -0.8412
 8288TIP3   OH246278   6.590   0.311   5.856 -0.4651  0.0805 -0.2288
 8288TIP3    H146279   6.567   0.394   5.897 -2.9074  0.5460 -2.3172
 8288TIP3    H246280   6.530   0.247   5.895  0.3625 -0.4330  0.2477
 8289TIP3   OH246281   4.792   2.540   4.788  0.6337 -0.1508 -0.6033
 8289TIP3    H146282   4.790   2.538   4.884 -0.8960  0.3629 -0.5918
 8289TIP3    H246283   4.850   2.613   4.767  0.9648 -0.2554 -0.0584
 8290TIP3   OH246284   0.823   3.059  11.132 -0.0273  0.4712 -0.3348
 8290TIP3    H146285   0.880   3.034  11.060 -1.3418  0.9521 -1.6029
 8290TIP3    H246286   0.801   2.977  11.176  1.4651  0.2670  0.0796
 8291TIP3   OH246287   1.274   4.186  14.362 -0.1753  0.4431 -0.5212
 8291TIP3    H146288   1.189   4.148  14.339 -0.3314 -0.3842  1.2040
 8291TIP3    H246289   1.336   4.148  14.299 -0.7501 -0.7136 -0.4190
 8292TIP3   OH246290   2.081   1.258   3.654 -0.0671  0.0723  0.3829
 8292TIP3    H146291   2.160   1.203   3.648  0.1072  0.2803  0.7993
 8292TIP3    H246292   2.060   1.278   3.562 -0.7303 -1.5338  0.1413
 8293TIP3   OH246293   4.519   5.020  11.717 -0.6758  0.8050  0.3203
 8293TIP3    H146294   4.542   5.026  11.624 -2.6038  1.6306 -0.1503
 8293TIP3    H246295   4.557   5.100  11.756 -0.1280  0.6083  0.2023
 8294TIP3   OH246296   0.677   1.372   4.522  0.8125  0.2527 -0.0161
 8294TIP3    H146297   0.679   1.365   4.618  3.9909 -0.0916  0.0061
 8294TIP3    H246298   0.726   1.296   4.491  0.5964  0.8282 -1.8929
 8295TIP3   OH246299   6.409   5.126  15.255 -0.0438 -0.0067  0.3670
 8295TIP3    H146300   6.459   5.044  15.257 -0.2678 -0.1319  1.2629
 8295TIP3    H246301   6.363   5.124  15.172  1.4058  0.0912 -0.4665
 8296TIP3   OH246302   3.098   6.112   2.799 -0.6315 -0.3298 -0.6043
 8296TIP3    H146303   3.085   6.144   2.710 -0.1896  1.1787 -0.1495
 8296TIP3    H246304   3.098   6.190   2.854 -1.6120 -1.2856  0.8376
 8297TIP3   OH246305   3.746   5.825  11.896  0.6367  0.1981 -0.4117
 8297TIP3    H146306   3.801   5.757  11.935  1.5943  1.2949  0.2163
 8297TIP3    H246307   3.669   5.778  11.863  0.4053 -0.9525  1.6367
 8298TIP3   OH246308   2.128   3.505   3.946 -0.0197 -0.0905 -0.1785
 8298TIP3    H146309   2.099   3.595   3.937  0.3183 -0.0706 -1.1917
 8298TIP3    H246310   2.063   3.464   4.003 -2.1321 -0.0566 -2.3857
 8299TIP3   OH246311   6.265   5.247  14.793  0.7933  0.0795  0.6603
 8299TIP3    H146312   6.233   5.194  14.867 -2.2568  0.0836 -0.5135
 8299TIP3    H246313   6.186   5.288  14.757  2.3402  1.0713 -1.8519
 8300TIP3   OH246314   4.381   5.472   4.552  0.1911  0.1580  0.0975
 8300TIP3    H146315   4.457   5.490   4.496 -0.2416  0.7672 -0.3058
 8300TIP3    H246316   4.308   5.462   4.490 -0.2707  0.7254  0.5434
 8301TIP3   OH246317   0.013   3.090   5.287  0.0753 -0.0887  0.1657
 8301TIP3    H146318   0.098   3.064   5.322  1.0423  0.5818 -1.5428
 8301TIP3    H246319  -0.003   3.176   5.325  0.2932 -0.1035  0.2920
 8302TIP3   OH246320   0.314   6.684  13.893  0.4555  1.1521  0.3166
 8302TIP3    H146321   0.371   6.674  13.817  0.0581 -3.5418  0.3152
 8302TIP3    H246322   0.374   6.695  13.967  1.5585 -2.4212  0.1539
 8303TIP3   OH246323   5.902   0.653  11.964 -0.3686  0.2208 -0.2101
 8303TIP3    H146324   5.864   0.732  11.927 -1.0702 -0.0079  0.0089
 8303TIP3    H246325   5.973   0.631  11.904  1.3382  2.2666  0.9228
 8304TIP3   OH246326   1.162   6.809   3.623  0.6314 -0.1804  0.6506
 8304TIP3    H146327   1.147   6.811   3.717 -1.3145 -0.6208  0.3962
 8304TIP3    H246328   1.077   6.785   3.585  2.1896 -3.7948 -1.0241
 8305TIP3   OH246329   6.044   2.630   4.494  0.1440 -0.0078  0.1069
 8305TIP3    H146330   6.076   2.712   4.532  0.1928  0.1280 -0.2267
 8305TIP3    H246331   6.006   2.584   4.568 -0.9994  0.8536  0.0836
 8306TIP3   OH246332   2.891   1.712  13.550  0.8258 -0.3897  0.1596
 8306TIP3    H146333   2.879   1.692  13.643 -0.3767  0.2689  0.1597
 8306TIP3    H246334   2.884   1.807  13.545 -0.0115 -0.4893 -0.7282
 8307TIP3   OH246335   1.482   5.154  11.460 -0.0160  0.2777  0.4919
 8307TIP3    H146336   1.425   5.140  11.384 -2.0292  2.6502  1.4115
 8307TIP3    H246337   1.438   5.110  11.532  1.1644 -0.7734  0.6085
 8308TIP3   OH246338   4.859   3.814   2.301 -0.4122  0.0526  0.0618
 8308TIP3    H146339   4.904   3.749   2.246  0.1289 -2.3760  3.1151
 8308TIP3    H246340   4.766   3.800   2.284 -0.2450 -0.1380 -0.7369
 8309TIP3   OH246341   5.180   3.293  12.595 -0.6142 -0.0714 -0.0198
 8309TIP3    H146342   5.216   3.375  12.562 -1.3355  0.1405 -0.2937
 8309TIP3    H246343   5.218   3.225  12.539 -1.5849  0.2529 -1.1123
 8310TIP3   OH246344   1.428   6.661  13.562  0.4762  0.1245 -0.1853
 8310TIP3    H146345   1.487   6.610  13.618 -0.3854  1.5580  2.1839
 8310TIP3    H246346   1.455   6.751  13.575 -2.2037  0.8567  1.1024
 8311TIP3   OH246347   1.704   4.500  17.125 -0.5279 -0.1444  0.1135
 8311TIP3    H146348   1.740   4.411  17.128  0.4449  0.2141 -0.2243
 8311TIP3    H246349   1.758   4.549  17.187  0.2604  0.6414 -1.1507
 8312TIP3   OH246350   1.783   0.449   3.172 -0.1910 -0.2718  0.8136
 8312TIP3    H146351   1.752   0.468   3.260  0.3911  2.6971  0.4703
 8312TIP3    H246352   1.878   0.464   3.177 -0.2696  0.8279 -0.4741
 8313TIP3   OH246353   1.979   3.174  15.917  0.1454 -0.1643 -0.5310
 8313TIP3    H146354   1.969   3.103  15.979 -0.3903  0.6352  0.3253
 8313TIP3    H246355   1.976   3.132  15.831 -1.0112 -1.0865 -0.0690
 8314TIP3   OH246356   5.532   3.766   0.994 -0.2412  0.3039 -0.0709
 8314TIP3    H146357   5.495   3.692   0.946 -0.2077  1.4893 -2.0382
 8314TIP3    H246358   5.619   3.737   1.019 -1.2193 -1.3057  1.6824
 8315TIP3   OH246359   6.734   4.803   2.932  0.3568 -0.2388 -0.1679
 8315TIP3    H146360   6.663   4.744   2.959 -1.3772  1.8019 -0.0180
 8315TIP3    H246361   6.710   4.830   2.843 -1.7235  4.0144  1.4136
 8316TIP3   OH246362   2.932   4.105  13.815  0.0880  0.0515  0.3178
 8316TIP3    H146363   2.957   4.016  13.837 -1.0922 -0.5236 -0.5554
 8316TIP3    H246364   2.860   4.095  13.753  0.1866  1.6113 -0.0890
 8317TIP3   OH246365   2.867   2.422   3.062 -0.0185  1.1709 -0.2447
 8317TIP3    H146366   2.795   2.394   3.119  1.0873 -0.6119  0.3491
 8317TIP3    H246367   2.841   2.510   3.032 -2.4700  0.5425 -0.1644
 8318TIP3   OH246368   4.302   2.763   2.481 -0.0030 -0.6366  0.4581
 8318TIP3    H146369   4.236   2.829   2.500 -0.3426 -0.9911  0.5344
 8318TIP3    H246370   4.296   2.750   2.386  1.9132  1.3671 -0.0281
 8319TIP3   OH246371   4.276   2.952  13.605 -0.3341  0.3113 -0.0603
 8319TIP3    H146372   4.247   2.932  13.694 -0.8325 -0.0960 -0.3068
 8319TIP3    H246373   4.368   2.927  13.603 -0.1469  0.9181  0.5212
 8320TIP3   OH246374   2.170   4.863  11.548  0.5676  0.0115 -0.1540
 8320TIP3    H146375   2.206   4.945  11.514 -1.0091  0.6545 -0.3637
 8320TIP3    H246376   2.082   4.886  11.580 -0.2605 -1.7512 -1.0012
 8321TIP3   OH246377   2.309   4.810   1.965  0.4110  0.3157  0.3092
 8321TIP3    H146378   2.251   4.804   2.042 -0.2107  1.6686 -0.0260
 8321TIP3    H246379   2.272   4.882   1.913  1.7259  0.4316 -0.4949
 8322TIP3   OH246380   6.327   1.462   2.561  0.5132 -0.0644 -0.5843
 8322TIP3    H146381   6.284   1.525   2.503  0.4562 -0.2766 -0.7758
 8322TIP3    H246382   6.328   1.380   2.511  0.8900 -0.1321 -0.4729
 8323TIP3   OH246383   1.642   0.629  13.757  0.4114  1.0096  0.4295
 8323TIP3    H146384   1.646   0.537  13.783 -1.0224  1.0606  0.9182
 8323TIP3    H246385   1.580   0.631  13.685  2.7706  1.1836 -1.7399
 8324TIP3   OH246386   6.613   6.670  11.843 -0.0947  0.3813  0.2305
 8324TIP3    H146387   6.669   6.747  11.858  0.0913  0.0538  1.3264
 8324TIP3    H246388   6.526   6.707  11.828  0.6698  1.0236 -3.5743
 8325TIP3   OH246389   3.667   1.809  11.819  0.2212  0.5124  0.0396
 8325TIP3    H146390   3.758   1.804  11.846  0.7271 -0.0974 -1.6180
 8325TIP3    H246391   3.622   1.741  11.870  1.6218 -2.3893 -2.2856
 8326TIP3   OH246392   1.467   5.860   2.748  0.7133 -0.4286 -0.8036
 8326TIP3    H146393   1.490   5.951   2.769 -1.2579 -0.2267  0.7776
 8326TIP3    H246394   1.400   5.868   2.680 -0.7321 -0.5443  0.5403
 8327TIP3   OH246395   3.636   3.837   2.644 -0.0970  0.4293 -0.4909
 8327TIP3    H146396   3.711   3.892   2.622  0.7923  0.3341  2.0252
 8327TIP3    H246397   3.675   3.753   2.668 -1.1712 -0.1710 -0.7913
 8328TIP3   OH246398   0.289   3.793  16.454  0.2653  0.7522  0.2768
 8328TIP3    H146399   0.263   3.704  16.433 -1.7123  1.1780  0.6618
 8328TIP3    H246400   0.376   3.803  16.416  0.2968 -1.1522 -0.2345
 8329TIP3   OH246401   0.503   3.374  12.547  0.4090 -0.2214 -0.0744
 8329TIP3    H146402   0.441   3.308  12.581 -0.4232  0.3093 -0.5277
 8329TIP3    H246403   0.447   3.440  12.506  1.2252  0.8307  0.4594
 8330TIP3   OH246404   5.281   0.244  13.378  0.0186  0.3625  0.2017
 8330TIP3    H146405   5.245   0.332  13.388 -0.0747  0.5093 -1.1887
 8330TIP3    H246406   5.222   0.187  13.428 -0.3795  0.9862  0.4478
 8331TIP3   OH246407   6.510   5.342   3.822  0.3347  0.2260  0.3894
 8331TIP3    H146408   6.469   5.281   3.760 -0.5843  0.4028  0.8029
 8331TIP3    H246409   6.596   5.304   3.840  0.8329  0.4311 -1.3657
 8332TIP3   OH246410   5.853   4.460  15.361  0.1103  0.0241 -0.0953
 8332TIP3    H146411   5.819   4.525  15.423 -2.9789 -0.4827 -1.0701
 8332TIP3    H246412   5.947   4.455  15.380  0.0237  2.8631  1.7287
 8333TIP3   OH246413   4.587   3.520   1.885 -0.7815  0.3220 -0.2394
 8333TIP3    H146414   4.515   3.457   1.882  0.1085 -0.6838 -1.3277
 8333TIP3    H246415   4.580   3.570   1.804 -0.3264  0.3019 -0.2947
 8334TIP3   OH246416   1.837   0.120  12.428 -0.1871  0.4724 -0.1173
 8334TIP3    H146417   1.768   0.099  12.365 -2.0220 -1.8734  2.4475
 8334TIP3    H246418   1.915   0.079  12.393 -1.8932 -3.8759  0.5624
 8335TIP3   OH246419   5.241   2.235  13.026 -0.1435 -0.4332  0.4460
 8335TIP3    H146420   5.168   2.173  13.029 -0.5020  0.0078  1.9770
 8335TIP3    H246421   5.212   2.304  12.967  0.2328 -1.6337 -1.2321
 8336TIP3   OH246422   6.485   2.237  16.532  0.4401  0.0129 -0.1036
 8336TIP3    H146423   6.484   2.202  16.443  0.7081  0.9231 -0.4716
 8336TIP3    H246424   6.399   2.278  16.543  1.1197  1.6663 -0.6768
 8337TIP3   OH246425   5.533   4.524  14.380 -0.2925 -0.8118 -0.4179
 8337TIP3    H146426   5.516   4.471  14.457 -1.5963  1.5634  1.0512
 8337TIP3    H246427   5.614   4.571  14.400  0.0315 -1.0893 -1.0394
 8338TIP3   OH246428   0.072   1.419   3.030  0.4524 -0.2711 -0.4030
 8338TIP3    H146429   0.068   1.332   3.069 -2.5784 -0.1912 -0.3447
 8338TIP3    H246430   0.078   1.404   2.936 -0.3574 -0.5484 -0.4108
 8339TIP3   OH246431   6.431   6.680   1.516 -0.1663  0.1172  0.1267
 8339TIP3    H146432   6.347   6.665   1.559  0.2170  1.4025  1.3780
 8339TIP3    H246433   6.477   6.740   1.573  1.5358 -0.3828 -0.6608
 8340TIP3   OH246434   2.661   0.400  11.297  0.0486 -0.2588  0.0453
 8340TIP3    H146435   2.676   0.435  11.209  0.3813 -0.4291  0.0318
 8340TIP3    H246436   2.578   0.439  11.325  0.2285  0.2472 -0.1207
 8341TIP3   OH246437   2.975   5.600  13.388  0.0354  0.1461  0.5838
 8341TIP3    H146438   3.046   5.663  13.380 -1.4530  1.7169 -1.1612
 8341TIP3    H246439   2.956   5.596  13.482  1.5298  0.6961  0.9278
 8342TIP3   OH246440   3.056   2.466   2.466  0.7588  0.1625  0.3228
 8342TIP3    H146441   3.137   2.440   2.509  0.2457  0.1759  1.3188
 8342TIP3    H246442   3.083   2.532   2.401  1.7246 -0.9292 -0.4254
 8343TIP3   OH246443   3.653   2.705  12.896  0.8655 -0.1047  0.5420
 8343TIP3    H146444   3.665   2.620  12.855 -1.0225 -0.0212 -0.2759
 8343TIP3    H246445   3.575   2.695  12.951  0.5853  1.0983  0.3928
 8344TIP3   OH246446   1.207   0.423  15.231 -0.1687  0.0218  0.4141
 8344TIP3    H146447   1.296   0.396  15.256  0.3127  1.2624  0.0966
 8344TIP3    H246448   1.192   0.381  15.146  0.4380  0.4869  0.0747
 8345TIP3   OH246449   3.127   3.056  12.875  0.0997 -0.2953 -0.0206
 8345TIP3    H146450   3.126   2.969  12.915  0.7331  0.6341  2.1740
 8345TIP3    H246451   3.044   3.062  12.827 -0.3416 -1.7695  0.5226
 8346TIP3   OH246452   4.246   6.293   1.112 -0.7548  0.2674 -0.0394
 8346TIP3    H146453   4.275   6.307   1.202  0.0789 -0.5132 -0.1629
 8346TIP3    H246454   4.246   6.380   1.072  1.6546  0.3000 -0.0792
 8347TIP3   OH246455   4.759   6.653  14.507 -0.4196 -0.3754 -0.2588
 8347TIP3    H146456   4.739   6.729  14.453 -0.2624 -0.3849 -0.3317
 8347TIP3    H246457   4.842   6.619  14.472  0.2922  0.2942  0.7057
 8348TIP3   OH246458   0.057   6.196   1.440  0.1529  0.4887  0.5852
 8348TIP3    H146459  -0.009   6.263   1.422 -0.0699 -0.0649 -0.7368
 8348TIP3    H246460   0.019   6.143   1.511  0.7005  2.2254  2.2632
 8349TIP3   OH246461   2.869   6.373   4.895 -0.2752 -0.6044  0.2441
 8349TIP3    H146462   2.961   6.353   4.911  0.2178 -0.3888 -2.0411
 8349TIP3    H246463   2.862   6.467   4.912 -0.2271 -0.7156  0.9354
 8350TIP3   OH246464   6.726   0.172   4.152 -0.5770 -0.3431 -0.0867
 8350TIP3    H146465   6.764   0.086   4.169 -1.4943 -0.5059  1.3234
 8350TIP3    H246466   6.777   0.232   4.206  2.4300  0.6846 -3.6979
 8351TIP3   OH246467   2.320   4.889   4.796 -0.0795 -0.2086  0.2799
 8351TIP3    H146468   2.375   4.880   4.718 -0.5180  1.6275 -0.3117
 8351TIP3    H246469   2.278   4.975   4.785 -1.6008 -0.7387  1.6356
 8352TIP3   OH246470   3.347   1.389   6.136  0.1432 -0.0040 -0.4570
 8352TIP3    H146471   3.387   1.361   6.054 -1.5287  0.0011 -1.3159
 8352TIP3    H246472   3.409   1.362   6.204  0.6706 -1.7373 -1.5744
 8353TIP3   OH246473   2.814   2.041  12.023 -0.3240  0.4353  0.3224
 8353TIP3    H146474   2.782   2.017  12.110 -0.8213  1.9369  0.5936
 8353TIP3    H246475   2.735   2.048  11.969 -0.2385  1.6301  0.3279
 8354TIP3   OH246476   2.061   6.287   0.401  0.0547  0.3981 -0.1121
 8354TIP3    H146477   1.995   6.267   0.468 -0.1357 -0.3821 -0.5268
 8354TIP3    H246478   2.127   6.218   0.411  1.4020  1.7694  1.0308
 8355TIP3   OH246479   4.016   1.631  16.665  0.4418 -0.2902 -0.5553
 8355TIP3    H146480   3.984   1.687  16.594  0.9156  1.1640  0.3090
 8355TIP3    H246481   3.978   1.545  16.648 -0.7791  0.4319 -1.6492
 8356TIP3   OH246482   1.446   1.909  11.876 -0.5595 -0.0883  0.0000
 8356TIP3    H146483   1.500   1.869  11.807 -0.4603 -1.9765  1.0898
 8356TIP3    H246484   1.466   2.002  11.872 -2.0968  0.2277 -3.8440
 8357TIP3   OH246485   2.258   1.156   3.425  0.0779  0.3631  0.9280
 8357TIP3    H146486   2.310   1.128   3.500  1.3064  0.5350  0.1649
 8357TIP3    H246487   2.319   1.205   3.370 -0.5730 -0.4688 -0.5963
 8358TIP3   OH246488   2.410   0.860  17.106 -0.1077 -0.1815  0.6619
 8358TIP3    H146489   2.392   0.922  17.036  0.2096 -0.2610  0.5119
 8358TIP3    H246490   2.324   0.821  17.126  0.2793 -3.0296 -2.3334
 8359TIP3   OH246491   2.796   0.028   2.428 -0.3182 -0.0879  0.1403
 8359TIP3    H146492   2.873  -0.024   2.451 -0.8058 -0.3089  1.3072
 8359TIP3    H246493   2.740  -0.032   2.379 -0.7462 -0.6036  1.2323
 8360TIP3   OH246494   5.714   0.023  12.725  0.4523  0.4758 -0.3802
 8360TIP3    H146495   5.766   0.071  12.789 -0.7307  0.3066  0.7518
 8360TIP3    H246496   5.624   0.051  12.742 -0.2228 -1.7332 -0.0291
 8361TIP3   OH246497   6.534   4.481  16.196  0.1950  0.3869 -0.1678
 8361TIP3    H146498   6.588   4.507  16.270  0.0118  0.2364  0.0199
 8361TIP3    H246499   6.477   4.557  16.179  1.5906  1.2011 -1.4357
 8362TIP3   OH246500   5.412   0.922  14.526 -0.6164  0.3312  0.3326
 8362TIP3    H146501   5.325   0.903  14.562 -0.2722 -0.4188  0.7981
 8362TIP3    H246502   5.434   0.844  14.475 -0.9922  1.2803 -1.3585
 8363TIP3   OH246503   5.623   0.678   4.079 -0.9616 -0.2794 -0.2587
 8363TIP3    H146504   5.686   0.711   4.143  1.2443 -0.9853 -1.9168
 8363TIP3    H246505   5.538   0.705   4.113  0.2039  0.7695  2.0972
 8364TIP3   OH246506   2.109   4.675  16.162  0.0548  0.1710  0.1746
 8364TIP3    H146507   2.126   4.583  16.185 -2.4881 -0.3584  0.2539
 8364TIP3    H246508   2.188   4.721  16.187  1.1619 -1.9168  0.7268
 8365TIP3   OH246509   4.807   5.730   4.800  0.2725 -0.1948  0.5604
 8365TIP3    H146510   4.884   5.706   4.852  1.2581 -0.9464 -1.1545
 8365TIP3    H246511   4.745   5.660   4.815  0.4557 -0.2808  0.9201
 8366TIP3   OH246512   0.110   4.170  15.947  0.1116  0.0361 -0.2090
 8366TIP3    H146513   0.027   4.217  15.958  0.5188  1.0386 -1.2182
 8366TIP3    H246514   0.092   4.081  15.979 -1.6795 -0.0976 -1.4617
 8367TIP3   OH246515   6.462   3.501  15.441 -0.2118  0.2642 -1.0596
 8367TIP3    H146516   6.374   3.518  15.477  1.1677 -0.8078  3.4963
 8367TIP3    H246517   6.492   3.587  15.413 -2.4684  0.7549 -2.2510
 8368TIP3   OH246518   1.581   5.518   3.206 -0.1941 -0.1484 -0.5103
 8368TIP3    H146519   1.659   5.521   3.261 -0.7999 -0.4521  0.3878
 8368TIP3    H246520   1.608   5.560   3.124  0.9547 -0.3974 -0.2826
 8369TIP3   OH246521   0.307   6.117   3.837  0.5079 -0.2354 -0.3911
 8369TIP3    H146522   0.229   6.067   3.861  0.4055 -1.1502 -2.4287
 8369TIP3    H246523   0.367   6.053   3.800  0.7159  0.9903 -2.3050
 8370TIP3   OH246524   2.379   4.759  14.338  0.1376 -0.5341 -0.1876
 8370TIP3    H146525   2.412   4.687  14.392  2.2081  2.3463  2.8129
 8370TIP3    H246526   2.447   4.774  14.273  2.7387  2.0571  2.7570
 8371TIP3   OH246527   5.878   2.373  14.038 -0.3095  0.0346 -0.0052
 8371TIP3    H146528   5.818   2.373  13.964 -0.3591 -0.8939  0.0323
 8371TIP3    H246529   5.937   2.300  14.022  0.4940  0.6168  0.2232
 8372TIP3   OH246530   5.180   2.078  16.507 -0.0849 -0.7733 -0.0141
 8372TIP3    H146531   5.184   2.040  16.419  1.7568 -1.1833  0.2069
 8372TIP3    H246532   5.087   2.092  16.523 -0.4462 -0.5643 -2.0799
 8373TIP3   OH246533   1.782   5.604   5.542  0.2154 -0.1301  0.4400
 8373TIP3    H146534   1.727   5.606   5.620  0.3754  1.1320  0.5438
 8373TIP3    H246535   1.721   5.618   5.469  0.2453  0.1114  0.4602
 8374TIP3   OH246536   6.730   5.524   3.690  0.2552  0.6568  0.0260
 8374TIP3    H146537   6.812   5.475   3.681  0.1162  0.5015 -0.4536
 8374TIP3    H246538   6.674   5.467   3.743  0.1158  0.3192 -0.4777
 8375TIP3   OH246539   0.999   5.208  13.330 -0.1953 -0.3048  0.5537
 8375TIP3    H146540   1.032   5.298  13.335  1.2819 -0.8010  0.1756
 8375TIP3    H246541   0.904   5.217  13.341 -0.1760  1.3828 -0.3510
 8376TIP3   OH246542   5.787   2.027  16.100  0.4538 -0.7710  0.1368
 8376TIP3    H146543   5.827   2.083  16.033 -1.5056 -0.7157 -1.0537
 8376TIP3    H246544   5.764   2.087  16.171 -0.6275 -0.1987 -0.6623
 8377TIP3   OH246545   6.230   3.429  15.946 -0.1160  0.4415 -0.2039
 8377TIP3    H146546   6.160   3.446  15.883 -0.8141  0.2572  0.4955
 8377TIP3    H246547   6.185   3.425  16.031  1.0263  2.6944  0.5993
 8378TIP3   OH246548   1.032   5.453   2.956  0.1151  0.3435 -0.0854
 8378TIP3    H146549   1.043   5.446   2.861  1.0617 -1.9531  0.1469
 8378TIP3    H246550   0.955   5.401   2.975 -1.3461  2.4900  0.2481
 8379TIP3   OH246551   3.693   6.154  16.413 -0.2621 -0.2478  0.2710
 8379TIP3    H146552   3.613   6.108  16.435 -1.4973  2.1935  1.2603
 8379TIP3    H246553   3.757   6.123  16.478 -1.3373  0.1778  1.5642
 8380TIP3   OH246554   2.094   4.706   4.651 -0.6021 -0.1084 -0.6071
 8380TIP3    H146555   2.000   4.687   4.653 -0.1349 -3.0484  2.0614
 8380TIP3    H246556   2.108   4.769   4.722 -0.5865  0.8602 -1.4447
 8381TIP3   OH246557   1.287   6.504   4.321 -0.2114 -0.1196 -0.2044
 8381TIP3    H146558   1.276   6.443   4.394  0.6765 -0.0818 -0.0321
 8381TIP3    H246559   1.214   6.565   4.330  1.0154  1.1956  1.9560
 8382TIP3   OH246560   4.136   4.296   5.923  0.0340  0.1141 -0.3802
 8382TIP3    H146561   4.190   4.291   5.845  2.2781  1.0671  1.0034
 8382TIP3    H246562   4.078   4.371   5.907  1.6265  1.3675 -0.4999
 8383TIP3   OH246563   6.780   1.834  16.117  0.2604 -0.3734 -0.1952
 8383TIP3    H146564   6.754   1.776  16.045  0.6818  0.3371 -0.9410
 8383TIP3    H246565   6.704   1.891  16.131  0.7319  0.5450 -1.1886
 8384TIP3   OH246566   5.408   3.225   0.525  0.6423  0.0902  0.4746
 8384TIP3    H146567   5.346   3.174   0.577  0.6262  0.3861  0.7463
 8384TIP3    H246568   5.392   3.196   0.435 -0.1730  0.4499  0.4881
 8385TIP3   OH246569   2.606   6.496   3.270  0.2509  0.3428  0.2956
 8385TIP3    H146570   2.611   6.421   3.211 -1.6265  2.2187 -2.4556
 8385TIP3    H246571   2.582   6.458   3.355 -0.0354 -2.1820 -0.8429
 8386TIP3   OH246572   6.704   5.567  14.578 -0.1807  0.1417  0.1377
 8386TIP3    H146573   6.677   5.491  14.526 -0.1170  1.3848 -1.8066
 8386TIP3    H246574   6.723   5.531  14.665 -0.5522 -1.9867 -0.6037
 8387TIP3   OH246575   4.062   1.097  16.875  0.7532  0.3056  0.4684
 8387TIP3    H146576   3.989   1.156  16.858  1.1871  0.3755 -1.3413
 8387TIP3    H246577   4.063   1.087  16.970 -1.5509  0.3675  0.5693
 8388TIP3   OH246578   1.633   4.529  14.384  0.7687 -0.2155  0.0180
 8388TIP3    H146579   1.696   4.575  14.329  0.2559  2.5226  1.5398
 8388TIP3    H246580   1.549   4.542  14.340  0.5497  0.8557  0.7012
 8389TIP3   OH246581   2.112   1.834   5.812  0.3992 -1.2053  0.7351
 8389TIP3    H146582   2.088   1.745   5.786 -0.2663 -1.1713  1.2145
 8389TIP3    H246583   2.053   1.855   5.884 -2.1548  1.0156 -1.7514
 8390TIP3   OH246584   3.348   1.408   2.562 -0.5477  0.2169 -0.0047
 8390TIP3    H146585   3.311   1.364   2.638 -0.0117  3.0449  2.0383
 8390TIP3    H246586   3.441   1.388   2.565 -0.5532  0.1899 -0.0169
 8391TIP3   OH246587   4.154   1.764  11.456  0.2579  0.1926  0.0606
 8391TIP3    H146588   4.143   1.705  11.531 -0.6122  0.4361  0.1355
 8391TIP3    H246589   4.119   1.715  11.382 -0.2259  0.5084  0.0763
 8392TIP3   OH246590   2.649   1.270   1.212 -0.2622 -0.1823  0.0721
 8392TIP3    H146591   2.709   1.262   1.286 -1.0966 -1.1514  0.6820
 8392TIP3    H246592   2.589   1.196   1.223 -0.4806 -0.2649 -1.5090
 8393TIP3   OH246593   0.800   3.705  15.248 -0.0964  0.1711 -0.5747
 8393TIP3    H146594   0.870   3.711  15.183  0.1426  1.7032 -0.2080
 8393TIP3    H246595   0.754   3.788  15.242 -0.4063  0.1336  0.8368
 8394TIP3   OH246596   2.274   4.114  15.343  0.2465 -0.4145  0.1998
 8394TIP3    H146597   2.249   4.095  15.253 -1.5215  1.0145  0.3440
 8394TIP3    H246598   2.306   4.204  15.342  0.3963 -0.4476  0.9700
 8395TIP3   OH246599   0.975   2.863   1.710  0.4193  0.0762  0.0814
 8395TIP3    H146600   0.901   2.805   1.692  1.3803 -1.5174  1.0196
 8395TIP3    H246601   0.970   2.930   1.642 -0.3072 -1.5521 -1.5716
 8396TIP3   OH246602   4.735   2.446   5.693  0.3768 -0.4594 -0.0048
 8396TIP3    H146603   4.708   2.532   5.726  0.4299 -0.1180 -0.8265
 8396TIP3    H246604   4.820   2.462   5.651 -0.0379 -0.7159 -0.9719
 8397TIP3   OH246605   6.641   0.979   0.851 -0.2167 -0.2999  0.6033
 8397TIP3    H146606   6.716   0.921   0.843 -1.2654 -1.6837  0.2577
 8397TIP3    H246607   6.653   1.044   0.782  1.6707  0.7785  1.8654
 8398TIP3   OH246608   1.469   5.445  14.641  0.3929  0.3921 -0.1051
 8398TIP3    H146609   1.436   5.409  14.723  0.0021 -0.0297 -0.4380
 8398TIP3    H246610   1.394   5.494  14.606 -1.1412 -3.2102 -2.4642
 8399TIP3   OH246611   6.547   1.535  14.253  0.0367  0.2552  0.5192
 8399TIP3    H146612   6.600   1.555  14.330 -1.4758 -1.2756  2.0591
 8399TIP3    H246613   6.582   1.591  14.184 -0.0492  3.5173  2.8753
 8400TIP3   OH246614   3.463   2.166   4.698  0.4414 -0.1959  0.2329
 8400TIP3    H146615   3.373   2.138   4.687  0.1767  0.7391 -0.0707
 8400TIP3    H246616   3.481   2.156   4.791 -0.6078  1.4057  0.6447
 8401TIP3   OH246617   4.582   6.606   2.797  0.1778 -0.3947  0.5879
 8401TIP3    H146618   4.674   6.601   2.824  0.5623 -2.1830 -0.8379
 8401TIP3    H246619   4.581   6.572   2.707 -2.1513 -2.7863  1.3522
 8402TIP3   OH246620   6.431   4.202   5.238 -0.1189  0.1621  0.5087
 8402TIP3    H146621   6.474   4.181   5.321 -1.0073 -2.4194  0.4389
 8402TIP3    H246622   6.501   4.228   5.180  0.8244 -0.1069  1.4929
 8403TIP3   OH246623   3.198   4.792   2.076  0.1680  0.5482  0.1332
 8403TIP3    H146624   3.145   4.752   2.145  0.9496  1.0801  1.0754
 8403TIP3    H246625   3.235   4.718   2.027  0.3504  0.1374  0.8796
 8404TIP3   OH246626   1.189   1.076  12.631 -0.1794  0.1289 -0.3452
 8404TIP3    H146627   1.101   1.108  12.615 -0.5583 -0.7161  0.0012
 8404TIP3    H246628   1.245   1.131  12.576 -0.9780  0.2828 -1.0192
 8405TIP3   OH246629   1.390   2.429  13.611  0.0897  0.2571  0.1057
 8405TIP3    H146630   1.474   2.415  13.654  0.2477 -0.6299 -0.4673
 8405TIP3    H246631   1.325   2.404  13.677  0.2741  0.5625  0.4107
 8406TIP3   OH246632   1.789   5.772  15.698 -0.2285 -0.2873  0.3967
 8406TIP3    H146633   1.778   5.807  15.786 -1.4541 -0.1013  0.1796
 8406TIP3    H246634   1.882   5.786  15.678  0.1511 -0.6934  1.7996
 8407TIP3   OH246635   5.915   1.319  12.860 -0.5858  0.3355 -0.4194
 8407TIP3    H146636   5.913   1.413  12.880 -1.8397  0.0893  0.7100
 8407TIP3    H246637   5.829   1.287  12.884  0.2439 -1.3669  0.4916
 8408TIP3   OH246638   1.933   5.552  11.520  0.5591 -0.1734 -0.0870
 8408TIP3    H146639   1.870   5.545  11.592  1.0769  1.8835  0.6371
 8408TIP3    H246640   1.887   5.603  11.454 -0.2842 -2.8862 -1.7470
 8409TIP3   OH246641   1.861   0.410  12.502 -0.0819 -0.2820  0.2162
 8409TIP3    H146642   1.860   0.318  12.474 -1.2814  0.1021 -1.1108
 8409TIP3    H246643   1.897   0.407  12.591  0.7644 -1.9234 -0.1453
 8410TIP3   OH246644   0.255   2.632   5.414  0.2943 -0.2778  0.3533
 8410TIP3    H146645   0.284   2.582   5.338 -0.9221 -1.1056  0.4036
 8410TIP3    H246646   0.311   2.710   5.414 -0.5552  0.4292 -2.1704
 8411TIP3   OH246647   0.849   2.378   3.471 -0.1615 -0.6339 -0.4377
 8411TIP3    H146648   0.894   2.425   3.402  1.3542  0.8891  1.4819
 8411TIP3    H246649   0.901   2.299   3.484  1.3585  0.5238  0.9265
 8412TIP3   OH246650   4.946   1.767  16.551  0.1891 -0.0950  0.4202
 8412TIP3    H146651   5.037   1.793  16.564 -0.1078  1.1627  0.1200
 8412TIP3    H246652   4.921   1.725  16.632  1.0438 -0.4627  0.5006
 8413TIP3   OH246653   2.136   6.528   5.206  0.1582  0.4648  0.2563
 8413TIP3    H146654   2.186   6.609   5.197  1.9242 -0.6846 -0.8693
 8413TIP3    H246655   2.143   6.506   5.299  1.2061  0.6759  0.2377
 8414TIP3   OH246656   6.778   4.054   2.025  0.0533  0.2611  0.0094
 8414TIP3    H146657   6.713   4.058   1.956  1.3843 -1.2065 -1.4281
 8414TIP3    H246658   6.730   4.025   2.103 -0.9628 -1.2250 -1.1219
 8415TIP3   OH246659   6.261   1.734  13.047  0.0668  0.2912 -0.6429
 8415TIP3    H146660   6.342   1.776  13.020  1.3630 -1.3071  0.5853
 8415TIP3    H246661   6.262   1.648  13.004 -0.3576 -0.2306  0.3469
 8416TIP3   OH246662   5.603   3.046   3.563  0.9133 -0.3318  0.0140
 8416TIP3    H146663   5.647   3.049   3.648  2.2341 -0.9172 -0.6192
 8416TIP3    H246664   5.657   2.987   3.510 -0.4893 -0.8593 -0.9032
 8417TIP3   OH246665   6.035   3.500  15.770 -0.2427 -0.6970  0.2282
 8417TIP3    H146666   6.059   3.587  15.739  0.9438 -1.4254 -1.0064
 8417TIP3    H246667   5.945   3.509  15.800  0.4521  1.3984  1.9840
 8418TIP3   OH246668   3.927   6.241  11.110  0.1089 -0.1706 -0.1205
 8418TIP3    H146669   3.858   6.179  11.131  0.7269 -0.5258  0.9499
 8418TIP3    H246670   4.006   6.203  11.150  0.1695  2.2175  2.3236
 8419TIP3   OH246671   6.352   1.409   3.938  0.0177 -0.7865 -0.1958
 8419TIP3    H146672   6.267   1.451   3.943 -0.0559 -0.8193 -1.0481
 8419TIP3    H246673   6.410   1.476   3.902  0.1652 -1.0294 -0.4154
 8420TIP3   OH246674   2.469   3.232   1.623  0.2408 -0.1214 -0.2657
 8420TIP3    H146675   2.539   3.189   1.574 -0.3244  1.4030 -2.5254
 8420TIP3    H246676   2.509   3.312   1.657 -0.4603  0.9979 -1.9728
 8421TIP3   OH246677   5.657   2.566  15.209  0.8367  0.8037  0.2678
 8421TIP3    H146678   5.613   2.503  15.266 -2.2419  2.9306  0.4806
 8421TIP3    H246679   5.637   2.535  15.120  2.8677 -0.6900  0.2552
 8422TIP3   OH246680   0.824   2.925  11.912 -0.1173  0.0094  0.3039
 8422TIP3    H146681   0.774   2.989  11.962  0.9959  0.0021  1.4946
 8422TIP3    H246682   0.797   2.840  11.949  2.1304  0.0959  2.3587
 8423TIP3   OH246683   3.918   3.091  11.431  0.2074  0.2989 -0.3513
 8423TIP3    H146684   4.003   3.110  11.392  0.3961 -0.1635 -0.1746
 8423TIP3    H246685   3.921   2.997  11.449  0.0600  0.4717  0.6050
 8424TIP3   OH246686   3.973   1.448   1.264  0.6020 -0.7861 -0.0810
 8424TIP3    H146687   3.957   1.528   1.314 -1.3507  0.0223 -1.8573
 8424TIP3    H246688   4.068   1.445   1.254  0.8021  0.6752  0.9918
 8425TIP3   OH246689   3.991   3.651  17.134  0.7629  0.4182  0.5659
 8425TIP3    H146690   3.975   3.557  17.124  0.6175  0.5170 -0.1560
 8425TIP3    H246691   3.934   3.677  17.206 -1.1742  0.4477 -0.9042
 8426TIP3   OH246692   3.540   1.293   0.603 -0.4492 -0.1617  0.3198
 8426TIP3    H146693   3.559   1.204   0.631 -1.2722 -1.0919 -1.8144
 8426TIP3    H246694   3.444   1.296   0.595 -0.4284  0.8645  0.2192
 8427TIP3   OH246695   4.207   4.974  13.067 -0.4661  0.2051  0.1855
 8427TIP3    H146696   4.164   4.888  13.063  0.4777 -0.2877  0.3907
 8427TIP3    H246697   4.157   5.022  13.132 -1.7403  0.2435 -0.7654
 8428TIP3   OH246698   5.559   5.676  11.943  0.3617 -0.3079 -0.1646
 8428TIP3    H146699   5.535   5.768  11.933 -0.4540 -0.6739 -1.9978
 8428TIP3    H246700   5.633   5.664  11.884  0.5148 -0.8241  0.1208
 8429TIP3   OH246701   3.702   6.637   0.681 -0.3915  0.5684  0.2505
 8429TIP3    H146702   3.773   6.578   0.659  0.6540  1.2945  1.5610
 8429TIP3    H246703   3.628   6.580   0.700  0.0601 -0.2270 -0.3467
 8430TIP3   OH246704   5.634   3.603  12.322 -0.1594  0.2585 -0.2198
 8430TIP3    H146705   5.575   3.542  12.278  0.0864  1.1408 -1.8735
 8430TIP3    H246706   5.611   3.597  12.414 -2.4981  0.2138 -0.7517
 8431TIP3   OH246707   0.274   2.704  12.274 -0.3210 -0.3471 -0.3527
 8431TIP3    H146708   0.200   2.725  12.216  0.1716  1.0289 -0.5115
 8431TIP3    H246709   0.281   2.779  12.332  1.5902  0.0137 -0.9926
 8432TIP3   OH246710   0.618   3.272  13.948  0.2295  0.5332 -0.1617
 8432TIP3    H146711   0.574   3.325  13.881 -1.1070 -0.0153  0.2602
 8432TIP3    H246712   0.549   3.218  13.986  1.5478 -1.5209 -0.5527
 8433TIP3   OH246713   3.089   0.311   2.330 -0.6441 -0.1466  0.3089
 8433TIP3    H146714   3.046   0.395   2.342 -1.2132 -0.4850  0.6935
 8433TIP3    H246715   3.181   0.332   2.318 -0.7280  0.5067  0.7921
 8434TIP3   OH246716   1.094   5.878  13.970  0.1710  0.0917  0.0854
 8434TIP3    H146717   1.109   5.937  13.896  0.4339  0.9877  0.8358
 8434TIP3    H246718   1.173   5.884  14.022 -0.4400  0.3091  1.0076
 8435TIP3   OH246719   0.922   4.689  11.113 -0.7522 -0.1750 -0.0953
 8435TIP3    H146720   0.888   4.692  11.024  1.7467  0.0155 -1.1315
 8435TIP3    H246721   0.871   4.754  11.161 -0.5622  1.4910 -2.0158
 8436TIP3   OH246722   1.789   3.330   4.696  0.0366 -0.6790  0.0097
 8436TIP3    H146723   1.874   3.324   4.653  0.4300  0.8787  0.4882
 8436TIP3    H246724   1.809   3.324   4.789 -0.1204  1.4034  0.2293
 8437TIP3   OH246725   6.617   6.762   2.573  0.0260  1.0752 -0.3616
 8437TIP3    H146726   6.680   6.763   2.646 -0.6778 -0.0078  0.2902
 8437TIP3    H246727   6.662   6.712   2.504 -0.2336 -0.0386  0.2435
 8438TIP3   OH246728   2.273   3.832   3.985  0.0948 -0.2284  0.4062
 8438TIP3    H146729   2.204   3.773   3.955 -0.0244  0.5860 -0.9898
 8438TIP3    H246730   2.284   3.895   3.914  2.6631 -0.6752  0.3164
 8439TIP3   OH246731   1.773   2.999  15.605 -0.2496  0.3456  0.2709
 8439TIP3    H146732   1.861   2.960  15.607 -0.5307 -0.2926  0.5876
 8439TIP3    H246733   1.723   2.948  15.669 -1.6213 -1.1795 -1.8851
 8440TIP3   OH246734   5.627   6.193  15.672  0.1489  0.4896  0.3893
 8440TIP3    H146735   5.672   6.225  15.595  0.2197  1.0954  0.6817
 8440TIP3    H246736   5.628   6.097  15.662  1.2852  0.5027  0.2871
 8441TIP3   OH246737   1.304   0.960  13.267  0.0018  0.2810  0.1795
 8441TIP3    H146738   1.290   0.916  13.183 -3.8065  0.1793  0.6955
 8441TIP3    H246739   1.388   1.005  13.256  0.5614 -1.2116 -2.9778
 8442TIP3   OH246740   3.802   6.375  10.898  0.3619  0.1042  0.0238
 8442TIP3    H146741   3.838   6.329  10.973 -0.8524  1.8245  1.7816
 8442TIP3    H246742   3.878   6.401  10.846  1.3022 -0.2148  1.2102
 8443TIP3   OH246743   4.502   1.433  13.514 -0.6822  0.3494 -0.6295
 8443TIP3    H146744   4.566   1.461  13.580 -0.9854 -1.3225  0.4479
 8443TIP3    H246745   4.550   1.434  13.432  0.2457  0.7141 -0.1016
 8444TIP3   OH246746   1.472   3.301  12.118 -0.0923 -0.4542 -0.0729
 8444TIP3    H146747   1.443   3.236  12.181 -0.1117 -0.9745 -0.6105
 8444TIP3    H246748   1.521   3.365  12.170 -0.4181 -0.6788  0.5164
 8445TIP3   OH246749   3.961   6.396  12.526 -0.1703 -0.3400  0.4007
 8445TIP3    H146750   4.022   6.343  12.577  0.2454 -0.5349 -0.2865
 8445TIP3    H246751   3.944   6.344  12.447  0.3477  0.6019 -0.3504
 8446TIP3   OH246752   4.769   2.668   2.038 -0.0156  0.4959  0.0859
 8446TIP3    H146753   4.686   2.647   1.995 -0.4585  0.9780  0.6926
 8446TIP3    H246754   4.763   2.761   2.058  0.0563  0.2397  1.4134
 8447TIP3   OH246755   5.647   5.157   4.155  0.3566 -0.5247  0.0020
 8447TIP3    H146756   5.698   5.142   4.234 -2.1000 -1.4421  1.5197
 8447TIP3    H246757   5.706   5.133   4.083  2.1077 -1.2674  1.6027
 8448TIP3   OH246758   4.645   5.697  10.451  0.1856  0.0009 -0.5461
 8448TIP3    H146759   4.671   5.619  10.403 -0.3804 -0.5851  0.0828
 8448TIP3    H246760   4.700   5.766  10.415  1.0253 -0.7744 -0.7927
 8449TIP3   OH246761   3.259   5.584  15.669 -0.1521 -0.3606  0.2286
 8449TIP3    H146762   3.311   5.662  15.650 -1.4825  0.3196 -0.7584
 8449TIP3    H246763   3.169   5.614  15.669 -0.6669 -1.8348  0.1792
 8450TIP3   OH246764   3.739   0.581   0.035 -0.4377  0.7531 -0.0287
 8450TIP3    H146765   3.720   0.636  -0.040 -0.8949  1.4550  0.5894
 8450TIP3    H246766   3.654   0.546   0.062 -0.5512  1.9252  1.2335
 8451TIP3   OH246767   2.286   5.704  15.656  0.1474 -0.6545 -0.1655
 8451TIP3    H146768   2.261   5.617  15.686 -0.8484  0.1586  1.5140
 8451TIP3    H246769   2.380   5.697  15.637 -0.1574 -2.3751 -1.2801
 8452TIP3   OH246770   1.412   2.547  11.358 -0.4544  0.5391 -0.0000
 8452TIP3    H146771   1.472   2.487  11.314 -1.8809 -2.3584  1.6845
 8452TIP3    H246772   1.327   2.528  11.319 -1.0921  0.8056  1.2140
 8453TIP3   OH246773   0.599   1.215  13.392  0.0468  0.1308 -0.2263
 8453TIP3    H146774   0.553   1.298  13.381 -0.0771  0.2318  0.9053
 8453TIP3    H246775   0.542   1.150  13.353  0.9156  0.7426 -2.7028
 8454TIP3   OH246776   2.189   0.569  11.610 -0.0443 -0.6307 -0.0364
 8454TIP3    H146777   2.256   0.500  11.609  1.4657  0.7712  0.3876
 8454TIP3    H246778   2.220   0.631  11.676 -0.7119  1.0817 -1.2752
 8455TIP3   OH246779   4.503   3.225   1.314  0.3671  0.3418 -0.6146
 8455TIP3    H146780   4.565   3.298   1.309  1.0064 -0.0155  1.2602
 8455TIP3    H246781   4.426   3.262   1.357  0.1359  0.2505 -0.9475
 8456TIP3   OH246782   5.826   0.094   2.080  0.3230  0.5039 -0.1600
 8456TIP3    H146783   5.904   0.067   2.129 -0.3884 -1.5910 -0.0967
 8456TIP3    H246784   5.827   0.039   2.001 -0.9250  0.6595 -0.3012
 8457TIP3   OH246785   3.897   0.227  13.582 -0.4530 -0.2363  0.0604
 8457TIP3    H146786   3.924   0.302  13.528 -0.9981  0.7672  1.1299
 8457TIP3    H246787   3.979   0.188  13.611 -0.0715  1.4731  1.5058
 8458TIP3   OH246788   3.697   0.175  12.379 -0.6773  0.1279  0.5775
 8458TIP3    H146789   3.767   0.191  12.316 -1.0553 -0.4070  0.0035
 8458TIP3    H246790   3.619   0.164  12.325 -1.6649  2.8448  1.2995
 8459TIP3   OH246791   4.312   1.143   0.999  0.1603 -0.0502 -0.1123
 8459TIP3    H146792   4.239   1.087   1.024  1.0114 -1.0908  0.1181
 8459TIP3    H246793   4.359   1.093   0.932  0.9275  0.3870  0.0798
 8460TIP3   OH246794   3.657   1.128   5.347 -0.8048 -0.0803  0.0540
 8460TIP3    H146795   3.577   1.180   5.334 -1.2680 -0.8139 -0.0959
 8460TIP3    H246796   3.626   1.048   5.390 -0.1450 -0.3787 -0.0204
 8461TIP3   OH246797   1.645   0.905  14.373  0.2553 -0.4504 -0.4462
 8461TIP3    H146798   1.712   0.838  14.388 -1.1396 -1.7545  0.2439
 8461TIP3    H246799   1.591   0.869  14.304  1.6442  1.7257 -2.8271
 8462TIP3   OH246800   0.083   5.738  13.038 -0.1903 -0.8204 -0.0213
 8462TIP3    H146801   0.133   5.752  13.119  3.5335 -0.1818 -2.1812
 8462TIP3    H246802   0.045   5.651  13.048  0.1981 -0.7799  2.3508
 8463TIP3   OH246803   0.586   1.889  15.772  0.7240  0.2311 -0.4821
 8463TIP3    H146804   0.563   1.977  15.740  0.2459  0.3298  0.1030
 8463TIP3    H246805   0.570   1.894  15.866  2.7445  0.1486 -0.0989
 8464TIP3   OH246806   1.168   5.445  16.685  0.3218 -0.0275  0.5099
 8464TIP3    H146807   1.220   5.473  16.760  1.0501 -0.3935  0.1449
 8464TIP3    H246808   1.170   5.518  16.624  0.5177 -0.0938  0.4386
 8465TIP3   OH246809   0.841   4.530   3.403  0.3316  0.5793  0.6102
 8465TIP3    H146810   0.899   4.505   3.331  0.4187  0.9758  0.5389
 8465TIP3    H246811   0.849   4.625   3.408 -0.4467  0.6585  0.4891
 8466TIP3   OH246812   5.842   5.866  14.398  0.1662  0.6143 -0.1202
 8466TIP3    H146813   5.809   5.954  14.383  0.5653  0.9374  0.7873
 8466TIP3    H246814   5.911   5.877  14.464 -0.1641 -0.4385  0.4392
 8467TIP3   OH246815   4.573   0.702  15.786  0.0285  0.2434 -0.3243
 8467TIP3    H146816   4.494   0.733  15.830  0.3097  1.8780 -0.8887
 8467TIP3    H246817   4.637   0.772  15.801  0.9784 -0.4863 -0.9191
 8468TIP3   OH246818   5.344   6.600  12.849 -0.2310 -0.2746  0.2330
 8468TIP3    H146819   5.274   6.659  12.822  0.4213  1.0769  1.3954
 8468TIP3    H246820   5.383   6.570  12.767  0.9345  2.7671 -0.4464
 8469TIP3   OH246821   2.554   5.697  15.219  0.8685 -0.4693 -0.2002
 8469TIP3    H146822   2.540   5.765  15.284  0.5059 -0.5337 -0.2040
 8469TIP3    H246823   2.466   5.681  15.182  0.9481 -0.9231 -0.2088
 8470TIP3   OH246824   4.133   4.965   5.318 -0.0222  0.3159 -0.3273
 8470TIP3    H146825   4.174   4.957   5.405  0.4149  2.2334 -0.3106
 8470TIP3    H246826   4.117   4.875   5.291 -0.1237 -0.3405  1.7260
 8471TIP3   OH246827   5.296   5.004  10.508  0.0450  0.2572 -0.2504
 8471TIP3    H146828   5.248   5.062  10.567 -0.0212  1.4848 -1.4498
 8471TIP3    H246829   5.233   4.936  10.484 -0.2207  0.2875  0.3596
 8472TIP3   OH246830   5.125   2.113   1.162 -0.0725 -0.0690  0.4306
 8472TIP3    H146831   5.137   2.106   1.257 -0.1928  1.2550  0.5716
 8472TIP3    H246832   5.050   2.058   1.143 -0.1628 -0.2042  1.1347
 8473TIP3   OH246833   1.349   1.201  11.582  0.6109  0.4890  0.2469
 8473TIP3    H146834   1.304   1.120  11.559  2.2936 -0.0789 -1.2276
 8473TIP3    H246835   1.329   1.214  11.675  2.0214 -2.8349  1.1613
 8474TIP3   OH246836   3.269   0.311  10.529 -0.0505 -0.2211 -0.4291
 8474TIP3    H146837   3.221   0.236  10.564 -0.0911 -0.1673 -0.3693
 8474TIP3    H246838   3.358   0.278  10.516 -0.1234 -0.3441 -0.6199
 8475TIP3   OH246839   6.576   2.555  14.571  0.6636  0.5017 -0.4794
 8475TIP3    H146840   6.578   2.525  14.662  1.2110  1.1086 -0.2823
 8475TIP3    H246841   6.494   2.603  14.564  0.5650  0.3556 -0.3320
 8476TIP3   OH246842   6.579   2.915  12.737  0.3556  0.4549  0.5201
 8476TIP3    H146843   6.560   2.853  12.807  0.5031 -1.2521 -0.8842
 8476TIP3    H246844   6.504   2.909  12.678 -0.2924  2.6853  1.0084
 8477TIP3   OH246845   0.541   6.161  11.908  0.2822  0.2417  0.6093
 8477TIP3    H146846   0.472   6.142  11.972 -0.0718  0.6948  0.3625
 8477TIP3    H246847   0.618   6.177  11.962  0.2576 -0.4784  0.8801
 8478TIP3   OH246848   1.379   0.537  16.145  0.1556 -0.0233  0.5077
 8478TIP3    H146849   1.330   0.618  16.156 -2.3719 -1.3089 -0.5040
 8478TIP3    H246850   1.416   0.520  16.232  0.2246  1.8532  0.8839
 8479TIP3   OH246851   0.581   3.053  15.508 -0.1727  0.2578  0.1142
 8479TIP3    H146852   0.608   3.073  15.598  1.4036  0.7774 -0.4377
 8479TIP3    H246853   0.584   3.137  15.463  0.5298 -0.2190 -0.7654
 8480TIP3   OH246854   5.497   0.912   2.897 -0.0406 -0.1055  0.5321
 8480TIP3    H146855   5.539   0.866   2.825  0.3926  2.0718 -0.6968
 8480TIP3    H246856   5.457   0.843   2.950 -0.4584 -1.7771 -1.8175
 8481TIP3   OH246857   6.588   4.164   5.499 -0.2068  0.3076 -0.4328
 8481TIP3    H146858   6.620   4.081   5.462  0.4555  0.7697 -0.9170
 8481TIP3    H246859   6.519   4.137   5.560  0.3322 -0.6371 -0.2072
 8482TIP3   OH246860   2.803   3.753   0.882  0.3631  0.3439  0.1421
 8482TIP3    H146861   2.817   3.667   0.843  1.5392  0.0942  1.0506
 8482TIP3    H246862   2.891   3.786   0.900 -0.0579  1.7918 -0.2688
 8483TIP3   OH246863   6.493   6.232  14.354 -0.4832  0.1179 -0.4315
 8483TIP3    H146864   6.422   6.232  14.290  0.1592  0.2441 -1.1623
 8483TIP3    H246865   6.479   6.154  14.407 -3.1054  1.8271  1.6526
 8484TIP3   OH246866   0.454   1.377  15.479  0.4550  0.0951 -0.1698
 8484TIP3    H146867   0.443   1.288  15.446  1.4491  0.2354 -0.9001
 8484TIP3    H246868   0.366   1.415  15.474 -0.1087 -1.0193  0.7253
 8485TIP3   OH246869   4.383   4.721   3.244  0.6027 -0.4113 -0.1985
 8485TIP3    H146870   4.360   4.743   3.334  1.1184  0.2844 -0.2268
 8485TIP3    H246871   4.380   4.805   3.198  0.1104 -0.7944 -0.8862
 8486TIP3   OH246872   1.991   3.586  16.204  0.5732  0.0529  0.1296
 8486TIP3    H146873   2.072   3.619  16.166  1.7309 -1.7095  0.9421
 8486TIP3    H246874   1.955   3.528  16.136  1.1214 -0.8078  0.5529
 8487TIP3   OH246875   2.033   6.326   1.880  0.1647 -0.2639  0.3030
 8487TIP3    H146876   2.110   6.293   1.834 -0.5284  0.0071 -1.1066
 8487TIP3    H246877   1.968   6.256   1.874 -0.0311 -0.1127  0.6121
 8488TIP3   OH246878   1.582   1.178  11.369 -0.0595 -0.6597 -0.0186
 8488TIP3    H146879   1.615   1.243  11.431 -1.7384  1.0745 -0.8268
 8488TIP3    H246880   1.509   1.136  11.416  0.2411 -1.0974  0.0596
 8489TIP3   OH246881   3.484   2.603   4.436 -0.2302  0.2300  0.0370
 8489TIP3    H146882   3.389   2.612   4.443 -0.1538  1.8044 -0.4604
 8489TIP3    H246883   3.518   2.655   4.508  0.2904 -2.9302  2.2792
 8490TIP3   OH246884   1.783   5.394   0.407 -0.3814  0.0670 -0.1480
 8490TIP3    H146885   1.708   5.418   0.461  0.3599 -0.7814  1.2960
 8490TIP3    H246886   1.784   5.299   0.408  0.9459  0.0778  0.1605
 8491TIP3   OH246887   6.006   0.385   0.168  0.1464 -0.1438 -0.3811
 8491TIP3    H146888   5.956   0.453   0.122 -0.0427  0.5409  0.7859
 8491TIP3    H246889   5.978   0.303   0.128 -0.4126  0.3880 -1.1065
 8492TIP3   OH246890   1.180   3.225   1.657  0.5472 -0.1016  0.3908
 8492TIP3    H146891   1.210   3.312   1.683  2.8528 -0.9724  0.8698
 8492TIP3    H246892   1.159   3.233   1.564  0.5923  0.9955  0.4670
 8493TIP3   OH246893   3.279   1.642   4.144 -0.5572  0.3230 -0.3832
 8493TIP3    H146894   3.270   1.547   4.132  1.3602 -0.3419  2.4813
 8493TIP3    H246895   3.332   1.671   4.071  0.4907 -1.1949 -0.2676
 8494TIP3   OH246896   2.974   4.420  11.549  0.5688 -0.4258 -0.3136
 8494TIP3    H146897   2.899   4.477  11.567 -0.6507 -2.7706  2.9658
 8494TIP3    H246898   3.039   4.478  11.510 -1.8218  2.3777 -0.4760
 8495TIP3   OH246899   0.004   5.604   0.107  0.3662  0.4740  0.4223
 8495TIP3    H146900   0.027   5.697   0.108  0.5370  0.4248  1.0485
 8495TIP3    H246901  -0.057   5.596   0.033  0.0260  1.1561  0.6191
 8496TIP3   OH246902   0.657   6.643   6.159  0.2754  0.2012  0.0166
 8496TIP3    H146903   0.685   6.552   6.151 -0.2428  0.1081 -0.9020
 8496TIP3    H246904   0.565   6.637   6.185  0.3047  0.4704  0.1860
 8497TIP3   OH246905   6.124   3.383  13.004  0.3249  0.3022  0.0634
 8497TIP3    H146906   6.038   3.374  12.961 -0.0914  0.0078  0.9249
 8497TIP3    H246907   6.187   3.371  12.933 -0.3417  0.7306 -0.6280
 8498TIP3   OH246908   4.225   3.213   4.802  0.6172 -0.2084  0.0552
 8498TIP3    H146909   4.248   3.282   4.739 -1.0880 -0.6675 -1.1535
 8498TIP3    H246910   4.227   3.257   4.887  1.7441  0.7598 -0.4426
 8499TIP3   OH246911   4.290   2.381   4.352 -0.2024  0.1052 -0.1044
 8499TIP3    H146912   4.279   2.454   4.291  1.0831 -0.6151 -1.2739
 8499TIP3    H246913   4.384   2.380   4.370 -0.4884 -0.0421  1.4944
 8500TIP3   OH246914   0.308   4.075   3.723 -0.7101  0.0651 -0.8267
 8500TIP3    H146915   0.305   4.009   3.654 -0.8363  0.5456 -1.2900
 8500TIP3    H246916   0.298   4.159   3.677  4.3895  0.8890 -0.9361
 8501TIP3   OH246917   0.701   1.641   3.549  0.5645  0.2615 -0.3237
 8501TIP3    H146918   0.749   1.635   3.631 -0.0068  1.9256  0.1958
 8501TIP3    H246919   0.632   1.706   3.567 -1.1732 -1.1816 -1.3636
 8502TIP3   OH246920   0.694   5.402   2.429  0.1847  0.4413 -0.0773
 8502TIP3    H146921   0.734   5.464   2.368  0.2104 -0.4096 -0.9494
 8502TIP3    H246922   0.640   5.345   2.374 -0.2951  0.0403  0.7775
 8503TIP3   OH246923   1.793   5.239  13.162 -0.2878  0.0959  0.3919
 8503TIP3    H146924   1.825   5.291  13.237  0.8238  0.4728 -0.3107
 8503TIP3    H246925   1.763   5.304  13.099 -0.8241 -0.2068  0.3330
 8504TIP3   OH246926   6.337   0.858  11.604  0.3307  0.5422 -0.5212
 8504TIP3    H146927   6.359   0.786  11.663 -1.5501 -0.7201 -1.2664
 8504TIP3    H246928   6.377   0.833  11.520  0.5397  0.8927 -0.5294
 8505TIP3   OH246929   2.811   3.576   2.521  0.0658 -0.1041  0.1662
 8505TIP3    H146930   2.777   3.514   2.586 -0.3954 -0.6315 -0.5678
 8505TIP3    H246931   2.739   3.587   2.459 -0.0362  1.5404  0.5314
 8506TIP3   OH246932   2.046   4.729  13.911  0.1482  0.0191 -0.1909
 8506TIP3    H146933   2.053   4.791  13.838  0.6250  1.0995  0.7444
 8506TIP3    H246934   1.962   4.685  13.897  0.0691  0.4575 -1.1843
 8507TIP3   OH246935   5.900   3.391   0.819 -0.0632  0.8388  0.8473
 8507TIP3    H146936   5.977   3.338   0.798 -2.1723 -1.7074 -1.3065
 8507TIP3    H246937   5.927   3.481   0.799  1.5309 -0.2599 -2.8946
 8508TIP3   OH246938   2.096   6.582  11.890 -0.3638  0.3322 -0.0949
 8508TIP3    H146939   2.189   6.605  11.891  0.5716 -2.2286 -4.2681
 8508TIP3    H246940   2.053   6.655  11.847 -0.0815  0.8579  0.4945
 8509TIP3   OH246941   6.067   2.630  16.506 -0.2329 -0.1360 -0.0951
 8509TIP3    H146942   6.087   2.586  16.423 -1.0007 -0.1457 -0.2830
 8509TIP3    H246943   6.067   2.723  16.484  0.5666 -0.0761  0.1208
 8510TIP3   OH246944   5.532   6.165  16.668  0.0681  0.0434  0.3366
 8510TIP3    H146945   5.517   6.170  16.763 -0.2862  0.6649  0.2582
 8510TIP3    H246946   5.627   6.178  16.659 -0.1090  1.8214  0.5224
 8511TIP3   OH246947   2.347   4.998  16.803  0.4742  0.1157 -0.4930
 8511TIP3    H146948   2.279   4.943  16.765  0.5993  0.2585 -0.9281
 8511TIP3    H246949   2.389   4.942  16.868 -1.5368  0.7284  1.4688
 8512TIP3   OH246950   0.058   1.844  16.497  0.0793  0.0816  0.0193
 8512TIP3    H146951  -0.012   1.899  16.462 -0.9740 -1.3186 -0.1375
 8512TIP3    H246952   0.068   1.774  16.432  1.2433 -0.0534  0.3221
 8513TIP3   OH246953   5.242   5.317  16.832  0.7628  0.3636 -0.4812
 8513TIP3    H146954   5.244   5.300  16.926 -1.7635  0.6011 -0.3119
 8513TIP3    H246955   5.264   5.410  16.824 -1.9754  1.1812  0.2680
 8514TIP3   OH246956   2.006   5.282   5.581  0.2035 -0.7942  0.0447
 8514TIP3    H146957   1.997   5.296   5.487 -0.8681 -0.8173  0.1344
 8514TIP3    H246958   2.033   5.367   5.615 -1.0193 -0.3437 -0.0828
 8515TIP3   OH246959   4.211   0.300  13.910 -0.0719  0.7278 -0.8007
 8515TIP3    H146960   4.149   0.325  13.979  0.3892 -0.7540  0.2018
 8515TIP3    H246961   4.263   0.378  13.896 -0.0237  1.0122  0.7287
 8516TIP3   OH246962   0.586   4.677   0.660 -0.2700 -0.1584 -0.1177
 8516TIP3    H146963   0.668   4.722   0.682  0.5581 -2.6153  2.4476
 8516TIP3    H246964   0.525   4.748   0.639  2.2439  1.8137 -1.3272
 8517TIP3   OH246965   2.603   1.139  13.526 -0.3514  0.2074  0.0455
 8517TIP3    H146966   2.667   1.114  13.592  0.1611  0.4475 -0.3558
 8517TIP3    H246967   2.573   1.056  13.489  1.6624  0.1463 -1.5922
 8518TIP3   OH246968   3.793   3.534  14.886 -0.1193  0.0138  0.7898
 8518TIP3    H146969   3.792   3.575  14.799 -0.4853 -0.9370  0.3379
 8518TIP3    H246970   3.885   3.513  14.901 -0.0888 -0.0374  0.5347
 8519TIP3   OH246971   5.552   1.085  12.418  0.0974 -0.1607  0.3674
 8519TIP3    H146972   5.537   1.111  12.327  1.3084  1.4810  0.5909
 8519TIP3    H246973   5.645   1.066  12.422 -0.1670 -1.4129  1.0135
 8520TIP3   OH246974   3.942   5.599   2.116  0.5292 -0.4560 -0.4444
 8520TIP3    H146975   3.997   5.677   2.114  1.2819 -0.9930 -1.6403
 8520TIP3    H246976   3.871   5.618   2.055  0.1903 -0.3303 -0.0098
 8521TIP3   OH246977   3.285   2.653   5.090  0.3932 -0.4025  0.5312
 8521TIP3    H146978   3.207   2.601   5.070  1.8175 -1.7529 -2.0041
 8521TIP3    H246979   3.325   2.609   5.165 -0.9512  0.0049  1.5321
 8522TIP3   OH246980   6.569   4.327  16.657  0.7745  0.5201 -0.3004
 8522TIP3    H146981   6.603   4.315  16.569 -0.3780  2.8508 -1.1512
 8522TIP3    H246982   6.478   4.354  16.644 -0.0536 -1.0566  1.7023
 8523TIP3   OH246983   2.017   3.368   4.426  0.1580  0.2912 -0.0266
 8523TIP3    H146984   2.019   3.325   4.341  0.9366 -0.7032  0.4747
 8523TIP3    H246985   2.109   3.379   4.450 -0.0510  0.1768  0.8707
 8524TIP3   OH246986   0.987   0.577   1.196  0.4306 -0.1572  0.4005
 8524TIP3    H146987   0.906   0.557   1.149  0.5191  1.6598 -0.6160
 8524TIP3    H246988   1.049   0.511   1.166 -0.6962 -1.8049  1.4565
 8525TIP3   OH246989   5.464   0.129  10.580  0.0753  0.4531 -0.2179
 8525TIP3    H146990   5.486   0.205  10.525 -0.3549  2.1142  1.7840
 8525TIP3    H246991   5.371   0.140  10.600 -0.1826 -1.0364 -0.4685
 8526TIP3   OH246992   5.930   3.390   6.123  0.4222  0.5682  0.3166
 8526TIP3    H146993   6.001   3.454   6.131  0.1337  0.9118  0.1850
 8526TIP3    H246994   5.949   3.342   6.043 -1.2634  2.9382 -1.6820
 8527TIP3   OH246995   2.081   4.099  12.821 -0.6678 -0.2335 -0.1073
 8527TIP3    H146996   2.014   4.033  12.803 -1.1350 -0.1767  1.2464
 8527TIP3    H246997   2.033   4.170  12.864 -0.0050  0.5482 -0.6259
 8528TIP3   OH246998   4.767   0.349   1.072  0.1695  0.6925 -0.5194
 8528TIP3    H146999   4.845   0.366   1.124  0.1394 -1.4525  0.3295
 8528TIP3    H247000   4.704   0.312   1.135 -1.0308  1.0657 -1.4629
 8529TIP3   OH247001   4.614   6.009   2.128 -0.3095 -0.8473 -0.4697
 8529TIP3    H147002   4.692   5.998   2.182 -1.0088  2.0890  1.4072
 8529TIP3    H247003   4.634   6.086   2.074 -1.7880 -0.1663 -0.0875
 8530TIP3   OH247004   3.451   3.885  16.318  0.2827  0.5534 -0.0342
 8530TIP3    H147005   3.422   3.882  16.227 -1.7027 -0.4043  0.5775
 8530TIP3    H247006   3.427   3.799  16.353 -2.3744  2.1222  2.3444
 8531TIP3   OH247007   5.250   0.502  15.752  0.1934 -0.0512 -0.2262
 8531TIP3    H147008   5.290   0.465  15.673  1.3836 -1.3930  0.9373
 8531TIP3    H247009   5.187   0.435  15.780 -0.0189  0.2894  0.1138
 8532TIP3   OH247010   1.553   5.091  16.839  0.5486  0.1386 -0.0858
 8532TIP3    H147011   1.573   5.149  16.766  0.7897 -0.4880 -0.5230
 8532TIP3    H247012   1.489   5.029  16.803  0.0614  0.3175  0.4628
 8533TIP3   OH247013   1.678   1.109   5.348  0.2063  0.1193  0.7319
 8533TIP3    H147014   1.766   1.143   5.330  0.6856 -0.5759  1.6849
 8533TIP3    H247015   1.687   1.014   5.338 -0.7904  0.1394 -0.5624
 8534TIP3   OH247016   1.216   5.682  11.416 -0.0167 -0.7256  0.0784
 8534TIP3    H147017   1.190   5.643  11.500  0.5916  1.8587  1.6050
 8534TIP3    H247018   1.224   5.608  11.356 -2.2676 -2.5070  1.7927
 8535TIP3   OH247019   1.884   3.558   4.920 -0.1653  0.7178 -0.5809
 8535TIP3    H147020   1.855   3.597   4.837 -1.1715 -0.7486 -0.9400
 8535TIP3    H247021   1.810   3.568   4.979 -0.3001 -0.3053 -0.5654
 8536TIP3   OH247022   1.400   3.552   0.404 -0.4189 -0.2427 -0.0829
 8536TIP3    H147023   1.450   3.502   0.340 -1.7209  0.8293 -2.0246
 8536TIP3    H247024   1.311   3.556   0.369 -0.8612  1.5299  1.0872
 8537TIP3   OH247025   6.107   5.818   4.823  0.1388  0.1409  0.0847
 8537TIP3    H147026   6.146   5.840   4.739 -1.0446 -0.8341 -0.7631
 8537TIP3    H247027   6.025   5.867   4.825 -0.1563 -0.3513  0.3592
 8538TIP3   OH247028   0.741   4.688  11.460  0.2838  1.0834  0.8830
 8538TIP3    H147029   0.776   4.600  11.445 -0.5248  0.9693 -0.5235
 8538TIP3    H247030   0.646   4.676  11.461  0.1599  1.9764  0.3783
 8539TIP3   OH247031   3.704   2.546  14.545  0.7268 -0.2371 -0.1105
 8539TIP3    H147032   3.612   2.535  14.522  0.2159  0.1869  1.6054
 8539TIP3    H247033   3.727   2.467  14.594  0.6619  0.5682  1.2589
 8540TIP3   OH247034   6.185   5.281  11.028 -0.0620  1.0073 -0.0082
 8540TIP3    H147035   6.172   5.375  11.025  0.1712  1.0148 -2.6756
 8540TIP3    H247036   6.136   5.247  10.954  0.1247 -0.9603  0.7041
 8541TIP3   OH247037   1.626   5.928   0.783  0.0890  0.6759 -0.3245
 8541TIP3    H147038   1.531   5.917   0.780  0.0294  0.5377  1.3889
 8541TIP3    H247039   1.661   5.849   0.743 -0.5107  0.8292 -1.1747
 8542TIP3   OH247040   5.500   1.641  10.786 -0.2616  0.5005 -0.0864
 8542TIP3    H147041   5.558   1.679  10.720 -0.5746 -0.0691 -0.6943
 8542TIP3    H247042   5.468   1.560  10.747 -0.6293  0.2645  0.6771
 8543TIP3   OH247043   2.126   0.100   3.145 -0.0448 -0.7635  0.3460
 8543TIP3    H147044   2.072   0.027   3.175 -0.7626 -0.5776 -0.4581
 8543TIP3    H247045   2.115   0.101   3.050  0.4723 -0.0023  0.2826
 8544TIP3   OH247046   6.182   3.497  15.462 -0.4622 -0.2087 -0.4603
 8544TIP3    H147047   6.088   3.481  15.463 -0.2798 -1.5963 -1.5102
 8544TIP3    H247048   6.193   3.572  15.403 -1.0272  1.1876  1.1498
 8545TIP3   OH247049   6.190   2.120   6.134 -0.3375 -0.0117 -0.4802
 8545TIP3    H147050   6.285   2.125   6.134 -0.1954 -1.8494 -0.8302
 8545TIP3    H247051   6.166   2.099   6.224 -0.2610 -1.2611 -0.7381
 8546TIP3   OH247052   0.009   3.988  17.025  0.1379  0.2201 -0.2854
 8546TIP3    H147053   0.030   4.068  17.074 -1.1173  0.2998  0.1568
 8546TIP3    H247054   0.034   3.917  17.083  0.3154  0.2945 -0.2682
 8547TIP3   OH247055   2.379   2.057  13.826 -0.4092 -0.0568  0.4373
 8547TIP3    H147056   2.427   2.099  13.754 -0.3317 -0.7842  0.0527
 8547TIP3    H247057   2.406   1.965  13.822  1.7976  0.3327  3.1748
 8548TIP3   OH247058   1.627   2.101  16.461 -0.1049  0.6861 -0.6682
 8548TIP3    H147059   1.563   2.096  16.390 -0.5523  0.0604 -0.2314
 8548TIP3    H247060   1.663   2.012  16.467  0.9906  1.0842 -1.0683
 8549TIP3   OH247061   5.484   4.388   2.276  0.5212 -0.2083 -0.4299
 8549TIP3    H147062   5.453   4.317   2.219  0.9129 -0.8642  0.1666
 8549TIP3    H247063   5.568   4.358   2.309  0.4500  0.3081  0.2474
 8550TIP3   OH247064   3.953   3.284   4.905 -0.2454  0.2039 -0.6823
 8550TIP3    H147065   3.933   3.378   4.898  0.0022  0.2517 -0.7337
 8550TIP3    H247066   4.035   3.280   4.954  1.4901  0.1763 -3.4120
 8551TIP3   OH247067   4.532   6.615  11.414  0.8110  0.3508 -0.0910
 8551TIP3    H147068   4.461   6.649  11.469 -0.3966 -2.0981 -0.0024
 8551TIP3    H247069   4.605   6.602  11.474 -0.5783 -2.5618  1.1528
 8552TIP3   OH247070   3.101   6.212   5.287  0.7240 -0.2212  0.5538
 8552TIP3    H147071   3.011   6.204   5.255  1.1116  0.4417 -0.7373
 8552TIP3    H247072   3.102   6.159   5.367 -0.4552 -1.3600 -0.1440
 8553TIP3   OH247073   2.717   3.542  16.863 -0.1458  0.1708  0.7246
 8553TIP3    H147074   2.733   3.460  16.911  0.2995  0.3396  0.8630
 8553TIP3    H247075   2.802   3.565  16.826 -0.2782  0.5581  0.6600
 8554TIP3   OH247076   1.801   3.269   0.093 -0.1057  0.7441  0.1738
 8554TIP3    H147077   1.888   3.268   0.133  0.6728 -0.4825 -1.4171
 8554TIP3    H247078   1.785   3.361   0.072  1.5219  0.8265 -0.9037
 8555TIP3   OH247079   6.497   3.533  12.152 -0.7693 -0.4961  0.8443
 8555TIP3    H147080   6.419   3.559  12.200 -0.7737 -0.1918  0.6699
 8555TIP3    H247081   6.570   3.552  12.211 -0.9103 -2.0809  1.5761
 8556TIP3   OH247082   0.826   3.900   0.170 -0.1523 -0.3738  0.3813
 8556TIP3    H147083   0.805   3.941   0.255  3.3203  0.0883  1.1876
 8556TIP3    H247084   0.825   3.806   0.187 -1.2564 -0.3563  0.4321
 8557TIP3   OH247085   5.426   1.439   3.259  0.1904  1.0966 -0.5899
 8557TIP3    H147086   5.399   1.369   3.199 -0.4104  1.3931 -0.6764
 8557TIP3    H247087   5.482   1.395   3.323  1.1340  0.8300 -1.5559
 8558TIP3   OH247088   3.304   1.048   1.961  0.0080 -0.2105  0.4273
 8558TIP3    H147089   3.331   0.956   1.961 -0.5620 -0.3808  0.6991
 8558TIP3    H247090   3.339   1.083   2.043 -0.2487 -0.3277  0.5871
 8559TIP3   OH247091   1.449   6.758  11.853 -0.3610 -0.4837 -0.1683
 8559TIP3    H147092   1.474   6.674  11.816  0.1110 -0.8733  0.9933
 8559TIP3    H247093   1.439   6.741  11.947 -2.1926  0.3113 -0.1850
 8560TIP3   OH247094   6.239   4.103  11.461 -0.8682 -0.2647 -0.5629
 8560TIP3    H147095   6.197   4.184  11.434  0.8259  0.4886 -1.1137
 8560TIP3    H247096   6.283   4.125  11.544  0.8439 -0.1353 -1.4569
 8561TIP3   OH247097   5.722   5.777   2.129 -0.2528 -0.3342  0.1374
 8561TIP3    H147098   5.639   5.747   2.092  0.6328 -1.0298 -1.4170
 8561TIP3    H247099   5.729   5.732   2.213 -2.5541  1.6480  1.5132
 8562TIP3   OH247100   2.514   6.278   2.094 -0.0551 -0.2522 -0.2267
 8562TIP3    H147101   2.423   6.257   2.076 -0.1257  0.5312 -0.8282
 8562TIP3    H247102   2.564   6.214   2.042 -0.2541 -0.9963  0.4907
 8563TIP3   OH247103   0.402   5.329   3.659  0.3228  0.6427  0.0535
 8563TIP3    H147104   0.317   5.357   3.691  0.5707  2.6126 -0.8531
 8563TIP3    H247105   0.435   5.404   3.609  2.0223 -0.5381 -0.7099
 8564TIP3   OH247106   6.648   2.678   1.390 -0.2161  0.3499 -0.2901
 8564TIP3    H147107   6.611   2.735   1.323 -0.9933  0.6025  0.3304
 8564TIP3    H247108   6.741   2.671   1.368 -0.1260  1.7546 -0.4505
 8565TIP3   OH247109   5.058   2.533   0.365 -0.1135 -0.0983 -0.5482
 8565TIP3    H147110   5.012   2.564   0.287 -0.2072  1.2467  0.0121
 8565TIP3    H247111   5.004   2.565   0.438  0.9864  0.3491  0.0880
 8566TIP3   OH247112   6.221   4.003   5.313  0.2100 -0.1861  0.3615
 8566TIP3    H147113   6.270   4.070   5.265 -0.0705 -1.5845 -2.0683
 8566TIP3    H247114   6.173   4.052   5.380  1.2939  1.8144 -0.2416
 8567TIP3   OH247115   4.592   4.914   0.917  0.1542  0.8225 -0.0031
 8567TIP3    H147116   4.567   4.861   0.842  0.7676  1.0294 -0.3682
 8567TIP3    H247117   4.556   4.869   0.993  1.4978 -0.6568 -0.2027
 8568TIP3   OH247118   5.459   4.360   4.658 -0.1677  0.4666 -0.1341
 8568TIP3    H147119   5.399   4.365   4.733 -0.1645 -0.4427 -0.0627
 8568TIP3    H247120   5.516   4.436   4.669 -0.7489  0.8549  0.2806
 8569TIP3   OH247121   6.559   3.340   1.016 -0.7482 -0.0499 -0.0706
 8569TIP3    H147122   6.592   3.418   0.972 -0.2180 -0.0587  0.2953
 8569TIP3    H247123   6.465   3.340   0.999 -0.5446 -0.0911 -1.2474
 8570TIP3   OH247124   3.566   4.716   2.636 -0.3922  0.0318 -0.5141
 8570TIP3    H147125   3.485   4.684   2.676 -0.6657 -0.0821 -1.1622
 8570TIP3    H247126   3.541   4.740   2.547  0.6338 -1.6237 -1.2975
 8571TIP3   OH247127   3.760   2.372   1.417 -0.1567 -0.5060 -0.1507
 8571TIP3    H147128   3.743   2.309   1.487  2.6042  0.8855  1.9588
 8571TIP3    H247129   3.840   2.341   1.375 -1.1281 -0.6647 -1.9826
 8572TIP3   OH247130   1.444   3.166  11.488  0.4226 -0.2703 -0.1151
 8572TIP3    H147131   1.490   3.084  11.508  1.3962  0.2581 -0.1675
 8572TIP3    H247132   1.351   3.142  11.493  0.6852 -1.4786 -0.5313
 8573TIP3   OH247133   3.539   0.577   5.106 -0.3674  0.5687 -0.1895
 8573TIP3    H147134   3.610   0.557   5.166 -0.0386  0.9509 -0.4412
 8573TIP3    H247135   3.495   0.494   5.091  1.0325 -0.0163 -1.2978
 8574TIP3   OH247136   4.453   3.703   2.681  0.1937 -0.5839  1.0041
 8574TIP3    H147137   4.359   3.714   2.675  0.1953 -1.0164 -0.1394
 8574TIP3    H247138   4.467   3.657   2.764 -0.6256 -0.7338  1.0663
 8575TIP3   OH247139   6.670   5.751  15.589 -0.2637 -0.0136  0.2681
 8575TIP3    H147140   6.655   5.663  15.622  1.1086 -0.2963  0.2090
 8575TIP3    H247141   6.582   5.786  15.573 -0.9164 -0.5953  2.2678
 8576TIP3   OH247142   3.013   4.531   1.435  0.4568 -0.2661  0.0997
 8576TIP3    H147143   3.078   4.578   1.382 -1.2040  2.1912  0.0631
 8576TIP3    H247144   3.007   4.582   1.516 -0.6426 -1.0547  0.5386
 8577TIP3   OH247145   1.620   3.611   0.130 -0.1258  0.0294 -0.3543
 8577TIP3    H147146   1.644   3.703   0.140  1.7404 -0.2891 -1.4299
 8577TIP3    H247147   1.525   3.612   0.115 -0.0247  1.8326 -1.1224
 8578TIP3   OH247148   3.446   5.533   0.286 -0.4667  0.2488 -0.0658
 8578TIP3    H147149   3.519   5.536   0.348  0.2565  1.7844 -0.9599
 8578TIP3    H247150   3.450   5.445   0.249  0.9606  0.3176 -0.1209
 8579TIP3   OH247151   4.870   1.476   4.180 -0.2703  0.0423 -0.5004
 8579TIP3    H147152   4.812   1.511   4.112 -0.0743 -0.9054 -1.1612
 8579TIP3    H247153   4.910   1.399   4.141  0.6538  0.0870  0.3211
 8580TIP3   OH247154   4.993   1.287  17.112  0.2141  0.2834 -0.3486
 8580TIP3    H147155   4.916   1.345  17.115 -0.4971 -0.6686  0.5582
 8580TIP3    H247156   5.003   1.256  17.201  1.4780  0.1319 -0.5265
 8581TIP3   OH247157   4.176   6.735  15.896  0.2925  0.1972  0.4717
 8581TIP3    H147158   4.161   6.745  15.990 -2.1192  1.4998  0.0355
 8581TIP3    H247159   4.154   6.644  15.877 -1.3184  0.4702  0.8843
 8582TIP3   OH247160   3.757   5.784   1.125 -0.4308  0.4286 -0.1710
 8582TIP3    H147161   3.756   5.838   1.204 -0.8950  0.6429 -0.3225
 8582TIP3    H247162   3.689   5.719   1.139  0.3506 -0.3356  0.1533
 8583TIP3   OH247163   2.825   0.532  16.745  0.3481 -0.1160  0.3844
 8583TIP3    H147164   2.796   0.484  16.667 -0.8703 -0.7887  1.2194
 8583TIP3    H247165   2.782   0.618  16.737 -0.9424 -0.6713  0.9831
 8584TIP3   OH247166   5.785   2.071  10.299 -0.2039 -0.2763 -0.0144
 8584TIP3    H147167   5.745   1.983  10.297 -1.4057  0.2460 -0.0265
 8584TIP3    H247168   5.758   2.107  10.384  1.4708 -0.4294  0.6129
 8585TIP3   OH247169   5.456   3.707  11.939  0.2014  0.2736 -0.0662
 8585TIP3    H147170   5.477   3.618  11.909 -0.7611 -0.5161  1.4767
 8585TIP3    H247171   5.373   3.727  11.896 -0.9179 -0.6567  1.5498
 8586TIP3   OH247172   2.239   4.451  12.001 -0.0099 -0.1409  0.0950
 8586TIP3    H147173   2.265   4.359  12.009 -2.4679 -0.7705  2.5348
 8586TIP3    H247174   2.289   4.496  12.070  0.4188  0.1791 -0.4158
 8587TIP3   OH247175   0.604   4.659  17.045  0.2984  0.0995  0.0602
 8587TIP3    H147176   0.680   4.717  17.037 -0.1770  1.1970  2.4111
 8587TIP3    H247177   0.528   4.718  17.035 -0.1930 -0.2459  1.4331
 8588TIP3   OH247178   0.909   3.322   5.091  0.0750 -0.0444 -0.3868
 8588TIP3    H147179   0.859   3.357   5.164  0.3494  0.5996 -0.5027
 8588TIP3    H247180   0.848   3.324   5.017 -0.1803 -0.6317 -0.2019
 8589TIP3   OH247181   1.210   2.013   4.750  0.3329  0.1726  0.1565
 8589TIP3    H147182   1.127   1.967   4.741 -0.2200  1.3293 -0.8831
 8589TIP3    H247183   1.239   2.029   4.661  1.3000  0.4567  0.5053
 8590TIP3   OH247184   4.220   4.962  12.094  0.1466  0.2873 -0.5217
 8590TIP3    H147185   4.172   4.934  12.172  1.6463 -0.1996  0.2575
 8590TIP3    H247186   4.160   5.022  12.050 -0.4591  1.1581  1.3908
 8591TIP3   OH247187   3.573   6.310  10.760 -0.0535  0.3890  0.0145
 8591TIP3    H147188   3.601   6.321  10.669  1.2820 -0.6025  0.2593
 8591TIP3    H247189   3.648   6.341  10.811 -0.9861  1.4076  0.7938
 8592TIP3   OH247190   4.684   5.244  16.320 -0.0801  0.1371 -0.0926
 8592TIP3    H147191   4.652   5.250  16.410  1.4673 -0.1798  0.5141
 8592TIP3    H247192   4.671   5.331  16.284 -2.9105 -0.3116 -0.3914
 8593TIP3   OH247193   1.755   0.361  17.138  0.0462  0.1315  0.4180
 8593TIP3    H147194   1.687   0.301  17.168  1.1846 -0.5978  1.6067
 8593TIP3    H247195   1.836   0.327  17.175  1.3946 -0.0805 -2.4425
 8594TIP3   OH247196   1.876   3.868   1.350  0.2794  0.1999 -0.2417
 8594TIP3    H147197   1.922   3.789   1.379  1.0035  0.0629 -1.6564
 8594TIP3    H247198   1.891   3.932   1.420 -0.2312 -0.8694  0.8708
 8595TIP3   OH247199   3.982   2.904  12.470 -0.1296  0.6018  0.2411
 8595TIP3    H147200   3.905   2.921  12.415 -0.8420 -0.6745  0.8040
 8595TIP3    H247201   3.997   2.986  12.516 -0.3014  1.2961 -0.8917
 8596TIP3   OH247202   3.908   6.449  13.260 -0.1649  0.1217 -0.2262
 8596TIP3    H147203   3.834   6.432  13.202  0.3013 -1.3731 -0.4258
 8596TIP3    H247204   3.982   6.465  13.201 -0.1960  1.0736 -0.0268
 8597TIP3   OH247205   6.266   4.935   1.665  0.1650 -0.2711  0.4484
 8597TIP3    H147206   6.286   4.916   1.573 -1.0612  0.2371  0.0483
 8597TIP3    H247207   6.232   5.024   1.664 -0.0393 -0.3337  1.3678
 8598TIP3   OH247208   6.272   3.698  11.157 -0.3450  0.4055 -0.3513
 8598TIP3    H147209   6.246   3.697  11.249  1.2184 -0.9731  0.1309
 8598TIP3    H247210   6.364   3.722  11.158 -0.9086  2.9958 -1.8138
 8599TIP3   OH247211   1.361   1.286   5.846  0.5057  0.6595  0.1655
 8599TIP3    H147212   1.395   1.312   5.932 -1.5561 -0.9970  1.6152
 8599TIP3    H247213   1.434   1.242   5.804  1.8118  2.2251  0.6882
 8600TIP3   OH247214   1.110   0.748   3.708  0.0155  0.4822  0.0809
 8600TIP3    H147215   1.199   0.715   3.720 -0.0846 -0.3193 -1.2068
 8600TIP3    H247216   1.061   0.673   3.675 -1.1656  0.8994  0.8050
 8601TIP3   OH247217   6.392   4.755  16.409 -0.2860  0.2344 -0.2440
 8601TIP3    H147218   6.356   4.748  16.321  0.2825 -0.4606 -0.4313
 8601TIP3    H247219   6.484   4.731  16.400 -0.5566 -1.3871  0.7777
 8602TIP3   OH247220   1.311   1.633   0.645  0.6326  0.2949 -0.6457
 8602TIP3    H147221   1.321   1.662   0.736  2.8904 -0.6420 -0.5225
 8602TIP3    H247222   1.223   1.596   0.641  0.3842  0.6065  1.0778
 8603TIP3   OH247223   2.156   4.184  13.101  0.0398  0.3331  0.3075
 8603TIP3    H147224   2.163   4.152  13.011  0.0712  2.1664 -0.3810
 8603TIP3    H247225   2.246   4.182  13.135 -0.0055 -0.5853  0.4135
 8604TIP3   OH247226   1.296   0.645   1.483 -0.0919 -0.1332 -0.0776
 8604TIP3    H147227   1.384   0.669   1.513  0.5260 -2.2048 -0.0803
 8604TIP3    H247228   1.242   0.653   1.562  0.4703 -0.4799  0.3616
 8605TIP3   OH247229   6.504   4.156  15.167 -0.2428 -0.2445 -0.5866
 8605TIP3    H147230   6.429   4.097  15.173 -0.1791 -0.2289  0.5721
 8605TIP3    H247231   6.552   4.142  15.249  1.4101 -0.7780 -1.5981
 8606TIP3   OH247232   5.788   5.578  12.185  0.0618  0.6188 -0.1261
 8606TIP3    H147233   5.693   5.594  12.179  0.2266  1.1209 -1.8047
 8606TIP3    H247234   5.797   5.483  12.173 -0.2093  0.6000 -0.1944
 8607TIP3   OH247235   1.232   0.312   0.809  0.1136  0.0764  0.1157
 8607TIP3    H147236   1.255   0.267   0.727  1.8110  0.4280  0.3536
 8607TIP3    H247237   1.256   0.403   0.793  0.3354  0.1696  0.9559
 8608TIP3   OH247238   4.059   3.504   6.111  0.0450 -0.7368  0.3666
 8608TIP3    H147239   4.022   3.488   6.199  1.5461 -0.5494  1.0613
 8608TIP3    H247240   3.997   3.462   6.052 -0.9962 -0.8965  1.5147
 8609TIP3   OH247241   0.299   0.028   5.991  0.2667 -0.1156 -0.0951
 8609TIP3    H147242   0.304  -0.008   6.080  2.3134 -0.3077 -0.2337
 8609TIP3    H247243   0.390   0.042   5.966 -0.3420  2.7510 -1.0738
 8610TIP3   OH247244   2.647   2.429   4.577 -0.1010  0.2464 -0.2930
 8610TIP3    H147245   2.726   2.405   4.529  0.0535  0.7691 -0.3086
 8610TIP3    H247246   2.583   2.361   4.554 -0.7103  1.5923 -2.9520
 8611TIP3   OH247247   1.266   0.049   2.362 -0.7599 -0.2460  0.1508
 8611TIP3    H147248   1.206   0.120   2.339 -1.0832 -0.5067  0.1834
 8611TIP3    H247249   1.353   0.083   2.340 -1.1071 -0.8991 -2.6250
 8612TIP3   OH247250   0.382   6.132  13.613 -0.0256 -0.0664 -0.5500
 8612TIP3    H147251   0.393   6.192  13.687 -0.9232 -0.5826  0.0380
 8612TIP3    H247252   0.417   6.178  13.538  0.5053  0.6557  0.1278
 8613TIP3   OH247253   5.084   5.269  11.040  0.1837  0.1173  0.8048
 8613TIP3    H147254   5.024   5.258  10.966 -0.9291  1.4395  1.4490
 8613TIP3    H247255   5.125   5.183  11.051  0.6211 -0.0233 -1.5149
 8614TIP3   OH247256   0.174   3.398   3.104 -0.4242  0.6030  0.7475
 8614TIP3    H147257   0.213   3.358   3.026 -0.3420  2.3193 -0.1301
 8614TIP3    H247258   0.190   3.492   3.094 -1.2568  0.9547  2.3695
 8615TIP3   OH247259   5.120   6.744   1.937  0.0488  0.0712  0.1221
 8615TIP3    H147260   5.192   6.681   1.942 -0.6471 -0.6457  2.0717
 8615TIP3    H247261   5.158   6.826   1.970  0.1024 -0.1792  0.6896
 8616TIP3   OH247262   6.369   4.105   5.648 -0.5381 -0.1257  0.1841
 8616TIP3    H147263   6.334   4.159   5.578 -1.4117 -1.0990 -0.1595
 8616TIP3    H247264   6.352   4.154   5.728 -0.6326  0.4410 -0.1815
 8617TIP3   OH247265   0.418   6.071   6.390  0.0217  0.1338  0.1708
 8617TIP3    H147266   0.457   5.984   6.397  0.7673  0.4686  0.3181
 8617TIP3    H247267   0.353   6.063   6.321  0.0660 -0.5471  0.2054
 8618TIP3   OH247268   2.343   2.142   3.868  0.3303  0.0884 -0.2810
 8618TIP3    H147269   2.422   2.194   3.850  0.1879  0.5018  0.2707
 8618TIP3    H247270   2.286   2.201   3.917  0.1204 -0.5570  0.2711
 8619TIP3   OH247271   3.095   0.478  16.777 -0.0832 -0.1798 -0.2655
 8619TIP3    H147272   3.006   0.511  16.769  0.5657  1.5825 -0.6128
 8619TIP3    H247273   3.085   0.384  16.792 -2.0326  0.1823  0.9992
 8620TIP3   OH247274   2.695   5.802  12.723  0.4176  0.1555  0.3809
 8620TIP3    H147275   2.629   5.777  12.788 -2.6165 -1.6441 -2.9727
 8620TIP3    H247276   2.680   5.895  12.708 -0.3987  0.0825  0.6877
 8621TIP3   OH247277   4.365   1.463   1.482  0.3620 -0.4705  0.1262
 8621TIP3    H147278   4.457   1.436   1.489  0.8874  1.5721  2.6397
 8621TIP3    H247279   4.336   1.475   1.572 -1.6824  1.1619 -0.6466
 8622TIP3   OH247280   1.935   4.708   1.922 -0.0930  0.0013  0.1789
 8622TIP3    H147281   1.945   4.617   1.949  0.4895 -0.2093 -0.7074
 8622TIP3    H247282   2.023   4.745   1.927 -0.2875  0.4539  0.3232
 8623TIP3   OH247283   1.104   2.426   5.303 -0.5875  0.4568 -0.4021
 8623TIP3    H147284   1.030   2.367   5.292 -0.5772  0.4294 -0.3257
 8623TIP3    H247285   1.140   2.403   5.388  0.8244 -1.0294 -1.3311
 8624TIP3   OH247286   6.057   0.057  14.936 -0.1052 -0.4633  0.6329
 8624TIP3    H147287   6.012   0.128  14.980  2.3175  1.3982  0.3174
 8624TIP3    H247288   5.997   0.030  14.866 -0.0469  3.3580 -1.1777
 8625TIP3   OH247289   1.222   0.961   1.068 -0.5416  0.5085 -0.1808
 8625TIP3    H147290   1.224   0.901   1.142  0.5401 -0.0678 -0.6477
 8625TIP3    H247291   1.150   0.929   1.013 -0.0760 -0.3003 -0.3504
 8626TIP3   OH247292   4.956   0.524   5.291  0.3449 -0.8204  0.2208
 8626TIP3    H147293   4.974   0.533   5.385  0.3178  0.9710  0.0818
 8626TIP3    H247294   4.887   0.457   5.286  0.2219 -0.8057  1.4833
 8627TIP3   OH247295   3.256   2.845  11.614 -0.6991  0.0251 -0.5526
 8627TIP3    H147296   3.313   2.822  11.541  0.9487 -0.8691  0.9495
 8627TIP3    H247297   3.243   2.940  11.606  3.3667  0.8501  0.5724
 8628TIP3   OH247298   0.375   4.825  11.233 -0.8050 -0.0335 -0.4240
 8628TIP3    H147299   0.332   4.825  11.148 -0.4614  0.3003 -0.5978
 8628TIP3    H247300   0.423   4.907  11.236 -2.5896  1.0404  0.9953
 8629TIP3   OH247301   1.963   4.208   4.763 -0.2039 -0.1132  0.5828
 8629TIP3    H147302   1.985   4.259   4.841 -0.2938 -0.9352  1.1601
 8629TIP3    H247303   2.048   4.180   4.728 -0.1953 -0.5143  0.9184
 8630TIP3   OH247304   4.714   6.302   2.341  0.4798  0.2115  0.2317
 8630TIP3    H147305   4.794   6.311   2.289  0.5055 -1.2658 -0.0146
 8630TIP3    H247306   4.652   6.361   2.299  1.2270  0.8650  0.0157
 8631TIP3   OH247307   4.273   2.499   1.557  0.1911 -0.2853  0.2823
 8631TIP3    H147308   4.326   2.473   1.482  0.5345  0.2787  0.3284
 8631TIP3    H247309   4.296   2.437   1.626 -0.0924 -0.7782 -0.0567
 8632TIP3   OH247310   3.371   1.161  15.302  0.6571 -0.7415  0.0937
 8632TIP3    H147311   3.330   1.242  15.332  1.3816 -0.0791 -0.6287
 8632TIP3    H247312   3.323   1.139  15.222 -0.3297 -1.7112  0.9200
 8633TIP3   OH247313   2.948   2.573   4.529  0.1746 -0.1549  0.3464
 8633TIP3    H147314   2.901   2.613   4.456  1.6617 -2.2490 -1.9648
 8633TIP3    H247315   3.030   2.622   4.535  0.0657 -0.0027  0.5939
 8634TIP3   OH247316   1.122   6.486   3.679  0.1353  0.3362 -0.1697
 8634TIP3    H147317   1.186   6.467   3.610 -0.5301  0.5225 -0.8484
 8634TIP3    H247318   1.166   6.550   3.735  1.3963 -1.1610  0.6495
 8635TIP3   OH247319   1.430   5.530  16.467  0.7493  0.3010 -0.0120
 8635TIP3    H147320   1.393   5.503  16.383  1.4009  1.3710 -0.6646
 8635TIP3    H247321   1.354   5.537  16.525 -0.0341  1.7112 -1.1301
 8636TIP3   OH247322   6.361   5.598  14.195 -0.0857  0.1562 -0.1669
 8636TIP3    H147323   6.343   5.568  14.106  0.1793 -0.0915 -0.1375
 8636TIP3    H247324   6.329   5.527  14.251  2.5070 -1.1384 -0.1507
 8637TIP3   OH247325   4.846   6.047  16.120  0.6773 -0.2457  0.0051
 8637TIP3    H147326   4.878   6.010  16.203 -1.3018 -0.9883  0.5059
 8637TIP3    H247327   4.757   6.076  16.140  0.4048  0.2047 -1.7073
 8638TIP3   OH247328   1.266   2.025   0.114  0.1353  0.6242  0.0872
 8638TIP3    H147329   1.352   2.005   0.078  1.6917  1.5277  3.0277
 8638TIP3    H247330   1.260   1.971   0.193 -1.2561  1.8788  0.8872
 8639TIP3   OH247331   5.336   1.042  14.817 -0.0032 -0.1790 -0.5476
 8639TIP3    H147332   5.279   1.021  14.743 -1.0406 -0.9523  0.4314
 8639TIP3    H247333   5.384   0.961  14.833  0.5031  0.1077 -0.6184
 8640TIP3   OH247334   2.155   1.834  14.722 -0.6198  0.7351 -0.6514
 8640TIP3    H147335   2.092   1.831  14.650 -0.3646  1.7140 -0.9298
 8640TIP3    H247336   2.240   1.846  14.680 -0.1285 -1.2362 -0.3136
 8641TIP3   OH247337   4.926   6.088   4.333 -0.8561  0.0153  0.0170
 8641TIP3    H147338   5.004   6.054   4.377  0.7057 -0.9413 -3.2001
 8641TIP3    H247339   4.864   6.015   4.336 -1.1886  0.3230  1.4397
 8642TIP3   OH247340   3.167   6.444   2.012  0.0826 -0.0309  0.2218
 8642TIP3    H147341   3.163   6.477   1.922  0.3977  0.8413  0.5149
 8642TIP3    H247342   3.260   6.451   2.036 -0.1850  0.9756  1.0459
 8643TIP3   OH247343   6.054   1.763  16.664  0.2897  0.2986 -0.6642
 8643TIP3    H147344   6.109   1.690  16.694  0.6332  1.3647  1.5240
 8643TIP3    H247345   6.098   1.795  16.585  3.5549  1.7226  1.5005
 8644TIP3   OH247346   1.653   2.415   2.919 -0.1493  0.3868 -0.2547
 8644TIP3    H147347   1.656   2.321   2.900 -1.6296  0.7165 -2.4222
 8644TIP3    H247348   1.574   2.426   2.972 -0.0312  0.4489 -0.0891
 8645TIP3   OH247349   5.464   2.467  12.276 -0.3249 -0.2544 -0.1477
 8645TIP3    H147350   5.451   2.548  12.227  0.6052 -0.4708 -0.7620
 8645TIP3    H247351   5.414   2.480  12.357 -0.5508  0.7477 -0.4355
 8646TIP3   OH247352   4.145   5.004  16.092 -0.1091 -0.1218 -0.3681
 8646TIP3    H147353   4.071   5.023  16.033 -0.1581 -0.1747 -0.3239
 8646TIP3    H247354   4.222   5.031  16.042 -0.2658  1.5632  0.2338
 8647TIP3   OH247355   2.205   2.722   3.607 -0.5653 -0.1017  0.2842
 8647TIP3    H147356   2.112   2.703   3.622 -0.9411  0.2078 -1.4499
 8647TIP3    H247357   2.242   2.640   3.577  0.1018 -0.6225  2.3524
 8648TIP3   OH247358   0.537   4.013   6.289  0.4003  0.6027  0.0348
 8648TIP3    H147359   0.618   3.964   6.271  0.6916  0.5586  1.3892
 8648TIP3    H247360   0.506   3.979   6.373 -0.3666  1.4779  0.1229
 8649TIP3   OH247361   4.022   6.247   0.377 -0.3196  0.7282  0.6021
 8649TIP3    H147362   4.015   6.217   0.287 -0.2703 -1.8576  1.4008
 8649TIP3    H247363   4.098   6.307   0.376  0.2363  0.0544 -0.8840
 8650TIP3   OH247364   6.500   1.273  16.577 -0.4208 -0.1146  0.2282
 8650TIP3    H147365   6.502   1.299  16.669  0.2164  0.8106 -0.0363
 8650TIP3    H247366   6.499   1.178  16.579 -0.2291 -0.1039  1.1867
 8651TIP3   OH247367   2.803   6.438  16.964  0.4434 -0.0800 -0.3077
 8651TIP3    H147368   2.851   6.355  16.961  1.0415  0.2406  0.3407
 8651TIP3    H247369   2.760   6.444  16.878 -0.8460 -1.7936  0.1471
 8652TIP3   OH247370   4.545   1.053  16.867 -0.5237  0.4129 -0.2374
 8652TIP3    H147371   4.640   1.052  16.876 -0.5627  0.3052  0.1641
 8652TIP3    H247372   4.530   1.032  16.775 -0.2005 -1.0993  0.0264
 8653TIP3   OH247373   5.917   2.540   2.518 -0.1755  0.3762  0.2096
 8653TIP3    H147374   5.838   2.532   2.570 -0.8277 -1.6943 -0.9847
 8653TIP3    H247375   5.987   2.508   2.575 -1.0329 -2.9355 -0.4024
 8654TIP3   OH247376   0.755   6.014  15.057 -0.3754  0.5392 -0.1481
 8654TIP3    H147377   0.667   5.977  15.054 -0.8306  1.6042 -1.2072
 8654TIP3    H247378   0.813   5.939  15.046 -1.1739 -0.1173  0.0124
 8655TIP3   OH247379   4.847   0.160   4.144  0.1446 -0.2344 -0.0239
 8655TIP3    H147380   4.817   0.220   4.213 -0.4826 -0.5887  0.0137
 8655TIP3    H247381   4.788   0.176   4.071  0.2733 -0.4733 -0.1789
 8656TIP3   OH247382   2.054   2.953  15.697  0.2540  0.0346 -0.9583
 8656TIP3    H147383   2.123   2.959  15.762  1.8462 -1.7171 -2.3576
 8656TIP3    H247384   2.086   3.005  15.623 -0.1338 -0.4110 -1.4459
 8657TIP3   OH247385   6.278   3.196   2.631  0.2071 -0.0745  0.5406
 8657TIP3    H147386   6.277   3.252   2.709  0.1760 -0.7025  1.0030
 8657TIP3    H247387   6.330   3.120   2.658 -0.6881 -0.7873  0.2950
 8658TIP3   OH247388   0.346   4.161  12.038 -0.4966  0.3339 -0.6041
 8658TIP3    H147389   0.409   4.233  12.045 -0.5665  0.2599  1.4939
 8658TIP3    H247390   0.388   4.098  11.979  0.6080  1.0709 -0.6370
 8659TIP3   OH247391   0.153   5.893   1.913 -0.1440 -0.6995 -0.3590
 8659TIP3    H147392   0.142   5.837   1.990 -0.1872  1.1511  1.0528
 8659TIP3    H247393   0.230   5.946   1.933  0.5566 -0.9777 -2.1487
 8660TIP3   OH247394   0.700   4.251   5.133 -0.3048  0.2597  0.0346
 8660TIP3    H147395   0.688   4.225   5.042  0.5204  1.0300 -0.3181
 8660TIP3    H247396   0.649   4.189   5.183 -2.6421  1.1804 -1.0780
 8661TIP3   OH247397   6.491   5.142   1.723  0.8428 -0.2356 -0.0149
 8661TIP3    H147398   6.407   5.188   1.721  0.3031 -1.2153 -0.3072
 8661TIP3    H247399   6.482   5.073   1.657  0.6753 -2.4049  2.1500
 8662TIP3   OH247400   3.990   6.253  10.535  0.1582  0.2652  0.1013
 8662TIP3    H147401   4.076   6.294  10.542  0.0509  0.4696  0.2301
 8662TIP3    H247402   3.997   6.194  10.460  0.8723 -0.8565  1.0316
 8663TIP3   OH247403   1.429   1.406  12.275 -0.5236  0.3253 -0.4427
 8663TIP3    H147404   1.433   1.482  12.217  1.2517 -0.0955 -0.9457
 8663TIP3    H247405   1.498   1.421  12.339  0.0514 -0.9733 -0.7259
 8664TIP3   OH247406   3.952   1.575  16.937  0.5380  0.0859 -0.6018
 8664TIP3    H147407   3.897   1.500  16.957 -3.7487  3.0396  0.0907
 8664TIP3    H247408   3.965   1.571  16.842  0.9846 -1.7904 -0.4887
 8665TIP3   OH247409   3.185   0.168  14.176 -0.4761 -0.0866  0.4245
 8665TIP3    H147410   3.277   0.184  14.156 -0.7527  1.3355  0.2526
 8665TIP3    H247411   3.145   0.147  14.092 -0.6276  0.9312  0.2306
 8666TIP3   OH247412   6.190   5.798  12.926 -0.3748  0.0611  0.1720
 8666TIP3    H147413   6.249   5.838  12.863 -0.5858 -0.5891 -0.4469
 8666TIP3    H247414   6.185   5.706  12.900  0.0957 -0.3888  1.5547
 8667TIP3   OH247415   5.093   3.105  16.816  0.1880  0.1078 -0.0533
 8667TIP3    H147416   5.152   3.033  16.793  0.1102  0.0202  0.0215
 8667TIP3    H247417   5.017   3.092  16.760 -1.0049 -1.4236  1.8020
 8668TIP3   OH247418   4.839   6.387  14.060 -0.1179 -0.1158  0.0463
 8668TIP3    H147419   4.774   6.407  14.127  0.2190 -0.3688  0.4516
 8668TIP3    H247420   4.923   6.406  14.102  0.1398 -1.0446 -0.0256
 8669TIP3   OH247421   0.920   5.333  16.640 -0.0185  0.2857  0.0414
 8669TIP3    H147422   0.861   5.400  16.672 -0.0731  1.4327 -2.2464
 8669TIP3    H247423   1.008   5.364  16.662 -0.1331 -0.3439  1.4970
 8670TIP3   OH247424   0.255   5.410  14.843  0.2047 -0.1156 -0.0882
 8670TIP3    H147425   0.266   5.408  14.748  0.8749  1.4173 -0.0561
 8670TIP3    H247426   0.340   5.436  14.877 -0.3176  0.3800  0.8732
 8671TIP3   OH247427   3.387   6.102   4.057  0.0622  0.3158 -0.0964
 8671TIP3    H147428   3.373   6.010   4.036 -3.4051  1.3044 -3.2114
 8671TIP3    H247429   3.356   6.111   4.147  1.8388 -1.6930  0.8162
 8672TIP3   OH247430   0.611   0.771   0.822  0.2845 -0.1273  0.2065
 8672TIP3    H147431   0.624   0.776   0.917  0.2526  0.9862  0.1669
 8672TIP3    H247432   0.550   0.698   0.810 -0.7541  0.5471  1.1671
 8673TIP3   OH247433   2.032   3.408  12.504 -0.1898  0.0749 -0.3107
 8673TIP3    H147434   2.095   3.406  12.576  0.9767 -0.4674 -1.3066
 8673TIP3    H247435   2.047   3.493  12.462  1.3043 -0.8555 -1.7400
 8674TIP3   OH247436   6.586   2.150   3.474  0.5898  0.6174  0.5425
 8674TIP3    H147437   6.629   2.177   3.555 -2.1697  0.9245  2.0152
 8674TIP3    H247438   6.512   2.210   3.464  0.2147 -0.1189 -1.6105
 8675TIP3   OH247439   2.678   0.694   5.170 -0.2316  0.2280  0.1292
 8675TIP3    H147440   2.598   0.640   5.168  0.9451 -1.5861 -0.8057
 8675TIP3    H247441   2.733   0.653   5.237 -0.7298  2.5471  2.0653
 8676TIP3   OH247442   0.588   5.787  13.540  0.3044 -0.0845  0.1948
 8676TIP3    H147443   0.584   5.746  13.453 -0.0723 -0.0311  0.1871
 8676TIP3    H247444   0.600   5.713  13.600 -2.8423 -0.5258  0.4332
 8677TIP3   OH247445   0.019   6.027   5.317  0.1282 -0.0782  0.0511
 8677TIP3    H147446   0.036   5.937   5.345  0.3087 -0.5550 -1.4742
 8677TIP3    H247447   0.086   6.044   5.250 -1.8912 -0.0402 -2.1085
 8678TIP3   OH247448   5.868   1.187  12.387  0.3065 -0.4315 -0.2425
 8678TIP3    H147449   5.889   1.221  12.300 -4.5121 -0.0498 -1.5076
 8678TIP3    H247450   5.863   1.266  12.442 -0.3289 -0.2347 -0.5717
 8679TIP3   OH247451   5.896   3.481  10.861  0.5449  0.2577  0.4854
 8679TIP3    H147452   5.956   3.538  10.812  1.3599 -0.2164  0.8984
 8679TIP3    H247453   5.817   3.477  10.808  1.1448  0.3380 -0.4284
 8680TIP3   OH247454   5.786   5.146  16.662 -0.0651  0.4137 -0.1190
 8680TIP3    H147455   5.728   5.135  16.586 -0.0039 -0.8184 -0.0169
 8680TIP3    H247456   5.874   5.146  16.625 -0.0619  0.4388 -0.1116
 8681TIP3   OH247457   3.083   3.188   4.715 -0.2799  0.2033  0.1083
 8681TIP3    H147458   3.103   3.099   4.685  0.0791 -0.5199  2.3559
 8681TIP3    H247459   3.093   3.185   4.810 -2.2410  2.1330  0.4629
 8682TIP3   OH247460   2.620   2.451  12.270 -0.0947 -0.1235 -0.6435
 8682TIP3    H147461   2.589   2.509  12.201  1.4021  0.5087 -0.8271
 8682TIP3    H247462   2.713   2.470  12.278  0.1872 -1.6198  0.1677
 8683TIP3   OH247463   5.183   4.399   6.618  0.5258  0.3075 -0.0607
 8683TIP3    H147464   5.128   4.334   6.575  0.0737 -0.8911  2.1729
 8683TIP3    H247465   5.177   4.476   6.562 -2.9484  0.0430 -0.2930
 8684TIP3   OH247466   4.152   5.209  13.211 -0.4844 -0.0335  0.6548
 8684TIP3    H147467   4.078   5.233  13.154 -1.2570  0.6747  1.9066
 8684TIP3    H247468   4.229   5.215  13.154 -1.2892  0.0691 -0.4600
 8685TIP3   OH247469   1.283   0.049   4.813 -0.3122  0.7150  0.3993
 8685TIP3    H147470   1.213   0.049   4.879 -0.0939  0.6398  0.6337
 8685TIP3    H247471   1.244   0.007   4.737 -0.7805  1.4141  0.2489
 8686TIP3   OH247472   1.825   4.338  14.014 -0.1833 -0.6472 -0.0567
 8686TIP3    H147473   1.815   4.246  14.040  1.1555 -0.0291  3.1227
 8686TIP3    H247474   1.886   4.375  14.078 -1.8689  2.8568 -0.2254
 8687TIP3   OH247475   6.727   4.847   3.234 -0.0672 -0.0896 -0.4259
 8687TIP3    H147476   6.814   4.886   3.243  0.3594 -1.2098  0.5190
 8687TIP3    H247477   6.721   4.821   3.142  2.2566 -3.7005  0.2909
 8688TIP3   OH247478   0.174   5.398   2.183 -0.0262 -0.4232 -0.2368
 8688TIP3    H147479   0.266   5.392   2.157 -0.2389 -0.7129 -0.9658
 8688TIP3    H247480   0.157   5.492   2.191 -0.1715 -0.2449 -2.0887
 8689TIP3   OH247481   4.217   2.170   3.441  0.4078  0.1757 -0.7063
 8689TIP3    H147482   4.255   2.202   3.360  2.4752 -0.6781 -0.1493
 8689TIP3    H247483   4.144   2.114   3.413 -1.1425  2.5610 -1.7769
 8690TIP3   OH247484   2.490   1.353  12.546  0.2677  0.5011  0.6210
 8690TIP3    H147485   2.478   1.262  12.519  1.2163  1.3202 -3.1489
 8690TIP3    H247486   2.572   1.352  12.596  0.5025 -0.6472  0.2563
 8691TIP3   OH247487   3.610   3.769   6.015 -0.0173  0.5826 -0.6630
 8691TIP3    H147488   3.584   3.678   6.026 -0.7104  0.9241  0.7002
 8691TIP3    H247489   3.528   3.816   5.999  0.4494  0.8387 -2.5770
 8692TIP3   OH247490   0.351   2.971  12.965  0.1869 -0.0294  0.2356
 8692TIP3    H147491   0.424   2.915  12.937 -0.5348 -0.2140 -1.3796
 8692TIP3    H247492   0.329   2.939  13.053  0.9528 -1.1026  0.0554
 8693TIP3   OH247493   0.607   3.262   0.498  0.6102  0.0187 -0.2136
 8693TIP3    H147494   0.588   3.172   0.526 -0.0158  0.0820 -0.4178
 8693TIP3    H247495   0.546   3.278   0.426  0.5835  0.6766 -0.0526
 8694TIP3   OH247496   1.462   1.056   2.052  0.1171  0.1059 -1.0035
 8694TIP3    H147497   1.437   0.964   2.061  2.5108 -0.4438  1.0727
 8694TIP3    H247498   1.452   1.093   2.140  0.1041  1.6181 -1.6019
 8695TIP3   OH247499   0.285   2.402   4.306  0.6103  0.4085  0.1155
 8695TIP3    H147500   0.347   2.367   4.241 -2.3302 -3.6465 -0.8896
 8695TIP3    H247501   0.299   2.348   4.384 -1.9933 -1.2477 -0.4227
 8696TIP3   OH247502   1.845   4.883  14.921  0.2331 -0.3502  0.2818
 8696TIP3    H147503   1.937   4.895  14.947 -0.2145  1.0773  1.3499
 8696TIP3    H247504   1.849   4.850  14.832  1.7802  0.4882  0.0156
 8697TIP3   OH247505   0.182   4.341   5.164 -0.9225  0.4358  0.7841
 8697TIP3    H147506   0.175   4.350   5.259  0.2948  2.2766  0.7568
 8697TIP3    H247507   0.193   4.431   5.133  0.7952 -0.2817 -0.8917
 8698TIP3   OH247508   5.787   3.979   1.019 -0.1053 -0.0615  0.0183
 8698TIP3    H147509   5.780   3.979   1.115  0.3816  1.3457  0.0791
 8698TIP3    H247510   5.726   4.047   0.991 -0.7264 -0.9048 -0.7362
 8699TIP3   OH247511   0.980   4.120   1.421 -0.3200 -0.0695 -0.7637
 8699TIP3    H147512   1.064   4.136   1.464 -0.1089 -1.6287 -0.5616
 8699TIP3    H247513   0.916   4.128   1.491 -0.4744  1.9166 -1.0601
 8700TIP3   OH247514   0.963   2.203   4.059 -0.2839 -0.1376  0.3563
 8700TIP3    H147515   0.937   2.158   3.979  3.1609  1.5394 -1.9306
 8700TIP3    H247516   1.051   2.171   4.078  0.5110  2.2775  1.1925
 8701TIP3   OH247517   2.184   0.540   4.118  0.3030  0.0839 -0.6748
 8701TIP3    H147518   2.097   0.541   4.078 -1.0117 -1.4545  1.8554
 8701TIP3    H247519   2.189   0.622   4.168 -0.4603 -0.6006  0.5647
 8702TIP3   OH247520   6.694   5.448   0.314 -0.1238  0.8138  0.1371
 8702TIP3    H147521   6.735   5.506   0.249  0.7574  0.1097  0.0365
 8702TIP3    H247522   6.716   5.360   0.284 -2.8743  0.3025 -0.6566
 8703TIP3   OH247523   1.946   2.208  11.550 -0.2824 -0.6374 -0.4665
 8703TIP3    H147524   1.903   2.241  11.629 -0.7657 -2.3770  0.0508
 8703TIP3    H247525   2.040   2.219  11.567 -0.3721 -1.1758  0.4552
 8704TIP3   OH247526   2.235   3.788  10.546  0.0197  0.0054  0.3028
 8704TIP3    H147527   2.321   3.779  10.504 -0.2976 -1.9959 -0.0431
 8704TIP3    H247528   2.174   3.795  10.473 -0.3707 -1.7837  0.3985
 8705TIP3   OH247529   2.040   6.446   6.458 -0.2977  0.4911  0.4361
 8705TIP3    H147530   1.997   6.452   6.373 -1.2589  0.8883  0.9318
 8705TIP3    H247531   2.084   6.530   6.468  1.4425 -0.2669 -0.4865
 8706TIP3   OH247532   2.683   2.295   3.888  0.2490 -0.2125  0.3668
 8706TIP3    H147533   2.700   2.205   3.860  0.1823  0.4558 -2.0559
 8706TIP3    H247534   2.734   2.349   3.828 -2.6246  1.4831 -0.7790
 8707TIP3   OH247535   5.418   0.175  13.872  0.0729  0.0146  0.7122
 8707TIP3    H147536   5.362   0.104  13.902 -0.1678  0.0579  0.3711
 8707TIP3    H247537   5.406   0.244  13.938  0.0817 -0.1485  0.8860
 8708TIP3   OH247538   2.616   0.157   2.600 -0.0611  0.1254  0.5689
 8708TIP3    H147539   2.677   0.112   2.542  2.2855  0.9002  2.2598
 8708TIP3    H247540   2.617   0.105   2.681 -1.0275  0.6043  0.9029
 8709TIP3   OH247541   1.094   1.524  14.320  0.3374  0.0258 -0.5384
 8709TIP3    H147542   1.009   1.483  14.334 -0.2606  1.5081  0.4304
 8709TIP3    H247543   1.077   1.593  14.256  0.3091  1.6513  1.1125
 8710TIP3   OH247544   5.320   1.435  13.979 -0.3551  0.1405  0.1862
 8710TIP3    H147545   5.248   1.389  14.023 -1.7243  0.9115 -1.1749
 8710TIP3    H247546   5.383   1.366  13.959 -0.9215 -0.6313  0.9881
 8711TIP3   OH247547   2.009   6.671  14.312  0.4604 -1.0510 -0.1523
 8711TIP3    H147548   1.926   6.648  14.270  0.6588 -1.1277 -0.5028
 8711TIP3    H247549   2.037   6.591  14.356 -0.5718 -0.5403  1.5418
 8712TIP3   OH247550   2.580   0.288   5.447  0.4380 -0.0129  0.8522
 8712TIP3    H147551   2.623   0.374   5.451 -0.3519  0.4015  0.6405
 8712TIP3    H247552   2.509   0.300   5.384 -1.3831 -0.0628  2.8181
 8713TIP3   OH247553   5.834   2.579   5.279 -0.4063 -0.2211  0.3693
 8713TIP3    H147554   5.827   2.672   5.300 -0.5689 -0.7679  2.9628
 8713TIP3    H247555   5.928   2.560   5.285 -0.1536  0.0350 -1.7329
 8714TIP3   OH247556   6.337   3.956  10.745  0.4491 -0.1385 -0.0752
 8714TIP3    H147557   6.259   4.002  10.716  1.4491 -0.1943 -3.2676
 8714TIP3    H247558   6.399   3.965  10.672  2.3815 -2.5563  1.0963
 8715TIP3   OH247559   5.793   2.322   2.875 -0.1992  0.7392  0.1427
 8715TIP3    H147560   5.798   2.227   2.882 -0.2257  0.8624  3.0653
 8715TIP3    H247561   5.818   2.341   2.785 -0.5413 -2.0358 -0.6111
 8716TIP3   OH247562   1.201   2.103   4.077 -0.5214 -0.0156  0.5094
 8716TIP3    H147563   1.255   2.087   4.155  1.2130 -1.6314 -0.9191
 8716TIP3    H247564   1.262   2.140   4.013 -1.1620 -1.5005 -1.0285
 8717TIP3   OH247565   3.316   1.619  16.600  0.0843  0.5403  0.2891
 8717TIP3    H147566   3.240   1.666  16.633  0.2399  1.4713 -0.6214
 8717TIP3    H247567   3.390   1.676  16.621  0.3972  0.2181  0.0819
 8718TIP3   OH247568   1.781   1.591  14.183 -0.5084 -0.6680 -0.7999
 8718TIP3    H147569   1.852   1.634  14.232  0.2239  0.8931 -3.1078
 8718TIP3    H247570   1.780   1.501  14.217 -1.2620  0.6709  3.3169
 8719TIP3   OH247571   3.427   2.811  16.033  0.5741 -0.3051  0.6485
 8719TIP3    H147572   3.428   2.763  15.951 -2.6494 -1.0507  0.8986
 8719TIP3    H247573   3.496   2.771  16.086 -0.1708 -2.8047 -0.1623
 8720TIP3   OH247574   4.707   5.953   3.393 -0.0682  0.8883  0.0229
 8720TIP3    H147575   4.762   5.894   3.340 -2.1782 -0.4180 -0.8579
 8720TIP3    H247576   4.661   6.006   3.328  0.8590  2.6843  0.7790
 8721TIP3   OH247577   3.220   3.941  11.592 -0.8830  0.4232 -0.1264
 8721TIP3    H147578   3.129   3.970  11.594 -1.2369 -0.6555  1.7121
 8721TIP3    H247579   3.232   3.893  11.674  1.7865  1.8470  0.4256
 8722TIP3   OH247580   5.768   3.375  15.687  0.0651 -0.3315  0.4580
 8722TIP3    H147581   5.735   3.411  15.769 -0.4763 -0.3051  0.2340
 8722TIP3    H247582   5.696   3.322  15.653  0.7834 -1.4976  0.6884
 8723TIP3   OH247583   3.327   5.237   2.175  0.2719 -0.1953  0.0499
 8723TIP3    H147584   3.291   5.211   2.260 -0.2490  0.9014  0.1786
 8723TIP3    H247585   3.274   5.312   2.148 -0.0695 -0.9956 -1.6125
 8724TIP3   OH247586   0.966   1.823  12.901  0.6260 -0.1337  0.2932
 8724TIP3    H147587   0.990   1.898  12.846 -1.5554  0.3770 -0.0665
 8724TIP3    H247588   1.048   1.797  12.943  1.8921  0.9877 -1.3380
 8725TIP3   OH247589   0.364   4.266  16.118  0.1703 -0.3201  0.5193
 8725TIP3    H147590   0.274   4.274  16.085  0.3825  0.4531  0.0997
 8725TIP3    H247591   0.357   4.202  16.189 -0.8740  0.3201  1.0295
 8726TIP3   OH247592   5.053   0.818  17.069 -0.4164 -0.3005  0.8514
 8726TIP3    H147593   4.999   0.878  17.119 -0.1611 -1.3257  2.4312
 8726TIP3    H247594   5.129   0.870  17.041 -0.5991  0.3099  1.4801
 8727TIP3   OH247595   6.487   5.412   3.096 -0.5401 -0.5056  0.0834
 8727TIP3    H147596   6.415   5.422   3.158 -0.5040 -2.4342  0.4837
 8727TIP3    H247597   6.447   5.376   3.018  0.0010 -2.0358  0.4655
 8728TIP3   OH247598   3.042   1.116  15.573  0.1460 -0.0039 -0.3525
 8728TIP3    H147599   3.026   1.207  15.548  1.8704  0.7313  0.9945
 8728TIP3    H247600   3.074   1.075  15.493  1.2305  1.1098 -0.5214
 8729TIP3   OH247601   2.531   3.503   2.590  0.6150  0.4462 -0.0596
 8729TIP3    H147602   2.527   3.583   2.538  1.7150 -0.5587 -1.7901
 8729TIP3    H247603   2.568   3.438   2.531  0.8187 -1.0715  1.6510
 8730TIP3   OH247604   5.349   5.347   0.781  0.4069  0.5759 -0.1588
 8730TIP3    H147605   5.430   5.323   0.825 -0.6004 -0.1462  1.4161
 8730TIP3    H247606   5.330   5.435   0.812 -0.3125  0.0598  0.9430
 8731TIP3   OH247607   1.422   3.625  16.007 -0.3694 -0.3312  0.5916
 8731TIP3    H147608   1.345   3.649  16.058 -0.7569 -1.6301  0.6292
 8731TIP3    H247609   1.415   3.678  15.927 -0.1904  1.0890  1.4713
 8732TIP3   OH247610   6.468   3.899  16.298 -0.0286  0.1991  0.3901
 8732TIP3    H147611   6.510   3.978  16.263 -2.1872  1.6533  0.9240
 8732TIP3    H247612   6.517   3.827  16.259  1.0496  1.7826 -1.3444
 8733TIP3   OH247613   3.523   1.436  13.973 -0.0951 -0.6317 -0.1011
 8733TIP3    H147614   3.432   1.445  14.000 -0.3431 -0.2068 -1.0377
 8733TIP3    H247615   3.570   1.502  14.024 -0.1196 -1.5241  1.1358
 8734TIP3   OH247616   1.795   4.404   0.424 -0.0562  0.0609  0.0238
 8734TIP3    H147617   1.766   4.492   0.449  0.5570 -0.0355  1.1711
 8734TIP3    H247618   1.852   4.377   0.496  1.9990 -0.1699 -1.6024
 8735TIP3   OH247619   3.735   3.569   1.619 -0.0261  0.4635 -1.1118
 8735TIP3    H147620   3.679   3.643   1.597 -2.0218 -1.1514 -1.7726
 8735TIP3    H247621   3.704   3.498   1.563  1.0226 -1.2051  0.3232
 8736TIP3   OH247622   1.797   3.603   2.447  0.6829 -0.1433 -0.1677
 8736TIP3    H147623   1.710   3.584   2.482  0.5632 -0.2562 -0.5154
 8736TIP3    H247624   1.827   3.679   2.496  0.3020  0.0217 -0.1869
 8737TIP3   OH247625   6.145   4.917  14.894 -0.3380 -0.6140  0.3857
 8737TIP3    H147626   6.214   4.976  14.925  0.6939 -1.4889 -0.1874
 8737TIP3    H247627   6.068   4.941  14.945  0.6353 -0.2743  1.7454
 8738TIP3   OH247628   1.062   2.201   1.745 -0.1009  0.2253  0.0689
 8738TIP3    H147629   1.083   2.110   1.766 -1.0183  0.3032  1.4163
 8738TIP3    H247630   0.972   2.213   1.774 -0.3792  1.2644 -1.1153
 8739TIP3   OH247631   0.204   3.827  11.278 -0.2029 -0.2095  0.5615
 8739TIP3    H147632   0.215   3.878  11.198 -0.5067  0.1331  0.7372
 8739TIP3    H247633   0.290   3.786  11.292  0.5936  1.6184  1.3648
 8740TIP3   OH247634   4.128   5.343   5.539 -0.2485 -0.7051 -0.1209
 8740TIP3    H147635   4.070   5.415   5.560 -1.0158 -0.6339 -2.2577
 8740TIP3    H247636   4.099   5.271   5.596 -2.1696 -0.5373 -0.8134
 8741TIP3   OH247637   2.464   6.175  16.658 -0.1594  0.3146  0.1741
 8741TIP3    H147638   2.525   6.136  16.721  0.9878  1.5123 -0.1499
 8741TIP3    H247639   2.394   6.212  16.713 -0.0184 -0.0746  0.6262
 8742TIP3   OH247640   6.360   4.593  17.010  0.1318  0.0564  0.2191
 8742TIP3    H147641   6.438   4.542  17.033 -0.8191 -1.8763 -0.6566
 8742TIP3    H247642   6.322   4.547  16.935 -1.7266  1.0815  0.4771
 8743TIP3   OH247643   3.560   2.516  16.821  0.2097 -0.1116 -0.3472
 8743TIP3    H147644   3.639   2.568  16.803 -0.4498  0.2995 -2.1726
 8743TIP3    H247645   3.531   2.547  16.907  0.4395  1.7871 -0.9111
 8744TIP3   OH247646   2.867   4.297  15.209  0.7015  0.6883 -0.2028
 8744TIP3    H147647   2.798   4.231  15.201  0.9996  0.3144  0.1999
 8744TIP3    H247648   2.825   4.379  15.187 -0.0315  0.5491  0.5987
 8745TIP3   OH247649   4.436   5.560  16.136  0.3717 -0.3957 -0.7985
 8745TIP3    H147650   4.379   5.634  16.116 -1.2709 -1.3188  0.2653
 8745TIP3    H247651   4.379   5.484  16.130  1.2187 -1.2689  1.2296
 8746TIP3   OH247652   2.215   1.655   1.401 -0.8132 -0.0231  0.5428
 8746TIP3    H147653   2.224   1.672   1.494  2.7660  0.3678  0.2535
 8746TIP3    H247654   2.198   1.561   1.396  2.1743 -0.7419  1.6320
 8747TIP3   OH247655   1.160   3.304  14.099 -0.1500 -0.1559  0.4864
 8747TIP3    H147656   1.203   3.371  14.045  0.6781  0.4314  1.8277
 8747TIP3    H247657   1.067   3.317  14.083  0.0662  0.0167 -0.7659
 8748TIP3   OH247658   4.785   5.210   3.664 -0.1802  0.7963  0.5152
 8748TIP3    H147659   4.866   5.176   3.703  0.2029 -0.5941 -1.3891
 8748TIP3    H247660   4.719   5.198   3.732  0.1393 -2.9604  0.3643
 8749TIP3   OH247661   1.178   2.449  11.228  0.7348 -0.7462  0.3929
 8749TIP3    H147662   1.086   2.423  11.238  0.5140 -0.1642 -0.0212
 8749TIP3    H247663   1.215   2.382  11.170  0.3245 -0.4748 -0.1945
 8750TIP3   OH247664   0.746   2.800   5.427 -0.5335 -0.1967  0.4153
 8750TIP3    H147665   0.753   2.711   5.463  0.5015 -0.0286  0.6746
 8750TIP3    H247666   0.703   2.850   5.496  0.5854 -0.0904  1.0731
 8751TIP3   OH247667   4.735   2.396  13.233  0.5843 -0.9049  0.3618
 8751TIP3    H147668   4.712   2.304  13.242  2.0207 -1.2220  1.1374
 8751TIP3    H247669   4.757   2.425  13.321 -0.5600  0.4118  0.2544
 8752TIP3   OH247670   2.614   2.576  10.899  0.5895 -0.6333 -0.0381
 8752TIP3    H147671   2.548   2.545  10.837  1.9196 -1.1649 -1.2330
 8752TIP3    H247672   2.629   2.503  10.959  1.0207 -0.9728 -0.5591
 8753TIP3   OH247673   1.840   3.019  12.641 -0.2619 -0.5063 -0.3348
 8753TIP3    H147674   1.848   3.052  12.551  1.2301 -0.5957 -0.2490
 8753TIP3    H247675   1.818   2.926  12.630 -2.7377  0.0235 -0.5694
 8754TIP3   OH247676   0.338   2.600   2.554 -0.5792 -0.3706  0.0231
 8754TIP3    H147677   0.386   2.682   2.552 -0.0615 -0.6687 -1.9998
 8754TIP3    H247678   0.346   2.570   2.645  1.4280  0.5359  0.2062
 8755TIP3   OH247679   6.619   5.056  15.674  0.4270 -0.6255  0.2566
 8755TIP3    H147680   6.635   5.149  15.691 -0.6439 -0.6721  1.6682
 8755TIP3    H247681   6.538   5.054  15.624  0.9128 -0.7655 -0.5346
 8756TIP3   OH247682   4.634   3.372   2.690 -0.1573  0.2822  0.0894
 8756TIP3    H147683   4.565   3.365   2.757 -1.4705  0.1342 -1.2346
 8756TIP3    H247684   4.653   3.282   2.665 -1.0975  0.3884 -1.1095
 8757TIP3   OH247685   2.167   6.065   0.209 -0.0833 -0.7503  0.3755
 8757TIP3    H147686   2.252   6.032   0.239 -0.0072 -1.1739 -0.2864
 8757TIP3    H247687   2.175   6.070   0.114 -0.3901  0.3965  0.3973
 8758TIP3   OH247688   2.298   0.109   5.530 -0.4192 -0.1528 -0.1123
 8758TIP3    H147689   2.388   0.142   5.529 -0.0914 -1.0233 -1.3692
 8758TIP3    H247690   2.255   0.157   5.460 -0.4402 -0.9995 -0.6980
 8759TIP3   OH247691   2.518   3.243   0.072 -0.4736  0.3935 -0.0094
 8759TIP3    H147692   2.577   3.269   0.142  0.4077  2.2018 -1.3474
 8759TIP3    H247693   2.449   3.308   0.073 -0.6131  0.2635 -0.6289
 8760TIP3   OH247694   1.805   2.048   1.206 -0.0064 -0.0440 -0.5599
 8760TIP3    H147695   1.830   2.077   1.118 -1.5693  0.5420 -0.8532
 8760TIP3    H247696   1.732   2.106   1.230  1.2041  0.6746  1.6659
 8761TIP3   OH247697   0.647   3.270   4.647 -0.3299  0.3267 -0.3253
 8761TIP3    H147698   0.598   3.192   4.674 -0.5820  0.7269  0.4024
 8761TIP3    H247699   0.592   3.311   4.581 -1.2241  1.0113  0.8000
 8762TIP3   OH247700   1.121   1.143   5.831  0.1931 -0.7857  0.4918
 8762TIP3    H147701   1.104   1.097   5.913  2.5261 -0.7858  1.0491
 8762TIP3    H247702   1.202   1.192   5.847 -1.0911  1.9518 -0.7296
 8763TIP3   OH247703   4.568   1.614  15.442 -0.4995 -0.7042  0.0544
 8763TIP3    H147704   4.562   1.521  15.464  1.8023 -0.9554 -0.1904
 8763TIP3    H247705   4.661   1.634  15.444 -0.7919  1.1886 -1.6288
 8764TIP3   OH247706   0.859   6.226   0.257  0.0679 -0.1586  0.1356
 8764TIP3    H147707   0.910   6.219   0.176 -2.1672 -1.4887 -1.2523
 8764TIP3    H247708   0.914   6.183   0.323  1.6442  0.3525 -0.7880
 8765TIP3   OH247709   6.735   6.347  14.890 -0.0375  0.0700 -0.3959
 8765TIP3    H147710   6.759   6.287  14.961  2.0996  0.9025 -0.3576
 8765TIP3    H247711   6.793   6.323  14.817 -0.3706  0.9609 -0.9750
 8766TIP3   OH247712   1.242   5.400  13.927 -0.1322  0.9389  0.5233
 8766TIP3    H147713   1.209   5.318  13.963 -0.2895  1.8764  2.6808
 8766TIP3    H247714   1.321   5.418  13.978  0.1153  1.9466 -0.1899
 8767TIP3   OH247715   4.214   3.940  16.731  0.5755 -0.2981 -0.8409
 8767TIP3    H147716   4.137   3.892  16.763  1.8262 -1.1650  1.0142
 8767TIP3    H247717   4.280   3.929  16.799  2.0119  1.3602 -1.8640
 8768TIP3   OH247718   4.890   0.775   2.259 -0.0560 -0.2386  0.7452
 8768TIP3    H147719   4.868   0.685   2.285  2.2689 -0.1504  3.5061
 8768TIP3    H247720   4.875   0.777   2.164 -1.3431 -3.1451  0.7788
 8769TIP3   OH247721   1.986   6.574   3.775 -0.0706 -0.2834 -0.0004
 8769TIP3    H147722   2.024   6.487   3.761 -0.5045 -0.8289  1.9003
 8769TIP3    H247723   1.903   6.571   3.727  0.8280 -0.1675 -1.6256
 8770TIP3   OH247724   2.475   3.387  13.271 -0.1845  0.2974  0.4808
 8770TIP3    H147725   2.460   3.292  13.273 -0.0458  0.2525 -0.2108
 8770TIP3    H247726   2.403   3.421  13.219  0.4149  0.4286 -0.2768
 8771TIP3   OH247727   5.597   6.575  13.527  0.3218 -0.1824 -0.0571
 8771TIP3    H147728   5.606   6.480  13.529 -1.0663 -0.4042 -1.5426
 8771TIP3    H247729   5.524   6.594  13.586  2.0859  0.2779  2.1253
 8772TIP3   OH247730   1.232   2.782  12.868 -0.0727 -0.6075 -0.1370
 8772TIP3    H147731   1.200   2.735  12.945  1.4986  0.7425  1.4267
 8772TIP3    H247732   1.165   2.848  12.851  0.0476 -0.2292  0.7665
 8773TIP3   OH247733   1.521   5.082   4.436 -0.2617  0.2223  0.1807
 8773TIP3    H147734   1.478   5.080   4.350 -2.5028  0.1909  1.2124
 8773TIP3    H247735   1.452   5.113   4.496  1.3836  0.7480  1.8908
 8774TIP3   OH247736   5.577   4.717  12.444 -0.1065  0.7107  0.0306
 8774TIP3    H147737   5.626   4.760  12.374  0.8020  0.4818  0.5028
 8774TIP3    H247738   5.514   4.783  12.474 -0.2547  0.9311 -0.7486
 8775TIP3   OH247739   0.624   0.091   0.456 -0.3828  0.2833  0.1154
 8775TIP3    H147740   0.709   0.070   0.495  0.5480  1.2940 -1.2591
 8775TIP3    H247741   0.594   0.168   0.504 -1.0903 -0.7129  1.3413
 8776TIP3   OH247742   2.337   2.483  16.095  0.4596 -0.0784 -0.0100
 8776TIP3    H147743   2.316   2.396  16.060  2.5979 -0.6655  0.0312
 8776TIP3    H247744   2.432   2.481  16.108  0.2775  1.5494  1.9877
 8777TIP3   OH247745   4.021   1.914  14.249  0.4756 -0.0154 -0.4769
 8777TIP3    H147746   4.090   1.851  14.268  0.7464 -0.4535 -2.5994
 8777TIP3    H247747   4.056   1.966  14.176 -1.5585 -0.5670 -1.9434
 8778TIP3   OH247748   5.973   0.368   4.203 -0.5759 -0.8915  0.5395
 8778TIP3    H147749   6.049   0.332   4.157  0.6792 -0.2964  2.0418
 8778TIP3    H247750   5.910   0.388   4.134  0.8147 -0.9494 -0.8021
 8779TIP3   OH247751   5.799   4.413   2.128 -0.0585 -0.2430 -0.1737
 8779TIP3    H147752   5.827   4.496   2.089  1.0589 -1.1164 -1.3265
 8779TIP3    H247753   5.844   4.410   2.212 -0.6608  0.6297  0.1853
 8780TIP3   OH247754   5.586   0.098   4.301 -0.0904 -0.0231  0.1156
 8780TIP3    H147755   5.565   0.190   4.314 -1.3871 -0.2488 -0.2193
 8780TIP3    H247756   5.631   0.094   4.217  0.0833  0.3208  0.1934
 8781TIP3   OH247757   5.089   1.563  15.655  0.6852 -0.1209  0.2203
 8781TIP3    H147758   5.054   1.649  15.680  0.6478 -0.0417 -0.0992
 8781TIP3    H247759   5.086   1.512  15.735 -1.7299 -0.6492 -0.1237
 8782TIP3   OH247760   4.933   1.563   0.074 -0.0396  0.1180  0.1625
 8782TIP3    H147761   4.844   1.579   0.103 -0.6291 -0.3795 -1.2653
 8782TIP3    H247762   4.982   1.542   0.153 -1.5960 -1.4033  0.7637
 8783TIP3   OH247763   1.501   0.935   1.403 -0.3601  0.0534 -0.2944
 8783TIP3    H147764   1.450   1.006   1.441  1.0486  1.3084 -0.6854
 8783TIP3    H247765   1.550   0.975   1.332  1.4856 -0.9996  0.3064
 8784TIP3   OH247766   1.571   1.470   5.234  0.1103 -0.7570  0.1338
 8784TIP3    H147767   1.502   1.437   5.291  0.6963 -0.0780  1.2867
 8784TIP3    H247768   1.648   1.477   5.291  0.9138 -0.7278 -0.9165
 8785TIP3   OH247769   0.271   0.476  15.009 -0.2399 -0.0879  0.6236
 8785TIP3    H147770   0.328   0.406  14.977 -1.2904 -1.0804  0.8484
 8785TIP3    H247771   0.327   0.554  15.012  0.7163 -0.7051 -0.5028
 8786TIP3   OH247772   2.995   5.062  16.200 -0.1087  0.2461  0.2001
 8786TIP3    H147773   3.088   5.070  16.176  0.2147 -1.3956  0.8240
 8786TIP3    H247774   2.996   5.014  16.283 -1.5296  0.1587  0.1755
 8787TIP3   OH247775   0.037   6.535   1.145 -0.2854  0.2625  0.1284
 8787TIP3    H147776   0.065   6.576   1.227  1.3085  1.4800 -0.9541
 8787TIP3    H247777   0.061   6.599   1.077 -3.0158  0.0186 -1.2032
 8788TIP3   OH247778   1.618   6.788   1.286 -0.6824 -0.2576 -0.1489
 8788TIP3    H147779   1.590   6.750   1.369 -1.3671 -1.9335 -1.1063
 8788TIP3    H247780   1.565   6.745   1.220  0.3497  0.5075 -1.5509
 8789TIP3   OH247781   3.465   1.743   3.972 -0.4638 -0.1892 -0.3180
 8789TIP3    H147782   3.516   1.796   3.911 -1.3517  0.8584 -0.1650
 8789TIP3    H247783   3.530   1.708   4.032  0.4246 -1.2171 -1.8163
 8790TIP3   OH247784   1.339   3.911   0.781  0.0812  0.4896  0.1290
 8790TIP3    H147785   1.420   3.960   0.797  0.2357 -0.0395  1.0708
 8790TIP3    H247786   1.354   3.866   0.698  0.6810  0.5511  0.1988
 8791TIP3   OH247787   2.128   0.867  15.016 -0.1688 -0.5618  0.2816
 8791TIP3    H147788   2.155   0.945  14.969  0.6849 -0.4006  1.0064
 8791TIP3    H247789   2.074   0.900  15.088  2.0324 -0.3768  1.9498
 8792TIP3   OH247790   4.636   0.613   3.045 -0.1002 -0.0325  0.7210
 8792TIP3    H147791   4.629   0.708   3.040 -1.1990 -0.1232  0.2346
 8792TIP3    H247792   4.590   0.589   3.126  0.1518 -0.1554  0.8306
 8793TIP3   OH247793   0.062   5.579  11.461  0.3220  0.0585 -0.0988
 8793TIP3    H147794  -0.024   5.564  11.498  1.0168  0.2683  1.7149
 8793TIP3    H247795   0.050   5.650  11.398 -1.1136 -1.0957 -1.1791
 8794TIP3   OH247796   6.554   2.058   1.527 -0.0154  0.3906  0.3722
 8794TIP3    H147797   6.608   2.019   1.458  0.2093  1.7134 -0.2337
 8794TIP3    H247798   6.470   2.013   1.520  1.6983 -3.8575  3.2354
 8795TIP3   OH247799   3.595   3.028  10.913  0.6866  0.1946 -0.7087
 8795TIP3    H147800   3.557   3.116  10.907  0.5897  0.1613 -0.5778
 8795TIP3    H247801   3.596   2.997  10.822  0.2901  0.1504 -0.6998
 8796TIP3   OH247802   0.619   4.719   1.813 -0.1370  0.2500 -0.1217
 8796TIP3    H147803   0.606   4.724   1.908  0.0796  0.7916 -0.1175
 8796TIP3    H247804   0.608   4.809   1.782  0.3756  0.1776 -0.5369
 8797TIP3   OH247805   1.600   0.688   0.421  0.1315  0.1181  0.1985
 8797TIP3    H147806   1.550   0.712   0.343  0.6438  1.8691  0.3778
 8797TIP3    H247807   1.633   0.600   0.402 -0.1210  0.3293 -1.3658
 8798TIP3   OH247808   4.817   0.478  15.059  0.0180  0.1020 -0.4870
 8798TIP3    H147809   4.780   0.400  15.018 -0.7013 -1.1029  2.2360
 8798TIP3    H247810   4.743   0.520  15.102  0.8093  1.0509 -0.0217
 8799TIP3   OH247811   2.504   3.100  16.875  0.7867 -0.1169 -0.1121
 8799TIP3    H147812   2.418   3.113  16.916  1.2422  0.9318  0.5405
 8799TIP3    H247813   2.530   3.012  16.901  1.3115  0.6934  2.3917
 8800TIP3   OH247814   5.885   3.740  13.563  0.3616 -0.6250  0.3324
 8800TIP3    H147815   5.830   3.687  13.621 -0.0504  0.5434  1.0487
 8800TIP3    H247816   5.916   3.678  13.496  0.7146 -1.9801  1.6897
 8801TIP3   OH247817   0.587   1.985   1.841 -0.1283 -0.3919  0.1914
 8801TIP3    H147818   0.491   1.989   1.833 -0.0624 -0.1350 -0.4881
 8801TIP3    H247819   0.605   1.892   1.854 -0.7057 -0.1606  3.6712
 8802TIP3   OH247820   0.986   5.009  14.982  0.3251 -0.0233  0.4399
 8802TIP3    H147821   0.909   5.057  15.011  0.4200  1.3824 -1.4418
 8802TIP3    H247822   0.989   4.931  15.038 -1.8885  0.3801  1.1925
 8803TIP3   OH247823   2.602   1.177   5.825  0.4213  0.0655  0.1908
 8803TIP3    H147824   2.532   1.180   5.759  0.8613  1.3404 -0.2377
 8803TIP3    H247825   2.650   1.097   5.803  0.7032  0.5836 -1.2145
 8804TIP3   OH247826   3.968   1.640  11.254  0.0679 -0.2980  0.1842
 8804TIP3    H147827   3.997   1.584  11.182 -1.4943  0.9558 -1.5218
 8804TIP3    H247828   3.874   1.651  11.239 -0.0639  0.9822  1.7336
 8805TIP3   OH247829   1.271   3.281  16.583  0.1979 -0.4258 -0.2094
 8805TIP3    H147830   1.362   3.307  16.593  0.3653 -1.3677  0.9560
 8805TIP3    H247831   1.220   3.358  16.607  0.6898 -0.7881  2.2526
 8806TIP3   OH247832   2.675   2.068  14.316  0.0187 -0.1236 -0.0517
 8806TIP3    H147833   2.633   2.154  14.312 -0.2093 -0.2923 -2.6882
 8806TIP3    H247834   2.675   2.037  14.226  0.1681 -2.8835  0.8042
 8807TIP3   OH247835   2.128   2.607  15.970 -0.5035  0.1577  0.3466
 8807TIP3    H147836   2.082   2.523  15.961  0.4186 -0.4307  0.9896
 8807TIP3    H247837   2.214   2.584  16.004  0.1210  1.2893 -0.4187
 8808TIP3   OH247838   4.549   5.611  15.401  0.0445 -0.5680 -0.4440
 8808TIP3    H147839   4.547   5.545  15.332  0.3727  0.5767 -1.5860
 8808TIP3    H247840   4.505   5.687  15.364  4.4057  1.8672 -1.3849
 8809TIP3   OH247841   6.159   2.929  14.166  0.2039 -0.2038  0.0480
 8809TIP3    H147842   6.083   2.904  14.219 -0.8710 -0.3578 -1.5128
 8809TIP3    H247843   6.135   3.014  14.129 -0.2887 -1.2924 -2.3427
 8810TIP3   OH247844   1.200   3.539   1.604 -0.1498  0.1545 -0.5138
 8810TIP3    H147845   1.133   3.526   1.537  0.0722 -1.2112 -0.4938
 8810TIP3    H247846   1.151   3.557   1.684 -0.4851 -0.4020 -0.5896
 8811TIP3   OH247847   0.143   1.990  12.450 -0.7908 -0.1208 -0.3216
 8811TIP3    H147848   0.070   1.944  12.491  1.9801 -0.1660  5.5864
 8811TIP3    H247849   0.216   1.929  12.455  1.1847  2.1647  0.4907
 8812TIP3   OH247850   1.820   0.351  11.739 -0.3229  0.1671 -0.1810
 8812TIP3    H147851   1.780   0.306  11.813  1.6946  1.3879  1.7648
 8812TIP3    H247852   1.793   0.442  11.749 -0.2289  0.3059 -1.1214
 8813TIP3   OH247853   5.187   1.173  11.951  0.2807  0.5867  0.3998
 8813TIP3    H147854   5.101   1.134  11.939  0.3304 -0.3323  2.6121
 8813TIP3    H247855   5.207   1.212  11.866 -1.4526 -0.8472 -0.7520
 8814TIP3   OH247856   4.751   6.417   1.596  0.3119  0.1560  0.2428
 8814TIP3    H147857   4.822   6.461   1.641 -0.2768  2.0959 -0.6288
 8814TIP3    H247858   4.788   6.392   1.511  0.8189 -1.6470  0.9535
 8815TIP3   OH247859   5.749   3.074   5.416 -0.5404 -0.0479 -0.9743
 8815TIP3    H147860   5.720   3.114   5.498 -0.3237  0.3992 -1.1104
 8815TIP3    H247861   5.682   3.099   5.352 -0.8723 -0.6570 -0.8686
 8816TIP3   OH247862   0.138   2.090   1.667 -0.6756  0.2764 -0.3373
 8816TIP3    H147863   0.075   2.031   1.626 -0.8124  0.2766 -0.1307
 8816TIP3    H247864   0.205   2.104   1.600 -0.2603 -0.6905 -0.1315
 8817TIP3   OH247865   2.517   3.950   3.709  0.3659  0.1760  0.4813
 8817TIP3    H147866   2.579   3.879   3.693 -0.5833 -0.6472  0.3318
 8817TIP3    H247867   2.567   4.015   3.759  1.2195 -0.6462  0.7265
 8818TIP3   OH247868   4.351   3.531  10.957  0.0198 -0.0905  0.1790
 8818TIP3    H147869   4.443   3.557  10.968  0.0208 -0.3044  0.7252
 8818TIP3    H247870   4.355   3.437  10.940 -0.1849 -0.5206  2.2081
 8819TIP3   OH247871   1.908   2.749   2.300 -0.4364  0.0220  0.1931
 8819TIP3    H147872   1.822   2.745   2.258 -0.3095 -1.2216  0.0092
 8819TIP3    H247873   1.889   2.742   2.393 -0.5840  0.5627  0.2043
 8820TIP3   OH247874   1.751   6.473  11.777 -0.5096  0.2587  0.0066
 8820TIP3    H147875   1.803   6.465  11.856  0.6732  1.6134 -0.5976
 8820TIP3    H247876   1.798   6.422  11.711  0.6943  2.3241 -0.8103
 8821TIP3   OH247877   4.312   2.883   4.548 -0.1477  0.2886  0.0033
 8821TIP3    H147878   4.307   2.909   4.640 -1.2144 -0.9216  0.3235
 8821TIP3    H247879   4.228   2.840   4.531 -0.1735  0.9361 -1.6865
 8822TIP3   OH247880   4.194   2.037   2.815  0.2809 -0.2403 -0.1920
 8822TIP3    H147881   4.241   1.954   2.811  1.8474  0.6334 -1.1483
 8822TIP3    H247882   4.246   2.092   2.874  0.4193  0.7052 -1.1538
 8823TIP3   OH247883   2.560   4.787   3.377  0.2000 -0.1474 -0.1875
 8823TIP3    H147884   2.522   4.707   3.341  0.2729  0.0548 -0.7289
 8823TIP3    H247885   2.647   4.792   3.338  0.6154 -0.3546  0.6732
 8824TIP3   OH247886   5.697   1.093  16.882 -0.5702  0.7591 -0.3020
 8824TIP3    H147887   5.751   1.155  16.832 -0.5270  0.9271 -0.0494
 8824TIP3    H247888   5.621   1.144  16.910 -0.3370  0.8142  0.2555
 8825TIP3   OH247889   0.938   0.910  16.388  0.2249  0.1285  0.0425
 8825TIP3    H147890   0.948   0.908  16.293 -1.6499  0.8931 -0.2232
 8825TIP3    H247891   0.978   0.993  16.415  1.6005 -0.5220  0.0688
 8826TIP3   OH247892   3.600   5.932   2.706 -0.1819 -0.1179 -0.5290
 8826TIP3    H147893   3.597   5.952   2.800  0.9429 -1.6295 -0.1464
 8826TIP3    H247894   3.640   6.010   2.667  0.7344 -0.0803  0.4430
 8827TIP3   OH247895   0.468   4.899   2.271  0.3059 -0.2090  0.0056
 8827TIP3    H147896   0.391   4.884   2.216  1.0823 -0.2972 -1.0957
 8827TIP3    H247897   0.433   4.925   2.356 -1.0122 -3.0528  0.4185
 8828TIP3   OH247898   3.497   5.165   5.381 -0.3708 -0.7751  0.5941
 8828TIP3    H147899   3.587   5.133   5.393 -0.4013 -0.7156  1.0065
 8828TIP3    H247900   3.443   5.103   5.429 -0.5627 -0.8768  0.2446
 8829TIP3   OH247901   3.245   0.017  14.857  0.8033  0.3207 -0.7573
 8829TIP3    H147902   3.247   0.085  14.924  2.8207 -0.9959  0.6371
 8829TIP3    H247903   3.216  -0.062  14.903 -0.5305 -0.0336 -2.1152
 8830TIP3   OH247904   2.300   5.277  15.044 -0.4875  0.5283 -0.2733
 8830TIP3    H147905   2.316   5.208  14.980 -0.8224 -0.0340  0.2405
 8830TIP3    H247906   2.277   5.354  14.992  0.8941  0.5408 -0.8913
 8831TIP3   OH247907   0.389   0.225   5.144 -0.5622 -0.8802 -0.0001
 8831TIP3    H147908   0.405   0.212   5.051  0.7117  1.9983 -0.2825
 8831TIP3    H247909   0.362   0.316   5.152 -2.9283 -1.6321  2.2580
 8832TIP3   OH247910   3.954   4.239  10.915 -0.1216 -0.4177  0.8970
 8832TIP3    H147911   4.048   4.252  10.903  0.0140 -1.4597  0.7617
 8832TIP3    H247912   3.940   4.146  10.899 -1.6101  0.1967 -1.8474
 8833TIP3   OH247913   6.250   5.063  16.907 -0.5393 -0.1527 -0.5839
 8833TIP3    H147914   6.202   5.005  16.967 -0.3849  0.0422 -0.2701
 8833TIP3    H247915   6.340   5.031  16.909 -0.1991  0.8221  0.5056
 8834TIP3   OH247916   1.852   6.709   6.392 -0.2242  0.2414 -0.0448
 8834TIP3    H147917   1.819   6.638   6.336  0.0730  0.4877 -0.5368
 8834TIP3    H247918   1.773   6.752   6.425 -0.4136 -0.4705  0.4632
 8835TIP3   OH247919   3.913   1.375   5.918 -0.1274 -0.8632  0.2708
 8835TIP3    H147920   3.846   1.377   5.986 -1.6703 -0.4692 -1.1970
 8835TIP3    H247921   3.993   1.405   5.962 -1.3346  0.5358  1.6358
 8836TIP3   OH247922   2.079   1.357  14.454 -0.4919  0.2235  0.3995
 8836TIP3    H147923   2.108   1.447  14.464 -1.5092  1.0759 -3.0626
 8836TIP3    H247924   2.000   1.351  14.508  0.7040  0.6903  2.3099
 8837TIP3   OH247925   2.539   6.558   0.278  0.2998  0.3985 -0.0797
 8837TIP3    H147926   2.582   6.628   0.229 -0.0674 -0.2127 -1.3280
 8837TIP3    H247927   2.601   6.485   0.277 -0.7818 -0.5785 -2.1208
 8838TIP3   OH247928   5.243   5.073  11.148  0.2973 -0.0771  0.2864
 8838TIP3    H147929   5.210   5.012  11.082  1.2990 -0.0232 -0.2869
 8838TIP3    H247930   5.231   5.027  11.231 -1.5880  0.1156  0.1725
 8839TIP3   OH247931   5.869   6.555   0.954 -0.0781 -0.2191  0.0731
 8839TIP3    H147932   5.910   6.529   1.036  2.6195 -3.0376 -1.9637
 8839TIP3    H247933   5.790   6.502   0.949 -0.8188  0.7065  1.1959
 8840TIP3   OH247934   0.613   4.869   4.419  0.2982 -0.9191  0.3196
 8840TIP3    H147935   0.576   4.867   4.507  0.0115  0.5872  0.2682
 8840TIP3    H247936   0.658   4.786   4.410  1.5509 -0.5461  2.4289
 8841TIP3   OH247937   4.918   1.626  13.437  0.5360 -0.2000  0.5681
 8841TIP3    H147938   4.960   1.678  13.505  0.8514 -0.9650  0.9816
 8841TIP3    H247939   4.967   1.647  13.357 -0.0953  1.0086  0.4762
 8842TIP3   OH247940   4.450   3.011  12.803  0.1628 -0.1214  0.1891
 8842TIP3    H147941   4.393   2.957  12.748  0.1352 -0.5586  0.6427
 8842TIP3    H247942   4.498   2.948  12.857 -1.8371  0.3383  2.7108
 8843TIP3   OH247943   0.435   3.797   5.438  0.2303 -0.0518  0.2946
 8843TIP3    H147944   0.405   3.850   5.512  1.4364  1.3544 -0.1922
 8843TIP3    H247945   0.395   3.711   5.453 -1.8578  0.9927  1.0340
 8844TIP3   OH247946   4.009   4.451   2.149 -0.3043  0.2721 -0.8885
 8844TIP3    H147947   4.080   4.394   2.178  0.1197  0.3604 -1.7394
 8844TIP3    H247948   4.003   4.518   2.217 -2.6625 -2.2295  1.6510
 8845TIP3   OH247949   1.354   2.362  15.006  0.5273  0.1070  0.2252
 8845TIP3    H147950   1.300   2.308  14.948  0.2479  1.2217 -0.5854
 8845TIP3    H247951   1.295   2.387  15.078  0.1620  0.7033 -0.2708
 8846TIP3   OH247952   5.120   1.137  14.614  0.4334 -0.1093 -0.0017
 8846TIP3    H147953   5.055   1.173  14.674 -0.8739  1.0352 -2.0060
 8846TIP3    H247954   5.087   1.158  14.527  1.7566 -2.5745 -1.1985
 8847TIP3   OH247955   2.405   0.382   4.160  0.5368  0.2809  0.4033
 8847TIP3    H147956   2.430   0.429   4.239 -2.8051 -0.7382  2.2493
 8847TIP3    H247957   2.334   0.433   4.122  0.4395 -0.5261 -0.5623
 8848TIP3   OH247958   0.723   2.401   0.296  0.2033 -0.3328 -0.4339
 8848TIP3    H147959   0.711   2.469   0.230  1.0860 -0.7432 -1.0362
 8848TIP3    H247960   0.719   2.319   0.247 -0.9633 -0.7311  0.3031
 8849TIP3   OH247961   1.807   1.189   5.899 -0.2774 -0.3438  0.4442
 8849TIP3    H147962   1.864   1.148   5.965  1.7950  1.2565 -0.2519
 8849TIP3    H247963   1.803   1.281   5.924 -0.0233  0.1630 -1.2542
 8850TIP3   OH247964   4.490   6.136  13.636 -0.0532 -0.4409 -0.3253
 8850TIP3    H147965   4.438   6.214  13.618  0.4682  0.3617  1.4051
 8850TIP3    H247966   4.554   6.165  13.701  1.7959 -1.6885 -1.4973
 8851TIP3   OH247967   2.321   4.545  12.411  0.2003  0.1789  0.8090
 8851TIP3    H147968   2.318   4.489  12.489  0.3757  0.9298  1.3703
 8851TIP3    H247969   2.230   4.571  12.397 -0.0691 -1.2355 -0.2026
 8852TIP3   OH247970   1.776   5.618  15.983  0.7019  0.0962  0.2912
 8852TIP3    H147971   1.781   5.584  16.072 -1.6696 -0.9670  0.1028
 8852TIP3    H247972   1.867   5.628  15.955  1.4899 -0.2486  2.5485
 8853TIP3   OH247973   1.584   2.030  16.196 -0.1380  0.3202  0.2162
 8853TIP3    H147974   1.556   1.955  16.144 -0.1517  0.9574 -0.7272
 8853TIP3    H247975   1.503   2.068  16.230 -0.3717  1.3931 -1.4304
 8854TIP3   OH247976   1.254   3.590  16.796 -0.0848  0.3754 -0.1077
 8854TIP3    H147977   1.320   3.633  16.743 -1.1865  1.4700 -0.6238
 8854TIP3    H247978   1.179   3.577  16.737 -0.0531 -1.6469  0.2101
 8855TIP3   OH247979   2.026   6.431   0.834  0.6956 -0.1995 -0.3026
 8855TIP3    H147980   2.112   6.391   0.819  0.2072 -1.2150 -0.4915
 8855TIP3    H247981   1.982   6.372   0.895 -0.0104  0.1007 -0.5096
 8856TIP3   OH247982   4.332   5.000   0.780  1.0498 -0.3248 -0.1588
 8856TIP3    H147983   4.415   5.036   0.812  0.2469 -0.2165  1.9328
 8856TIP3    H247984   4.285   5.075   0.744  1.4229 -0.2074 -0.4075
 8857TIP3   OH247985   0.424   5.903  12.533 -0.1169  0.3134  0.5655
 8857TIP3    H147986   0.361   5.911  12.462 -0.0155 -0.3805  0.3909
 8857TIP3    H247987   0.399   5.822  12.578 -0.9041  1.3058  2.0414
 8858TIP3   OH247988   4.852   2.594   1.638  0.0236 -0.3102  0.2943
 8858TIP3    H147989   4.914   2.585   1.711  0.8966 -0.3006 -0.4191
 8858TIP3    H247990   4.831   2.687   1.636 -0.8819 -0.4772  1.2137
 8859TIP3   OH247991   4.482   5.307  17.087  0.0396 -0.1741 -0.0304
 8859TIP3    H147992   4.482   5.377  17.153 -2.2528 -0.6937  0.6154
 8859TIP3    H247993   4.395   5.312  17.047  1.1268 -0.2989 -2.6418
 8860TIP3   OH247994   1.158   5.347   4.936 -0.7194 -0.0806  0.3649
 8860TIP3    H147995   1.164   5.440   4.914  0.7981 -0.2354 -0.0068
 8860TIP3    H247996   1.101   5.310   4.869 -1.9707  0.6911  0.9668
 8861TIP3   OH247997   4.342   0.232  12.045  0.2273 -0.1112 -0.3705
 8861TIP3    H147998   4.308   0.279  12.120  0.8370  0.2891 -0.3385
 8861TIP3    H247999   4.434   0.215  12.066  0.6865  0.9062 -1.4383
 8862TIP3   OH248000   3.374   6.757   4.025 -0.3901  0.2663 -0.2531
 8862TIP3    H148001   3.442   6.711   3.975  0.2996  1.1991 -0.1966
 8862TIP3    H248002   3.365   6.841   3.981 -2.4030 -0.2884 -0.9988
 8863TIP3   OH248003   0.284   5.965  12.938 -0.2322  0.2330  0.0685
 8863TIP3    H148004   0.305   5.956  13.031  0.7021  0.6636 -0.0840
 8863TIP3    H248005   0.200   6.010  12.936  0.7682  2.2778  0.7288
 8864TIP3   OH248006   4.610   2.720   4.487 -0.0143 -0.5559  0.5193
 8864TIP3    H148007   4.629   2.773   4.564 -0.4491 -0.4868  0.5847
 8864TIP3    H248008   4.515   2.726   4.477  0.0699 -0.3163 -0.2004
 8865TIP3   OH248009   1.787   4.500  13.196  0.6261 -0.1341  0.0749
 8865TIP3    H148010   1.741   4.583  13.185  0.2508 -0.2465  0.6981
 8865TIP3    H248011   1.779   4.481  13.290  0.8460 -0.7941 -0.0332
 8866TIP3   OH248012   5.268   3.860   2.051  0.0566  0.1921  0.3143
 8866TIP3    H148013   5.356   3.864   2.014 -0.1493  0.6712 -0.1214
 8866TIP3    H248014   5.278   3.805   2.129  1.3419  2.5719  1.9459
 8867TIP3   OH248015   5.964   3.364   4.086 -0.1083  0.2055  0.0181
 8867TIP3    H148016   5.869   3.377   4.088 -0.3063 -0.9067 -0.9453
 8867TIP3    H248017   5.975   3.270   4.072  1.1283  0.4118 -0.5185
 8868TIP3   OH248018   2.004   4.126  16.251 -0.0808  0.4882 -0.2455
 8868TIP3    H148019   1.994   4.033  16.272  0.9025  0.5901  0.7783
 8868TIP3    H248020   2.081   4.154  16.300  0.3178  1.5883 -1.4318
 8869TIP3   OH248021   2.051   2.844   4.058 -0.5245 -0.2224 -0.2388
 8869TIP3    H148022   1.972   2.852   4.005  0.1339  1.4818 -1.0381
 8869TIP3    H248023   2.020   2.844   4.148 -1.4795  0.0419 -0.5620
 8870TIP3   OH248024   4.030   0.298  16.204 -0.6851  0.4067 -0.3441
 8870TIP3    H148025   3.958   0.334  16.151 -0.8406 -1.4901 -1.4946
 8870TIP3    H248026   4.098   0.366  16.201 -1.5067  1.2259 -1.2138
 8871TIP3   OH248027   4.731   4.046  16.444  0.5279  0.1572  0.0928
 8871TIP3    H148028   4.712   3.956  16.416  1.4305 -0.0239  0.0181
 8871TIP3    H248029   4.716   4.045  16.538 -1.9236  0.6061 -0.2365
 8872TIP3   OH248030   5.798   0.722  15.445 -0.5751 -0.0304  0.0666
 8872TIP3    H148031   5.800   0.672  15.527  0.7307  0.5280  0.3888
 8872TIP3    H248032   5.852   0.799  15.462  2.0294 -1.2038 -2.1492
 8873TIP3   OH248033   3.268   2.392   3.736  0.3850  0.4668  0.1931
 8873TIP3    H148034   3.282   2.375   3.643  0.4859 -2.0286  0.5863
 8873TIP3    H248035   3.187   2.443   3.740  0.4364  0.7021 -1.2466
 8874TIP3   OH248036   2.410   3.542   5.876 -0.6599 -0.1019 -0.0129
 8874TIP3    H148037   2.405   3.551   5.781  1.1478  0.1803 -0.1252
 8874TIP3    H248038   2.451   3.456   5.890  0.8382  0.6553  0.4285
 8875TIP3   OH248039   6.469   6.118   4.897 -0.2178 -0.0946 -0.2108
 8875TIP3    H148040   6.452   6.025   4.888  1.2610 -0.3565 -0.5930
 8875TIP3    H248041   6.535   6.124   4.967 -0.8942  0.7407  0.3872
 8876TIP3   OH248042   1.611   4.604  14.891  0.6935 -0.2882 -0.3896
 8876TIP3    H148043   1.595   4.689  14.934  1.4868  0.1935 -1.0121
 8876TIP3    H248044   1.560   4.608  14.810 -2.2053 -1.8823  1.1928
 8877TIP3   OH248045   5.320   4.534  13.710 -0.2898  0.3087  0.2969
 8877TIP3    H148046   5.256   4.547  13.780 -1.6755 -0.2799 -0.8030
 8877TIP3    H248047   5.304   4.444  13.680  0.8604  0.2580 -0.2042
 8878TIP3   OH248048   5.436   6.105   2.969  0.5136  0.5425 -0.2538
 8878TIP3    H148049   5.484   6.159   2.907  0.5165 -0.0356 -0.7655
 8878TIP3    H248050   5.504   6.070   3.028  0.9738 -1.5224 -1.9145
 8879TIP3   OH248051   5.429   2.200   2.977 -0.1809  0.8485 -0.1313
 8879TIP3    H148052   5.510   2.221   3.023 -0.9361  1.8088  0.8149
 8879TIP3    H248053   5.456   2.145   2.903  1.1202 -0.2832  1.1512
 8880TIP3   OH248054   0.982   1.013   4.166 -0.1317  0.9219 -0.1058
 8880TIP3    H148055   1.053   1.007   4.229 -1.1381 -1.2980  0.9266
 8880TIP3    H248056   1.020   1.058   4.091  2.4729 -0.4820  0.2791
 8881TIP3   OH248057   3.219   1.756   5.214  0.1176 -0.6777 -0.1229
 8881TIP3    H148058   3.245   1.725   5.301 -2.0509  0.9677  1.2209
 8881TIP3    H248059   3.165   1.685   5.179  0.9758 -1.3366 -0.1555
 8882TIP3   OH248060   1.530   2.443  15.861  0.2971  0.0438 -0.1363
 8882TIP3    H148061   1.470   2.401  15.798  0.7282  0.0579 -0.5635
 8882TIP3    H248062   1.519   2.393  15.942 -1.5450  1.0895  0.3147
 8883TIP3   OH248063   5.542   0.531   2.766 -0.1825  0.0192  0.4651
 8883TIP3    H148064   5.595   0.467   2.813 -0.4114  1.7705  3.3014
 8883TIP3    H248065   5.603   0.571   2.703  0.6984 -0.9290  0.6931
 8884TIP3   OH248066   5.113   5.719  15.390  0.1303 -0.3566 -0.2754
 8884TIP3    H148067   5.077   5.807  15.396 -0.1874 -0.2842 -2.3250
 8884TIP3    H248068   5.044   5.662  15.422 -0.0952  0.0754  0.0083
 8885TIP3   OH248069   6.238   1.577  12.826 -0.1050  0.5638  0.1640
 8885TIP3    H148070   6.147   1.579  12.857 -0.6111 -2.3413 -0.8036
 8885TIP3    H248071   6.233   1.594  12.732  0.3070  0.1199  0.0558
 8886TIP3   OH248072   5.911   4.192   5.154 -0.1229 -0.4732 -0.8671
 8886TIP3    H148073   6.001   4.223   5.140  0.2587 -1.8654 -1.7446
 8886TIP3    H248074   5.914   4.099   5.130 -1.4819 -0.8938  0.4334
 8887TIP3   OH248075   3.526   0.504  15.575 -0.1045  0.0234  0.1512
 8887TIP3    H148076   3.565   0.426  15.535 -1.3361 -1.1381  1.1581
 8887TIP3    H248077   3.521   0.484  15.668 -0.9894  1.0680  0.3499
 8888TIP3   OH248078   5.048   6.278   3.592 -0.6849  0.0843 -0.1407
 8888TIP3    H148079   5.013   6.284   3.681 -0.9287  0.6958 -0.2745
 8888TIP3    H248080   5.100   6.357   3.581 -0.3840 -0.1500 -0.4297
 8889TIP3   OH248081   0.109   3.430  11.896  0.0718 -0.2223 -0.5456
 8889TIP3    H148082   0.152   3.466  11.973  0.5682 -0.5581 -0.6669
 8889TIP3    H248083   0.130   3.492  11.826 -3.0814  1.9547  0.1973
 8890TIP3   OH248084   2.600   0.266   4.943 -0.4074  0.0698 -0.2394
 8890TIP3    H148085   2.593   0.312   4.860 -1.9067 -0.3774 -0.3808
 8890TIP3    H248086   2.561   0.325   5.007 -0.8710 -0.3210 -0.1545
 8891TIP3   OH248087   0.363   5.963   6.134 -0.1460  0.5978  0.1464
 8891TIP3    H148088   0.349   5.934   6.043 -2.3520  1.4864  0.1499
 8891TIP3    H248089   0.293   5.920   6.183  0.1331  1.3051  1.1783
 8892TIP3   OH248090   5.059   2.829  14.954  0.3111  0.1580  0.1530
 8892TIP3    H148091   5.153   2.831  14.932 -0.0902 -0.7239 -1.9266
 8892TIP3    H248092   5.019   2.885  14.888 -0.7356 -0.3067  0.3804
 8893TIP3   OH248093   4.720   2.704   6.513 -0.4952  0.5921 -0.0558
 8893TIP3    H148094   4.664   2.743   6.580 -1.6334  3.3637 -2.3847
 8893TIP3    H248095   4.659   2.679   6.443  0.8772  0.6646 -1.3368
 8894TIP3   OH248096   2.782   3.797   5.719 -0.0093  0.2731 -0.0063
 8894TIP3    H148097   2.862   3.847   5.734 -0.3034  0.4119  1.1910
 8894TIP3    H248098   2.713   3.863   5.710 -0.2174  0.1145  0.4191
 8895TIP3   OH248099   5.206   3.570  13.504  0.9720  0.4621  0.0218
 8895TIP3    H148100   5.145   3.621  13.559  1.6248  0.9718  0.3004
 8895TIP3    H248101   5.191   3.602  13.415  0.5778  0.3196  0.0350
 8896TIP3   OH248102   0.164   2.736   3.971  0.5490 -0.7941  0.2835
 8896TIP3    H148103   0.237   2.680   3.945  1.6274 -0.0549  1.5208
 8896TIP3    H248104   0.166   2.733   4.067  0.0839  0.6207  0.3639
 8897TIP3   OH248105   1.537   1.118  13.239 -0.1029 -0.1045  0.3840
 8897TIP3    H148106   1.530   1.211  13.215  1.1702  0.1664  0.9468
 8897TIP3    H248107   1.587   1.079  13.167 -1.1417 -0.4917 -0.1408
 8898TIP3   OH248108   3.648   5.938   1.967 -0.1445 -0.2818  0.0702
 8898TIP3    H148109   3.685   6.009   1.915 -0.0904  1.6284  2.5416
 8898TIP3    H248110   3.572   5.908   1.916  1.0273  0.0693 -2.0137
 8899TIP3   OH248111   2.127   1.382  13.225  0.8636 -0.0397  0.2700
 8899TIP3    H148112   2.047   1.385  13.172  0.3273  1.6176  1.1234
 8899TIP3    H248113   2.101   1.336  13.304  1.1320 -0.7022 -0.0185
 8900TIP3   OH248114   1.497   4.002   6.114  0.2235 -0.2785  0.1265
 8900TIP3    H148115   1.564   4.034   6.174  0.2742 -0.4080  0.1399
 8900TIP3    H248116   1.415   4.011   6.163  0.0598  1.1167 -0.3693
 8901TIP3   OH248117   1.198   4.048  13.796 -0.2792  0.1866  0.1820
 8901TIP3    H148118   1.110   4.016  13.814 -0.5398  0.8762  0.1514
 8901TIP3    H248119   1.204   4.131  13.843  1.1353 -0.8910  2.0234
 8902TIP3   OH248120   1.701   2.725  14.851  0.0685 -0.1772 -0.0337
 8902TIP3    H148121   1.642   2.654  14.874 -1.1934  0.6817 -0.5086
 8902TIP3    H248122   1.777   2.681  14.811 -0.2837 -1.2890  0.4801
 8903TIP3   OH248123   4.847   2.490   0.180 -0.5611  0.7785 -0.6188
 8903TIP3    H148124   4.810   2.528   0.260  1.2747  1.6225 -0.1052
 8903TIP3    H248125   4.772   2.480   0.121 -1.8291  0.8809  0.9150
 8904TIP3   OH248126   3.462   2.336  16.108  0.3997  0.7110 -0.3963
 8904TIP3    H148127   3.380   2.372  16.142  0.7528  1.2610 -0.1124
 8904TIP3    H248128   3.530   2.378  16.160  0.8682  0.3079 -0.6750
 8905TIP3   OH248129   2.668   1.194  11.980  0.3612 -0.1511  0.0366
 8905TIP3    H148130   2.600   1.193  11.912 -0.8091  1.6437  1.0784
 8905TIP3    H248131   2.650   1.117  12.033 -0.5871  0.0335  0.0106
 8906TIP3   OH248132   6.793   4.303  14.555  0.0238  0.0575 -0.2712
 8906TIP3    H148133   6.797   4.243  14.631  1.2228  0.6137  0.1244
 8906TIP3    H248134   6.777   4.245  14.481 -0.8103 -0.5420  0.3471
 8907TIP3   OH248135   5.515   5.726   0.503  0.1122  0.2213  0.2033
 8907TIP3    H148136   5.573   5.661   0.542 -0.2509  0.0918  0.5394
 8907TIP3    H248137   5.489   5.781   0.577 -1.6399 -0.8204  0.4051
 8908TIP3   OH248138   0.946   0.529   3.654  0.1152 -0.1581 -0.9259
 8908TIP3    H148139   0.855   0.535   3.681 -0.6594  0.6258 -3.4478
 8908TIP3    H248140   0.954   0.444   3.612  0.5033 -0.1783 -0.8163
 8909TIP3   OH248141   3.083   5.194   1.872 -0.4204  0.2312 -0.3941
 8909TIP3    H148142   3.174   5.222   1.877 -0.5837  0.5490  1.2831
 8909TIP3    H248143   3.087   5.098   1.877 -0.1123  0.1221 -2.0419
 8910TIP3   OH248144   5.905   6.420   4.723  0.3669 -0.2490  0.4420
 8910TIP3    H148145   5.840   6.416   4.653 -0.4079  1.0654  1.0432
 8910TIP3    H248146   5.981   6.462   4.682 -0.3358  1.1730  0.5278
 8911TIP3   OH248147   4.353   1.345   5.257 -0.2078  0.1403 -0.8944
 8911TIP3    H148148   4.324   1.265   5.214 -3.8412 -0.0081  1.3944
 8911TIP3    H248149   4.304   1.415   5.213 -1.7943  0.2879  0.9564
 8912TIP3   OH248150   3.373   4.424  15.524 -0.1019  0.2894 -0.2979
 8912TIP3    H148151   3.458   4.457  15.494  0.2571  0.6754  1.0753
 8912TIP3    H248152   3.394   4.363  15.595 -0.9784  0.4528  0.1180
 8913TIP3   OH248153   0.982   1.814  11.810 -0.3231 -0.6749 -0.4479
 8913TIP3    H148154   1.068   1.796  11.847  0.0888  1.2823 -0.3609
 8913TIP3    H248155   0.936   1.730  11.815  0.6799 -1.1729  1.8839
 8914TIP3   OH248156   4.140   2.634   4.775 -0.2987 -0.1325  0.4841
 8914TIP3    H148157   4.150   2.717   4.822  2.5931 -0.5128  0.6797
 8914TIP3    H248158   4.216   2.628   4.718 -1.4873 -1.7468 -1.0818
 8915TIP3   OH248159   5.162   5.336  15.213  1.4610  0.0201  0.0698
 8915TIP3    H148160   5.253   5.357  15.194  0.9819 -0.3722 -3.2273
 8915TIP3    H248161   5.114   5.416  15.191  0.9043 -0.1651  0.5861
 8916TIP3   OH248162   2.579   2.725   1.985 -0.8765  0.3838  0.0404
 8916TIP3    H148163   2.532   2.667   1.925 -1.1848 -0.1656  0.7963
 8916TIP3    H248164   2.593   2.672   2.064  0.3354  0.7893  0.1188
 8917TIP3   OH248165   1.834   2.325  12.786  0.4259 -0.4978 -0.4095
 8917TIP3    H148166   1.776   2.285  12.851  0.1492  0.3704 -0.0987
 8917TIP3    H248167   1.889   2.385  12.836 -0.8336  1.3528 -1.1110
 8918TIP3   OH248168   3.089   4.359   3.337 -0.2409  0.1165  0.2227
 8918TIP3    H148169   3.038   4.383   3.260  1.0068  1.8874 -0.1231
 8918TIP3    H248170   3.042   4.285   3.376 -2.0516  0.5516 -1.0378
 8919TIP3   OH248171   3.938   6.783  14.019 -0.3553 -0.4734  0.0143
 8919TIP3    H148172   3.890   6.726  14.079  1.3476 -0.2663  1.6872
 8919TIP3    H248173   3.885   6.863  14.014 -0.2196 -0.2356  1.8183
 8920TIP3   OH248174   2.975   6.269  10.931 -0.2133  0.4113  0.2378
 8920TIP3    H148175   2.952   6.354  10.969 -0.3082  0.3666  0.2813
 8920TIP3    H248176   2.949   6.205  10.998 -2.4237  0.1718 -0.7938
 8921TIP3   OH248177   6.372   5.095  15.538 -0.4634 -0.3767  0.3702
 8921TIP3    H148178   6.382   5.140  15.455  1.0787  0.0711  0.7586
 8921TIP3    H248179   6.308   5.147  15.587 -0.9441 -0.3245 -0.3029
 8922TIP3   OH248180   4.820   3.449   5.593  0.3432  0.2051  0.6913
 8922TIP3    H148181   4.914   3.434   5.585  0.3883 -0.3445  2.0993
 8922TIP3    H248182   4.810   3.544   5.584  0.5382  0.0518 -3.6341
 8923TIP3   OH248183   2.639   2.203  11.456 -0.5731  0.0134 -0.2730
 8923TIP3    H148184   2.658   2.117  11.495  0.2493  1.1628  2.1199
 8923TIP3    H248185   2.550   2.222  11.483 -0.1498  0.6281  0.7569
 8924TIP3   OH248186   3.318   4.566   4.434 -0.2586 -0.2912 -0.2745
 8924TIP3    H148187   3.362   4.646   4.463 -1.8068  0.1776  0.9797
 8924TIP3    H248188   3.273   4.592   4.353  1.7044 -0.7801 -1.5691
 8925TIP3   OH248189   3.102   3.245  12.151  0.9410  0.4804 -0.4596
 8925TIP3    H148190   3.121   3.278  12.239 -0.5580  0.7102 -0.1918
 8925TIP3    H248191   3.038   3.307  12.116  1.2522  0.1860 -1.5816
 8926TIP3   OH248192   0.844   2.319  17.156  0.3432 -0.4174 -0.4953
 8926TIP3    H148193   0.775   2.253  17.152  1.1312 -1.2154 -1.3154
 8926TIP3    H248194   0.907   2.284  17.219  0.1559  0.1755  0.0373
 8927TIP3   OH248195   0.551   1.665   6.017 -0.1421 -0.2100 -1.0577
 8927TIP3    H148196   0.530   1.758   6.011  1.2747  0.2075  0.0785
 8927TIP3    H248197   0.627   1.661   6.075  1.2269 -1.8614 -2.8461
 8928TIP3   OH248198   4.176   4.399  11.653 -0.4961 -0.7475 -0.4589
 8928TIP3    H148199   4.262   4.386  11.693 -1.2239 -2.7133  0.6035
 8928TIP3    H248200   4.149   4.486  11.684 -0.3031 -1.5038  2.0326
 8929TIP3   OH248201   3.230   4.888  13.434  0.1845 -0.1809 -0.1043
 8929TIP3    H148202   3.288   4.842  13.374 -0.4223  1.7620 -2.3118
 8929TIP3    H248203   3.285   4.909  13.510  2.1613  0.8136 -1.7314
 8930TIP3   OH248204   2.577   0.658  13.706  0.5090  0.3094  0.3499
 8930TIP3    H148205   2.644   0.591  13.721 -0.9547 -1.3284  0.0040
 8930TIP3    H248206   2.506   0.635  13.766 -0.3074  1.1300 -0.2671
 8931TIP3   OH248207   5.008   3.670  13.668  0.0525 -0.2291 -0.0283
 8931TIP3    H148208   5.023   3.754  13.710  0.3992 -0.9107  1.2705
 8931TIP3    H248209   4.917   3.673  13.638  0.6519  1.3540 -1.8214
 8932TIP3   OH248210   1.066   3.665  13.264 -0.0235  0.2894  0.1751
 8932TIP3    H148211   1.064   3.751  13.222 -0.2368  0.4149  0.4381
 8932TIP3    H248212   0.974   3.638  13.269 -0.2023  1.0556  2.1391
 8933TIP3   OH248213   3.075   3.203  15.415  0.1205 -0.3179  0.1105
 8933TIP3    H148214   2.981   3.214  15.399  0.6329  1.4654 -2.2557
 8933TIP3    H248215   3.107   3.292  15.430  1.6131 -0.7074 -0.5887
 8934TIP3   OH248216   2.899   0.670   1.619 -0.1816 -0.1639 -0.1942
 8934TIP3    H148217   2.894   0.741   1.555 -2.2071 -0.4106 -0.3623
 8934TIP3    H248218   2.883   0.712   1.704  0.3740 -0.1710 -0.0788
 8935TIP3   OH248219   6.390   3.401   6.207 -0.0798 -0.1962  0.0689
 8935TIP3    H148220   6.398   3.485   6.252  0.2274  0.5887 -1.3626
 8935TIP3    H248221   6.461   3.348   6.243  2.2114  1.4743 -1.5841
 8936TIP3   OH248222   6.526   5.983  11.503 -0.0119  0.3057 -0.0941
 8936TIP3    H148223   6.544   5.952  11.414 -1.4282  0.8388 -0.5983
 8936TIP3    H248224   6.537   6.078  11.497  1.9223  0.1806  0.8367
 8937TIP3   OH248225   2.818   2.914   4.684  0.9195  0.1049  0.2703
 8937TIP3    H148226   2.826   2.986   4.747 -0.6887  1.5318 -1.0289
 8937TIP3    H248227   2.802   2.958   4.600 -0.6714 -1.7609 -0.4919
 8938TIP3   OH248228   6.041   3.157  11.924 -0.3739  0.0695  0.2228
 8938TIP3    H148229   6.053   3.245  11.888  1.1846  0.1131  0.7550
 8938TIP3    H248230   6.014   3.104  11.849 -0.1179  0.7582 -0.3697
 8939TIP3   OH248231   4.006   0.891   1.834 -0.1617  0.7275 -0.2044
 8939TIP3    H148232   3.974   0.892   1.924 -1.5578 -0.2315 -0.6512
 8939TIP3    H248233   4.038   0.802   1.821  0.4420  0.9862 -0.5375
 8940TIP3   OH248234   4.443   1.674  11.498  0.1906  0.7694  0.1694
 8940TIP3    H148235   4.450   1.757  11.546 -0.9094  0.5659  0.7078
 8940TIP3    H248236   4.349   1.662  11.484  0.4503  0.4336 -1.3882
 8941TIP3   OH248237   3.072   5.969  13.788 -0.2070 -0.5547 -0.4738
 8941TIP3    H148238   3.086   6.037  13.722  0.1672  1.4341  1.5562
 8941TIP3    H248239   2.990   5.993  13.830  1.7493  0.9896  2.8153
 8942TIP3   OH248240   0.328   4.270   4.945 -0.5183 -0.1218 -0.5292
 8942TIP3    H148241   0.392   4.341   4.948 -0.0774 -0.5034 -0.8221
 8942TIP3    H248242   0.267   4.290   5.016  0.8730 -0.6372  0.8891
 8943TIP3   OH248243   0.695   1.818   2.555  0.3566 -0.0099  0.0056
 8943TIP3    H148244   0.718   1.726   2.544 -1.7659 -0.4956 -0.9474
 8943TIP3    H248245   0.675   1.826   2.648  2.4867  0.0319  0.5118
 8944TIP3   OH248246   1.635   0.679   2.021 -0.0715 -0.4220  0.1450
 8944TIP3    H148247   1.582   0.727   1.957  1.5027  0.0242 -0.8846
 8944TIP3    H248248   1.725   0.688   1.989  1.2269  2.2656  3.9261
 8945TIP3   OH248249   2.042   6.085  17.068  0.0075 -0.2714  0.1694
 8945TIP3    H148250   2.068   5.993  17.071 -1.1147 -0.7954 -2.9159
 8945TIP3    H248251   2.124   6.133  17.053  0.4324 -0.8736  0.5179
 8946TIP3   OH248252   3.868   0.639   3.920 -0.3453  0.0449  0.2067
 8946TIP3    H148253   3.783   0.612   3.886  0.3971 -1.8470 -0.2485
 8946TIP3    H248254   3.878   0.589   4.001  0.2703  0.3620  0.3313
 8947TIP3   OH248255   0.559   6.674  16.606 -0.1399 -0.2812 -0.2103
 8947TIP3    H148256   0.496   6.652  16.674  0.2358 -1.9005 -0.3401
 8947TIP3    H248257   0.602   6.754  16.637  1.1139 -1.8174  2.2628
 8948TIP3   OH248258   1.277   6.142   4.054 -0.1924 -0.3034  0.0804
 8948TIP3    H148259   1.350   6.090   4.089  0.3708 -0.0846 -0.7358
 8948TIP3    H248260   1.319   6.218   4.015 -0.9513  0.3614  0.5336
 8949TIP3   OH248261   3.464   1.160   1.617 -0.1421 -0.0749 -0.0764
 8949TIP3    H148262   3.428   1.120   1.538 -0.3217  0.7329 -0.4089
 8949TIP3    H248263   3.527   1.096   1.650  0.3004 -0.1961 -1.1419
 8950TIP3   OH248264   1.686   1.438  14.560  0.1802 -0.1480 -0.2629
 8950TIP3    H148265   1.632   1.516  14.546 -0.3106 -0.1947  1.2519
 8950TIP3    H248266   1.658   1.377  14.491 -0.0089  0.7076 -0.9545
 8951TIP3   OH248267   5.053   1.044   4.356 -0.0060  0.1356  0.1340
 8951TIP3    H148268   5.049   1.035   4.260 -0.0220 -0.6193  0.1948
 8951TIP3    H248269   4.970   1.084   4.380 -0.5911 -0.9332 -0.0514
 8952TIP3   OH248270   0.030   0.576   3.938 -0.1290 -0.0659 -0.3685
 8952TIP3    H148271   0.093   0.602   3.871 -1.8442  2.3718 -1.1739
 8952TIP3    H248272   0.059   0.621   4.017 -0.1495  0.0449 -0.4235
 8953TIP3   OH248273   2.279   4.666   3.882  0.3388  0.5239  0.4803
 8953TIP3    H148274   2.330   4.590   3.909 -2.9552 -2.3500 -0.6629
 8953TIP3    H248275   2.289   4.670   3.787 -1.3432 -0.0465  0.2413
 8954TIP3   OH248276   0.560   5.117  11.472 -0.0873  0.0379  0.2993
 8954TIP3    H148277   0.639   5.168  11.453 -1.0884  1.2889 -0.6816
 8954TIP3    H248278   0.536   5.077  11.388  0.6069 -2.0110  1.0241
 8955TIP3   OH248279   3.256   2.252  12.024  0.2065 -0.1329 -0.4559
 8955TIP3    H148280   3.200   2.182  11.989  1.1155  0.9802 -4.8113
 8955TIP3    H248281   3.340   2.210  12.040  0.6414 -0.2502 -2.7085
 8956TIP3   OH248282   3.366   3.352   4.211 -0.3554 -0.1461  0.5158
 8956TIP3    H148283   3.370   3.263   4.177  2.2065  0.8199 -2.1292
 8956TIP3    H248284   3.392   3.344   4.302 -2.2034 -2.2499  0.9600
 8957TIP3   OH248285   6.110   4.643   6.623  0.4507 -0.0238 -0.4168
 8957TIP3    H148286   6.055   4.580   6.576  0.1450 -0.5229  0.6065
 8957TIP3    H248287   6.084   4.635   6.714  1.5585  0.4335 -0.0523
 8958TIP3   OH248288   2.215   1.891   4.593 -0.1675 -0.8489 -0.4541
 8958TIP3    H148289   2.140   1.915   4.647 -1.6242 -0.3777 -2.5545
 8958TIP3    H248290   2.220   1.795   4.599 -1.5937 -0.9859 -1.0520
 8959TIP3   OH248291   5.525   2.950   3.136 -0.3337 -0.2983 -0.0439
 8959TIP3    H148292   5.455   3.014   3.143 -0.8079 -0.9195  1.4394
 8959TIP3    H248293   5.524   2.923   3.044 -1.6535  0.1344 -0.1798
 8960TIP3   OH248294   1.940   6.005  14.894 -0.6635  0.6350 -0.2555
 8960TIP3    H148295   2.005   5.999  14.824  0.0305 -1.5032  0.5026
 8960TIP3    H248296   1.859   6.028  14.849 -0.5025 -1.8262 -1.9923
 8961TIP3   OH248297   1.364   3.702  16.392  0.0291  0.0677 -0.5197
 8961TIP3    H148298   1.350   3.697  16.487  2.1146  0.8365 -0.1217
 8961TIP3    H248299   1.284   3.666  16.355 -0.8795 -0.2024  1.5250
 8962TIP3   OH248300   0.106   0.523   3.449 -0.2830  0.0781  0.1331
 8962TIP3    H148301   0.063   0.528   3.363 -0.4469  0.0628  0.2149
 8962TIP3    H248302   0.181   0.582   3.441 -1.1482  1.2488  0.4717
 8963TIP3   OH248303   5.145   1.680  11.096  0.1027 -0.3207 -0.3343
 8963TIP3    H148304   5.109   1.592  11.083  1.1308 -0.3915 -3.6408
 8963TIP3    H248305   5.159   1.713  11.008  2.0257  2.2509  0.8106
 8964TIP3   OH248306   0.136   5.465   6.137  0.0682  0.7791  0.2803
 8964TIP3    H148307   0.221   5.476   6.095  1.5424  0.8122  3.0258
 8964TIP3    H248308   0.092   5.549   6.125  0.1551  0.5884 -1.6251
 8965TIP3   OH248309   0.689   5.992  13.863  0.3047 -0.4650  0.1072
 8965TIP3    H148310   0.607   5.943  13.870 -0.5527  1.0741  1.4068
 8965TIP3    H248311   0.726   5.990  13.951  0.7487  0.3636 -0.0459
 8966TIP3   OH248312   2.242   5.920  15.065  0.4099 -0.1370  0.2505
 8966TIP3    H148313   2.163   5.951  15.021  0.4238 -0.3424  0.0761
 8966TIP3    H248314   2.259   5.984  15.133  1.5728  1.3606 -1.3675
 8967TIP3   OH248315   3.768   4.020   5.037 -0.5498 -0.1404  0.3038
 8967TIP3    H148316   3.782   4.112   5.015 -1.5835  0.1287  0.7123
 8967TIP3    H248317   3.844   3.975   5.000  0.3538  0.9612  0.7270
 8968TIP3   OH248318   2.829   3.532  16.029 -0.3061 -0.4024 -0.1220
 8968TIP3    H148319   2.859   3.490  16.109 -1.3060  0.5148  0.7630
 8968TIP3    H248320   2.825   3.625  16.050 -1.0830 -0.1986 -1.0626
 8969TIP3   OH248321   2.523   2.296  14.301  0.0665 -0.4613  0.3123
 8969TIP3    H148322   2.510   2.384  14.334  0.6225 -0.5922  0.8882
 8969TIP3    H248323   2.497   2.301  14.209  0.9526  0.5168  0.0987
 8970TIP3   OH248324   1.942   6.797   0.844 -0.5841 -0.0214  0.6908
 8970TIP3    H148325   1.850   6.773   0.854 -1.4156  0.9201 -3.1691
 8970TIP3    H248326   1.971   6.749   0.767  1.9398  0.4129  1.3016
 8971TIP3   OH248327   3.477   0.605  11.420  0.7324  0.6733 -0.3123
 8971TIP3    H148328   3.517   0.676  11.371 -1.3049  2.5891  0.6177
 8971TIP3    H248329   3.419   0.561  11.358  2.2054 -0.4325 -0.9630
 8972TIP3   OH248330   3.147   4.609   4.221 -0.0226 -0.3295  0.0544
 8972TIP3    H148331   3.062   4.620   4.179  0.5374 -1.4342 -1.4607
 8972TIP3    H248332   3.199   4.682   4.189 -0.2699  0.1509  0.7123
 8973TIP3   OH248333   0.842   3.258   2.908  0.0696 -0.0235 -0.0807
 8973TIP3    H148334   0.770   3.199   2.930  0.5301 -0.4968  0.1814
 8973TIP3    H248335   0.890   3.269   2.990 -2.0787  3.7187  0.9120
 8974TIP3   OH248336   1.529   6.560  10.809 -0.3319 -0.3237  0.6154
 8974TIP3    H148337   1.617   6.525  10.795 -0.5758 -1.3321  1.4323
 8974TIP3    H248338   1.474   6.482  10.819 -1.1117  0.2897  1.2927
 8975TIP3   OH248339   2.451   2.602   2.260  0.1726  0.6142 -0.3080
 8975TIP3    H148340   2.475   2.581   2.351 -0.2122 -0.0331 -0.3486
 8975TIP3    H248341   2.474   2.524   2.210  1.6242  1.4468 -1.0145
 8976TIP3   OH248342   4.437   6.443  14.202  0.3264  0.3374 -0.1944
 8976TIP3    H148343   4.374   6.403  14.143  0.1373 -2.5803  1.8017
 8976TIP3    H248344   4.385   6.501  14.258  0.0016  0.6032 -0.7679
 8977TIP3   OH248345   0.247   4.192  11.281 -0.5456 -0.5055 -0.0738
 8977TIP3    H148346   0.198   4.174  11.200 -0.3393  1.3402 -0.6735
 8977TIP3    H248347   0.339   4.187  11.255 -0.4795  0.2791 -0.0259
 8978TIP3   OH248348   5.227   2.732   0.966  0.2114  0.4488  0.0053
 8978TIP3    H148349   5.286   2.772   1.030 -0.8121  2.0755 -0.0199
 8978TIP3    H248350   5.168   2.678   1.018 -0.4090  1.5043  0.4314
 8979TIP3   OH248351   0.582   6.645  15.938 -0.3412  0.1129 -0.2787
 8979TIP3    H148352   0.505   6.617  15.987 -1.2728  0.6716 -1.3875
 8979TIP3    H248353   0.655   6.603  15.983 -1.2142  0.0818  1.1846
 8980TIP3   OH248354   3.638   6.173  16.953 -0.0515  0.1739  0.5048
 8980TIP3    H148355   3.613   6.089  16.915  0.1656  1.5345 -3.0578
 8980TIP3    H248356   3.586   6.237  16.904  1.0105  2.2348  1.9271
 8981TIP3   OH248357   0.702   3.378  13.335 -0.0631  0.2615 -0.3086
 8981TIP3    H148358   0.680   3.297  13.382  1.2087 -0.3326 -0.6764
 8981TIP3    H248359   0.660   3.369  13.250 -0.0531  0.0590 -0.2925
 8982TIP3   OH248360   4.542   5.863  14.821 -0.6925  0.8773  0.6069
 8982TIP3    H148361   4.549   5.842  14.915 -0.2800  0.6811  0.5342
 8982TIP3    H248362   4.626   5.833  14.784 -1.0476  0.5135  0.0917
 8983TIP3   OH248363   3.060   3.264   1.897  0.0618  0.4944  0.2164
 8983TIP3    H148364   3.114   3.204   1.949  1.3630  0.1581 -1.4476
 8983TIP3    H248365   3.121   3.332   1.868 -0.6760  0.7722 -0.7324
 8984TIP3   OH248366   3.404   3.669   0.080 -0.0847  0.5731 -0.0800
 8984TIP3    H148367   3.446   3.699  -0.001  0.1005  1.2384  0.2500
 8984TIP3    H248368   3.331   3.730   0.092 -0.6963 -0.1249 -0.2617
 8985TIP3   OH248369   1.588   1.643   4.683 -0.3209  0.1893 -0.4179
 8985TIP3    H148370   1.586   1.719   4.741  1.6484  0.8564 -1.1489
 8985TIP3    H248371   1.585   1.680   4.595 -2.6194 -0.7821 -0.8432
 8986TIP3   OH248372   5.352   1.657   5.852  0.0159 -0.2774 -0.6783
 8986TIP3    H148373   5.274   1.637   5.800 -0.7785 -0.2107  0.4351
 8986TIP3    H248374   5.353   1.589   5.921 -0.5361  1.1879  0.8427
 8987TIP3   OH248375   3.929   4.719  11.259 -0.1717 -0.3441 -0.1267
 8987TIP3    H148376   3.844   4.760  11.273 -0.4924 -1.1646  0.4306
 8987TIP3    H248377   3.909   4.640  11.208  0.1309 -1.0097  0.7574
 8988TIP3   OH248378   2.527   3.390  12.557 -0.4924  0.1863 -0.2876
 8988TIP3    H148379   2.493   3.475  12.531 -0.4541  0.2300 -0.1978
 8988TIP3    H248380   2.618   3.407  12.581  0.5682 -0.4467 -3.3916
 8989TIP3   OH248381   0.465   5.095  16.367 -0.3692 -0.5510  0.2848
 8989TIP3    H148382   0.482   5.173  16.420  1.5018 -1.1569  0.6731
 8989TIP3    H248383   0.437   5.130  16.282  0.0892  0.5407  0.5656
 8990TIP3   OH248384   3.973   2.562   2.385  0.1098  0.3581 -0.2943
 8990TIP3    H148385   3.908   2.568   2.455 -0.8980 -1.7622 -0.9731
 8990TIP3    H248386   3.985   2.653   2.355 -1.5310  0.9514  0.7372
 8991TIP3   OH248387   5.203   5.106   6.111  0.0728 -0.3977  0.0949
 8991TIP3    H148388   5.223   5.182   6.056  0.3833  1.0317  2.0676
 8991TIP3    H248389   5.288   5.068   6.131  0.0765 -0.1333  0.6074
 8992TIP3   OH248390   5.884   2.221   2.333  0.1886 -0.0852 -0.3929
 8992TIP3    H148391   5.865   2.163   2.407 -1.6611 -1.8286 -2.1151
 8992TIP3    H248392   5.978   2.211   2.319  0.4259 -0.3765  1.1704
 8993TIP3   OH248393   3.239   6.170   2.197  0.0322 -0.2387 -0.3288
 8993TIP3    H148394   3.291   6.191   2.119 -1.8941  1.9172 -1.1459
 8993TIP3    H248395   3.292   6.200   2.270  0.5867  0.5301 -1.0252
 8994TIP3   OH248396   5.902   1.734   2.233 -0.1057 -0.0928  0.5273
 8994TIP3    H148397   5.810   1.721   2.211 -0.0884 -0.9823  0.9538
 8994TIP3    H248398   5.944   1.650   2.211  0.6510  0.3838  0.1006
 8995TIP3   OH248399   4.055   4.244  11.263 -0.3012  0.1033  0.3875
 8995TIP3    H148400   4.007   4.286  11.192 -0.7771  0.0535  0.6706
 8995TIP3    H248401   4.024   4.288  11.342 -0.1305 -0.1590  0.6027
 8996TIP3   OH248402   6.150   4.397   4.812  0.0252 -0.3134 -0.2357
 8996TIP3    H148403   6.228   4.361   4.770 -2.0333 -2.8129 -2.2029
 8996TIP3    H248404   6.118   4.463   4.751  0.9746  1.3275  0.9682
 8997TIP3   OH248405   6.268   5.932  13.720  0.1725  0.6008  0.0622
 8997TIP3    H148406   6.223   5.848  13.708  0.1872  0.6942 -0.6660
 8997TIP3    H248407   6.298   5.956  13.633 -2.1251  2.6480 -0.2766
 8998TIP3   OH248408   5.265   4.927  11.420 -0.0552 -0.0918 -0.1196
 8998TIP3    H148409   5.335   4.864  11.401 -0.5329 -0.3673 -1.0438
 8998TIP3    H248410   5.312   5.009  11.441  0.5604 -0.0262 -1.6131
 8999TIP3   OH248411   1.381   1.799  16.999  0.0980 -0.1367  0.1192
 8999TIP3    H148412   1.470   1.820  16.970  0.4915  1.3930  2.2221
 8999TIP3    H248413   1.391   1.766  17.088 -1.3030 -2.0256 -0.3385
 9000TIP3   OH248414   0.052   2.823  16.757 -0.5973  0.4302 -0.2180
 9000TIP3    H148415   0.071   2.856  16.669 -2.0322 -2.4373 -1.7497
 9000TIP3    H248416  -0.038   2.849  16.774 -0.2222  1.2571  0.5907
 9001TIP3   OH248417   2.591   2.651  15.416  0.5030  0.1073 -0.0374
 9001TIP3    H148418   2.680   2.683  15.428  0.3505  0.6739 -0.3925
 9001TIP3    H248419   2.535   2.723  15.446  0.1646 -0.3292  0.3915
 9002TIP3   OH248420   3.374   2.123  15.455  0.3300  0.4570  0.3943
 9002TIP3    H148421   3.333   2.167  15.529  0.6475  0.8172  0.3548
 9002TIP3    H248422   3.458   2.167  15.443  1.6735 -1.5348  1.7505
 9003TIP3   OH248423   6.689   3.678  12.278  0.0874 -0.4036 -0.1544
 9003TIP3    H148424   6.659   3.737  12.209 -1.5024  0.0538  0.8652
 9003TIP3    H248425   6.772   3.642  12.246 -0.0456  0.6679 -1.7707
 9004TIP3   OH248426   3.704   1.660  11.126 -0.1994 -0.2071  0.0062
 9004TIP3    H148427   3.664   1.744  11.145 -0.5123 -0.2386 -0.5026
 9004TIP3    H248428   3.724   1.663  11.032  0.1057 -0.5621  0.0570
 9005TIP3   OH248429   5.386   4.188  13.710 -0.1826 -0.1280 -0.5621
 9005TIP3    H148430   5.456   4.219  13.654 -0.2848 -0.7757 -1.0684
 9005TIP3    H248431   5.319   4.157  13.649  0.5306 -2.7220 -0.1478
 9006TIP3   OH248432   0.476   1.263   2.698 -0.2336  0.8831 -0.2222
 9006TIP3    H148433   0.456   1.173   2.671 -0.6547  0.8937  0.0278
 9006TIP3    H248434   0.433   1.317   2.632 -0.3261  0.9021 -0.1466
 9007TIP3   OH248435   1.223   4.549   4.796  0.1087 -0.0117 -0.0865
 9007TIP3    H148436   1.224   4.484   4.867 -0.9232  0.3644  0.2941
 9007TIP3    H248437   1.247   4.499   4.718 -1.1358 -0.9916  0.1137
 9008TIP3   OH248438   1.718   4.348  15.589 -0.7240  0.2532  0.6726
 9008TIP3    H148439   1.732   4.431  15.635  0.4237  0.1957  0.4604
 9008TIP3    H248440   1.669   4.294  15.652  0.0292  0.4894  1.4832
 9009TIP3   OH248441   2.338   3.344   4.043  0.3678  0.0498 -0.5157
 9009TIP3    H148442   2.361   3.272   3.984 -0.7657 -0.6214 -0.1960
 9009TIP3    H248443   2.282   3.401   3.991  0.2435  0.0241 -0.4125
 9010TIP3   OH248444   3.611   2.176  14.347 -0.7808 -0.7150  0.2866
 9010TIP3    H148445   3.535   2.223  14.313 -0.2722 -0.0186  0.0766
 9010TIP3    H248446   3.684   2.209  14.294 -0.2622 -1.0098  0.8130
 9011TIP3   OH248447   3.446   6.692  10.150  0.5466 -0.4892 -0.6273
 9011TIP3    H148448   3.476   6.660  10.235 -1.1695  2.2582  1.2042
 9011TIP3    H248449   3.412   6.614  10.106 -0.7787 -1.7146  2.2747
 9012TIP3   OH248450   0.131   4.298  11.816 -0.3426  0.2444 -0.7724
 9012TIP3    H148451   0.092   4.269  11.733 -0.5408 -1.2334 -0.1800
 9012TIP3    H248452   0.132   4.220  11.871  2.2131  0.5572 -0.2671
 9013TIP3   OH248453   5.656   1.183   3.173 -0.4054  0.0520  0.2816
 9013TIP3    H148454   5.663   1.215   3.263  0.8997 -0.1430  0.2641
 9013TIP3    H248455   5.608   1.100   3.181  0.6457 -0.5156  0.9479
 9014TIP3   OH248456   2.868   2.250   2.314 -0.1408 -0.7176  0.4949
 9014TIP3    H148457   2.938   2.283   2.371 -0.3021 -0.6582  0.6596
 9014TIP3    H248458   2.896   2.274   2.226  2.1922 -4.3317  0.0418
 9015TIP3   OH248459   4.703   5.862  14.247 -0.7346  0.5916 -0.1775
 9015TIP3    H148460   4.695   5.879  14.341 -0.7526  2.4688 -0.4702
 9015TIP3    H248461   4.683   5.947  14.206 -0.6948 -0.1803 -1.8714
 9016TIP3   OH248462   3.266   2.202   1.457  0.0761 -0.4446  0.3891
 9016TIP3    H148463   3.296   2.128   1.404 -0.2782  1.1595 -2.2015
 9016TIP3    H248464   3.341   2.260   1.461  0.0466 -0.4663  1.5923
 9017TIP3   OH248465   3.068   1.848   6.712  0.0188  0.0675  0.2296
 9017TIP3    H148466   3.097   1.938   6.697  1.5481 -0.7082 -2.1182
 9017TIP3    H248467   2.975   1.856   6.735  0.2259  2.2549  0.5330
 9018TIP3   OH248468   4.161   6.169   2.807 -0.4911 -0.3949  0.4253
 9018TIP3    H148469   4.233   6.126   2.761 -0.8434 -2.8049  1.9393
 9018TIP3    H248470   4.203   6.230   2.867  0.1657 -0.2440 -0.1835
 9019TIP3   OH248471   6.741   1.355  16.442  0.1374 -0.0705 -0.4237
 9019TIP3    H148472   6.660   1.358  16.493  1.0565 -0.8408  1.1818
 9019TIP3    H248473   6.774   1.266  16.455  2.7949  1.0456  1.5917
 9020TIP3   OH248474   5.457   3.315  13.658 -0.2344  0.2355  0.1343
 9020TIP3    H148475   5.371   3.282  13.634 -1.0059  0.6327  2.1222
 9020TIP3    H248476   5.501   3.241  13.700 -0.4199  0.5707  0.9526
 9021TIP3   OH248477   2.903   4.185  14.566 -0.1237  0.5550 -0.2050
 9021TIP3    H148478   2.888   4.104  14.614 -1.1442 -0.7982 -2.6532
 9021TIP3    H248479   2.885   4.254  14.630  0.5783 -1.0908  1.8970
 9022TIP3   OH248480   3.288   2.039   2.232 -0.4255 -0.0658 -0.2546
 9022TIP3    H148481   3.319   2.123   2.199 -0.2970 -0.3142 -0.7609
 9022TIP3    H248482   3.290   2.049   2.328 -1.2593  0.8206 -0.3122
 9023TIP3   OH248483   0.377   3.102  14.937  0.0489  0.5186 -0.3567
 9023TIP3    H148484   0.296   3.088  14.888  0.3372 -0.2080 -0.6294
 9023TIP3    H248485   0.359   3.065  15.024  0.4287 -0.5919 -0.7339
 9024TIP3   OH248486   2.613   4.807  12.201  0.0177 -0.2399  0.4013
 9024TIP3    H148487   2.696   4.763  12.219 -0.8333 -1.6800  1.0466
 9024TIP3    H248488   2.607   4.875  12.268  1.1683  0.6360 -0.3499
 9025TIP3   OH248489   5.046   4.054  13.081 -0.2957 -0.5764  0.2828
 9025TIP3    H148490   5.064   3.967  13.044  0.2996 -0.5572  0.5129
 9025TIP3    H248491   4.993   4.098  13.014 -0.2824 -0.9803  0.0000
 9026TIP3   OH248492   1.459   3.916   3.102  0.7204 -0.2421 -0.1393
 9026TIP3    H148493   1.402   3.872   3.039  2.0598  0.0525 -1.6412
 9026TIP3    H248494   1.444   4.009   3.087  0.2386 -0.1607  0.7797
 9027TIP3   OH248495   1.045   3.554  11.959 -0.1492 -0.2883 -0.2202
 9027TIP3    H148496   1.044   3.461  11.981 -0.9130 -0.5454 -1.2565
 9027TIP3    H248497   1.002   3.597  12.032 -2.5605 -1.0958 -1.0797
 9028TIP3   OH248498   0.261   4.337   3.638  0.2449 -0.9174  0.0806
 9028TIP3    H148499   0.330   4.382   3.685 -1.0148  1.1565  0.0646
 9028TIP3    H248500   0.287   4.342   3.546 -0.1797  0.4185  0.0127
 9029TIP3   OH248501   1.086   0.532  16.339  0.2162  0.2899  0.2400
 9029TIP3    H148502   1.139   0.612  16.349  0.2217  0.2641  0.4138
 9029TIP3    H248503   1.089   0.514  16.245  1.9529 -0.6928  0.4440
 9030TIP3   OH248504   1.372   6.488  12.884  0.3219  0.9108 -0.0863
 9030TIP3    H148505   1.418   6.468  12.965  1.4108 -0.0095 -0.8985
 9030TIP3    H248506   1.437   6.536  12.832 -0.4197  1.6381 -0.3535
 9031TIP3   OH248507   5.748   6.326  13.633  0.7136  0.3507 -0.5398
 9031TIP3    H148508   5.823   6.317  13.574  1.7061  0.6638  0.6412
 9031TIP3    H248509   5.692   6.251  13.612  2.7696 -1.6296  0.5347
 9032TIP3   OH248510   1.634   6.175  13.667 -0.4191 -0.8295 -0.2846
 9032TIP3    H148511   1.702   6.229  13.707 -0.1666 -0.6114 -0.9948
 9032TIP3    H248512   1.679   6.128  13.597 -0.2691 -3.1596  1.2596
 9033TIP3   OH248513   0.834   1.151   3.756  0.6732  0.0867  0.1381
 9033TIP3    H148514   0.869   1.238   3.736  0.3946  0.2359  0.2876
 9033TIP3    H248515   0.883   1.091   3.700 -0.6199  0.5668 -1.5907
 9034TIP3   OH248516   1.221   6.663  15.172 -0.4581  0.7869  0.8201
 9034TIP3    H148517   1.290   6.602  15.197  0.1367 -0.1835 -2.6414
 9034TIP3    H248518   1.141   6.622  15.203 -0.1958 -2.4705 -2.1299
 9035TIP3   OH248519   1.798   2.994   5.942 -0.2149 -0.8010  0.2765
 9035TIP3    H148520   1.812   2.906   5.977  1.5588 -0.4923  0.4376
 9035TIP3    H248521   1.838   3.052   6.006 -2.1979  0.2260  0.6421
 9036TIP3   OH248522   4.938   4.511  13.408 -0.4381  0.5659 -0.2257
 9036TIP3    H148523   4.912   4.561  13.330  0.8464  2.2444  0.3619
 9036TIP3    H248524   4.978   4.576  13.466  1.3536 -1.1585  0.5679
 9037TIP3   OH248525   4.311   1.275  11.470 -1.0078  0.0191  0.3729
 9037TIP3    H148526   4.312   1.309  11.381  0.4171  1.6341  0.9513
 9037TIP3    H248527   4.295   1.352  11.525 -0.6298 -0.7349  1.5835
 9038TIP3   OH248528   4.744   4.064   0.467  0.2655  0.0079 -0.4587
 9038TIP3    H148529   4.686   4.124   0.514  0.5367  0.4278 -0.6500
 9038TIP3    H248530   4.702   4.051   0.382  0.3897  0.2145 -0.5517
 9039TIP3   OH248531   1.304   0.499  14.430 -0.5626  0.0474 -0.3984
 9039TIP3    H148532   1.313   0.469  14.339  0.1158 -0.1296 -0.2806
 9039TIP3    H248533   1.388   0.541  14.449 -0.3467 -0.7286  0.4388
 9040TIP3   OH248534   3.925   2.226  16.026 -0.6376  0.6063  0.1229
 9040TIP3    H148535   3.974   2.246  15.946 -0.2015  0.6996  0.4097
 9040TIP3    H248536   3.971   2.274  16.095 -0.8915  0.3635  0.4636
 9041TIP3   OH248537   5.935   2.964   5.159  0.7812  0.0920  0.0721
 9041TIP3    H148538   5.994   2.920   5.220  0.5416 -0.3953 -0.0337
 9041TIP3    H248539   5.952   3.057   5.171  0.3100  0.0351  1.3291
 9042TIP3   OH248540   0.272   0.099   1.356 -0.0204  0.0445 -0.2216
 9042TIP3    H148541   0.353   0.149   1.366 -0.6903  1.1832 -0.2006
 9042TIP3    H248542   0.288   0.017   1.402  1.7643 -0.5525 -1.7996
 9043TIP3   OH248543   2.048   4.408  11.224  0.4928 -0.2924 -0.2731
 9043TIP3    H148544   2.047   4.457  11.142  1.4928  1.3674  0.6494
 9043TIP3    H248545   2.103   4.332  11.206  0.9828  0.2347 -1.0681
 9044TIP3   OH248546   5.125   0.362   4.782  0.7230 -0.8626 -0.6347
 9044TIP3    H148547   5.091   0.384   4.869  2.9185  0.0251  0.0803
 9044TIP3    H248548   5.148   0.447   4.743  0.3867 -1.3013 -1.8434
 9045TIP3   OH248549   1.230   5.213  12.339 -0.0485 -0.5695  0.7264
 9045TIP3    H148550   1.222   5.264  12.259 -2.5694 -0.7420  0.8132
 9045TIP3    H248551   1.202   5.125  12.315  0.5054 -0.9719  1.4977
 9046TIP3   OH248552   1.623   1.536   3.746 -0.6341  0.5035 -0.3602
 9046TIP3    H148553   1.586   1.450   3.766 -1.3836  0.4654 -1.8078
 9046TIP3    H248554   1.626   1.540   3.651  1.5249  1.2106 -0.3249
 9047TIP3   OH248555   5.036   5.428  12.407  0.8649 -0.5644 -0.4643
 9047TIP3    H148556   5.041   5.502  12.347 -1.3855 -0.4532 -0.5743
 9047TIP3    H248557   5.026   5.352  12.350  0.8606 -0.6948 -0.2905
 9048TIP3   OH248558   3.578   1.090  14.327  0.1725 -0.6894 -0.6527
 9048TIP3    H148559   3.515   1.044  14.272 -2.1911  2.0850 -0.4927
 9048TIP3    H248560   3.649   1.028  14.339 -0.9077 -2.7400 -3.7383
 9049TIP3   OH248561   3.995   2.375   1.058  0.3035 -0.3374 -0.4329
 9049TIP3    H148562   3.960   2.291   1.088  0.8078 -0.2762  0.3776
 9049TIP3    H248563   3.963   2.384   0.969  1.1416 -1.9081 -0.9246
 9050TIP3   OH248564   3.703   6.299  13.633  0.6071  0.1266  0.5073
 9050TIP3    H148565   3.787   6.299  13.680  1.3989 -2.9151 -0.6775
 9050TIP3    H248566   3.647   6.240  13.684  0.1873 -0.1853 -0.2981
 9051TIP3   OH248567   1.956   0.087   1.915  0.4727 -0.5673 -0.3962
 9051TIP3    H148568   2.043   0.093   1.875  2.0218 -1.6269  2.5711
 9051TIP3    H248569   1.946   0.169   1.963 -0.5223 -0.1606 -1.2477
 9052TIP3   OH248570   6.620   5.863  11.732 -0.0119  0.1408  0.5284
 9052TIP3    H148571   6.712   5.878  11.708  0.7010 -0.7725  2.4223
 9052TIP3    H248572   6.570   5.898  11.659  1.8603  0.1657 -0.8283
 9053TIP3   OH248573   1.587   4.081   1.032  0.3218 -0.9056 -0.0059
 9053TIP3    H148574   1.548   4.167   1.018  2.3651 -0.0051 -0.5503
 9053TIP3    H248575   1.514   4.025   1.057 -1.1143  0.9047  0.0399
 9054TIP3   OH248576   6.671   1.702  13.965  0.6274 -0.1948  0.4402
 9054TIP3    H148577   6.680   1.767  14.034  0.6153 -0.2669  0.5093
 9054TIP3    H248578   6.702   1.747  13.886  2.7864 -0.8005  0.8691
 9055TIP3   OH248579   6.228   4.217  12.262 -0.8015 -0.1172 -0.1221
 9055TIP3    H148580   6.201   4.280  12.196  1.4030  0.4923 -0.5292
 9055TIP3    H248581   6.159   4.220  12.328 -1.4370  1.6775 -0.8197
 9056TIP3   OH248582   0.265   6.661   4.132  0.0989  0.4836 -0.7285
 9056TIP3    H148583   0.315   6.694   4.206 -0.6022 -1.8801  0.8888
 9056TIP3    H248584   0.175   6.684   4.151 -0.1571 -0.6284 -0.5427
 9057TIP3   OH248585   1.007   4.777   1.693 -0.0421  0.3999 -0.9995
 9057TIP3    H148586   0.990   4.814   1.779  1.4168  2.0011 -1.3305
 9057TIP3    H248587   0.929   4.798   1.642  0.3471  2.3432 -0.9072
 9058TIP3   OH248588   2.643   1.282   4.643  0.6472 -0.0852  0.3989
 9058TIP3    H148589   2.724   1.236   4.663  0.5066 -0.0233  1.1530
 9058TIP3    H248590   2.575   1.231   4.687  0.5157  0.9448  1.4563
 9059TIP3   OH248591   4.925   2.749   5.014 -0.9345  0.4199 -0.4174
 9059TIP3    H148592   5.004   2.803   5.011 -0.4055 -0.1824  1.2176
 9059TIP3    H248593   4.906   2.741   5.108  0.1962 -3.8649 -0.3155
 9060TIP3   OH248594   3.587   2.831  11.683  0.3905 -0.0256  0.4549
 9060TIP3    H148595   3.523   2.880  11.736 -1.8325 -1.7424 -0.5174
 9060TIP3    H248596   3.593   2.881  11.602 -1.5009 -1.0087 -0.3433
 9061TIP3   OH248597   1.482   5.667  16.151  0.1691 -0.3278  0.8223
 9061TIP3    H148598   1.409   5.615  16.185 -2.9407  3.2882  0.2942
 9061TIP3    H248599   1.477   5.655  16.056  1.4954 -1.3951  0.8477
 9062TIP3   OH248600   5.108   2.854   6.514 -0.3971  0.6039  0.0342
 9062TIP3    H148601   5.170   2.831   6.445 -0.4179  1.4851 -0.2996
 9062TIP3    H248602   5.162   2.900   6.579 -0.3220 -0.4694  0.7608
 9063TIP3   OH248603   6.740   3.719  15.221  0.8297 -0.5253 -0.6412
 9063TIP3    H148604   6.787   3.715  15.138 -0.2294  0.6086 -1.3262
 9063TIP3    H248605   6.778   3.648  15.274  3.0347  0.1318 -1.2630
 9064TIP3   OH248606   0.412   4.647  10.631 -0.1294  0.2483  0.1258
 9064TIP3    H148607   0.495   4.690  10.651 -0.3715  0.9542 -0.3578
 9064TIP3    H248608   0.385   4.684  10.547 -0.4403 -0.7145 -0.2109
 9065TIP3   OH248609   0.151   2.658  11.181 -0.2731  0.0225 -0.8502
 9065TIP3    H148610   0.149   2.747  11.216 -2.1888 -0.0266 -0.7353
 9065TIP3    H248611   0.119   2.667  11.092 -1.9780 -0.7147 -0.3497
 9066TIP3   OH248612   2.785   4.323   5.284 -0.0662 -0.7227 -0.8923
 9066TIP3    H148613   2.785   4.228   5.271 -1.6545 -0.7862 -0.6090
 9066TIP3    H248614   2.743   4.336   5.369  1.6918  0.1683 -0.1323
 9067TIP3   OH248615   6.694   1.513   3.218 -0.5698  0.1638  0.1396
 9067TIP3    H148616   6.765   1.493   3.157  0.2840 -1.0296  1.4647
 9067TIP3    H248617   6.648   1.587   3.178  0.5975  0.0958 -1.4108
 9068TIP3   OH248618   2.836   0.847   4.059 -0.5582  0.4807 -0.0178
 9068TIP3    H148619   2.828   0.756   4.029  0.4827  0.3493  0.0629
 9068TIP3    H248620   2.785   0.850   4.140 -1.9141  0.3870 -0.8333
 9069TIP3   OH248621   0.465   3.358  13.504  0.3806 -0.6288 -0.1214
 9069TIP3    H148622   0.421   3.294  13.447  1.2493 -0.1481 -1.3717
 9069TIP3    H248623   0.529   3.306  13.552  0.5157 -0.8421 -0.5233
 9070TIP3   OH248624   2.899   0.597   1.200 -0.2270  0.0626  0.1091
 9070TIP3    H148625   2.882   0.553   1.283 -1.5658  1.7143  0.7643
 9070TIP3    H248626   2.814   0.633   1.174  0.2683 -0.0051 -1.7504
 9071TIP3   OH248627   5.806   3.939   0.434  0.3130  0.0001  0.2122
 9071TIP3    H148628   5.720   3.926   0.394  1.0823 -0.3999 -1.3551
 9071TIP3    H248629   5.786   3.969   0.523 -1.4824 -2.2084  0.6587
 9072TIP3   OH248630   2.703   2.804  11.013  0.2773  0.8652  0.5837
 9072TIP3    H148631   2.691   2.853  10.932 -2.1087  2.2269  1.6589
 9072TIP3    H248632   2.688   2.712  10.987  0.6575  1.1521 -0.7079
 9073TIP3   OH248633   3.348   5.283   1.809 -0.1528  0.3182  0.4504
 9073TIP3    H148634   3.423   5.275   1.750 -1.0166  0.3951 -0.6987
 9073TIP3    H248635   3.305   5.364   1.782 -1.4281 -0.4383  0.1386
 9074TIP3   OH248636   1.897   6.628  15.482  0.3135 -0.0601 -0.4548
 9074TIP3    H148637   1.905   6.602  15.390  0.1186  1.2280 -0.8591
 9074TIP3    H248638   1.856   6.715  15.478  1.0864  0.3752  0.8035
 9075TIP3   OH248639   5.725   5.731   1.128 -0.0057  0.2174 -0.6901
 9075TIP3    H148640   5.726   5.721   1.223 -0.4025  1.2508 -0.5615
 9075TIP3    H248641   5.655   5.673   1.098  0.7850 -0.8733 -0.4630
 9076TIP3   OH248642   2.734   2.157   6.839 -0.1964  0.5053 -0.1391
 9076TIP3    H148643   2.797   2.194   6.900  0.5876 -3.6221  1.8927
 9076TIP3    H248644   2.652   2.154   6.888 -1.1625  2.4477 -1.4842
 9077TIP3   OH248645   4.635   2.269  11.185  0.3504  0.3269 -0.4809
 9077TIP3    H148646   4.699   2.265  11.256 -0.1441 -1.0069 -0.0804
 9077TIP3    H248647   4.688   2.282  11.106  0.8424  2.8493  0.1752
 9078TIP3   OH248648   2.829   3.347   1.632 -0.0721 -0.6576 -0.3672
 9078TIP3    H148649   2.850   3.358   1.725 -0.0824 -0.9802 -0.3239
 9078TIP3    H248650   2.783   3.263   1.628 -1.7375  0.2055 -0.3951
 9079TIP3   OH248651   5.431   0.236   6.034 -0.7517 -0.0600 -0.2203
 9079TIP3    H148652   5.456   0.187   6.112  0.3232  1.0939  0.1881
 9079TIP3    H248653   5.379   0.310   6.067 -0.6629  0.1934 -0.6326
 9080TIP3   OH248654   1.046   0.516  13.878  0.4326  0.3739  0.2524
 9080TIP3    H148655   1.067   0.530  13.971  2.5915  1.2108 -0.3207
 9080TIP3    H248656   1.027   0.422  13.872 -0.3062  0.3960  1.6095
 9081TIP3   OH248657   6.716   1.138  15.424 -0.8566  0.2273 -0.6671
 9081TIP3    H148658   6.766   1.056  15.424 -0.3676  0.4579 -3.0771
 9081TIP3    H248659   6.659   1.132  15.348 -0.9913  2.0135 -0.7644
 9082TIP3   OH248660   5.206   0.691   1.032  0.5529  0.1796  0.2326
 9082TIP3    H148661   5.216   0.766   1.091  1.1884  1.5907 -1.5741
 9082TIP3    H248662   5.114   0.692   1.007 -0.0731 -1.2919  2.2003
 9083TIP3   OH248663   3.863   2.669   4.603 -0.6328 -0.0314 -0.2368
 9083TIP3    H148664   3.869   2.584   4.647 -1.9064  0.1335  0.3228
 9083TIP3    H248665   3.769   2.688   4.601 -0.3674  1.3992 -0.2742
 9084TIP3   OH248666   1.311   2.237  16.615 -0.1868 -0.0402  0.4084
 9084TIP3    H148667   1.382   2.301  16.626 -0.5886  0.3551  0.7136
 9084TIP3    H248668   1.293   2.206  16.704  0.5336 -1.1671  0.1907
 9085TIP3   OH248669   0.001   5.546  13.737 -0.1105 -0.0273  0.1206
 9085TIP3    H148670   0.008   5.502  13.652 -0.6844  1.7254 -0.8752
 9085TIP3    H248671  -0.085   5.521  13.770  0.2055 -0.9004  0.3343
 9086TIP3   OH248672   3.533   6.049   4.996  0.1022  0.5704  0.0179
 9086TIP3    H148673   3.476   6.067   5.071 -0.0103  1.0512 -0.1799
 9086TIP3    H248674   3.565   5.960   5.011  1.0043  1.0595  1.2658
 9087TIP3   OH248675   5.167   1.148  15.005  0.6446 -0.0096 -0.4039
 9087TIP3    H148676   5.228   1.103  14.947  1.6623 -0.7924  1.2159
 9087TIP3    H248677   5.164   1.094  15.084  2.7459  3.1564  2.1202
 9088TIP3   OH248678   5.523   0.365  14.397  0.0734 -0.6904  0.1560
 9088TIP3    H148679   5.617   0.357  14.377 -0.1555  0.8837 -1.8365
 9088TIP3    H248680   5.521   0.406  14.483  1.1904 -2.0067  0.8505
 9089TIP3   OH248681   1.245   1.342   0.279 -0.0386 -0.0798 -0.0897
 9089TIP3    H148682   1.150   1.351   0.284 -0.0328 -0.5403  1.0031
 9089TIP3    H248683   1.271   1.304   0.363  1.1354  0.2061 -0.2973
 9090TIP3   OH248684   4.849   5.832   3.181 -0.0071  0.6814 -0.0750
 9090TIP3    H148685   4.768   5.811   3.133 -1.0192  2.4482  0.7764
 9090TIP3    H248686   4.866   5.924   3.161  2.1760  0.2128 -0.7132
 9091TIP3   OH248687   2.380   5.246   4.063 -0.0044 -0.1093  0.6874
 9091TIP3    H148688   2.293   5.264   4.027  1.1134  0.9102 -1.7697
 9091TIP3    H248689   2.368   5.248   4.158 -2.2252  2.4329  0.4722
 9092TIP3   OH248690   3.302   4.072  13.422  0.5971  0.2498 -0.3068
 9092TIP3    H148691   3.290   4.167  13.416 -0.6835  0.3346  2.0926
 9092TIP3    H248692   3.225   4.036  13.378  1.3527  0.2809 -1.6894
 9093TIP3   OH248693   0.577   2.426  14.713  0.6018  0.0518  0.0596
 9093TIP3    H148694   0.563   2.403  14.805  0.3133 -0.2623 -0.0603
 9093TIP3    H248695   0.508   2.489  14.692  1.2319  0.8398  0.3125
 9094TIP3   OH248696   2.833   5.233   2.009 -0.4764  0.0475 -0.2190
 9094TIP3    H148697   2.928   5.232   2.021 -0.3963  2.9045 -0.0709
 9094TIP3    H248698   2.797   5.238   2.098 -0.7392 -0.2838 -0.3042
 9095TIP3   OH248699   3.467   3.278   3.395  0.3246 -0.0711  0.6700
 9095TIP3    H148700   3.431   3.366   3.409 -1.0947 -0.5607  0.3114
 9095TIP3    H248701   3.516   3.285   3.313 -0.5871  0.1805  0.1291
 9096TIP3   OH248702   2.512   2.371   5.325 -0.1965 -0.1835 -0.5675
 9096TIP3    H148703   2.549   2.442   5.273  1.5215 -1.8169 -1.6723
 9096TIP3    H248704   2.455   2.325   5.264 -1.3584  0.2310  0.1664
 9097TIP3   OH248705   6.597   3.713   0.449  0.5245  0.5309 -0.2528
 9097TIP3    H148706   6.635   3.789   0.404  0.1633  1.9577  1.6813
 9097TIP3    H248707   6.504   3.718   0.431  0.4115  0.9653  0.4064
 9098TIP3   OH248708   5.664   3.026  15.572  0.1618 -0.3363  0.2634
 9098TIP3    H148709   5.610   3.103  15.591  0.2603  0.7817 -3.2160
 9098TIP3    H248710   5.623   2.955  15.621 -2.3664  1.1515  0.4879
 9099TIP3   OH248711   1.487   1.410  12.642  0.4799  0.3066 -0.4082
 9099TIP3    H148712   1.562   1.419  12.583  0.1138 -1.4055 -1.1881
 9099TIP3    H248713   1.525   1.425  12.729  1.2377  1.7806 -0.9471
 9100TIP3   OH248714   5.608   6.635  11.593 -0.3808  0.5366  0.8170
 9100TIP3    H148715   5.666   6.631  11.669  0.7506 -1.8179 -0.0556
 9100TIP3    H248716   5.666   6.658  11.520 -0.5864 -1.2930  0.0225
 9101TIP3   OH248717   0.954   5.719   2.863 -0.3577  0.5153  0.1839
 9101TIP3    H148718   1.000   5.780   2.922  0.1043 -0.3276  0.7063
 9101TIP3    H248719   0.974   5.632   2.898  0.3456 -0.0377 -1.4888
 9102TIP3   OH248720   1.581   2.482  14.901 -0.8074 -0.4775  0.3093
 9102TIP3    H148721   1.559   2.467  14.808  0.1611 -0.9370  0.1404
 9102TIP3    H248722   1.505   2.450  14.949 -1.3232 -0.2303 -0.3349
 9103TIP3   OH248723   3.434   6.266  14.882  0.1175 -0.0263 -0.2308
 9103TIP3    H148724   3.379   6.344  14.885  0.3672  0.1379  0.3653
 9103TIP3    H248725   3.373   6.193  14.875 -0.1595  0.1761  0.0388
 9104TIP3   OH248726   2.864   1.497   0.974 -0.0555  0.1757 -0.9747
 9104TIP3    H148727   2.880   1.403   0.984 -1.0973  0.2274  2.0941
 9104TIP3    H248728   2.949   1.538   0.992  0.0160 -0.1021 -0.6828
 9105TIP3   OH248729   6.587   4.782  10.959  0.2235 -0.2272 -0.2021
 9105TIP3    H148730   6.539   4.826  11.029 -0.8514 -0.4171 -0.7957
 9105TIP3    H248731   6.581   4.689  10.979  1.2208 -0.2129  0.2487
 9106TIP3   OH248732   4.001   3.450   2.604  0.1186  0.2287  0.1345
 9106TIP3    H148733   4.069   3.418   2.545 -0.2264  1.2037 -0.8285
 9106TIP3    H248734   4.040   3.446   2.691  0.8303 -0.7212 -0.2243
 9107TIP3   OH248735   2.410   2.122  14.764  0.5023  0.6050 -0.2309
 9107TIP3    H148736   2.423   2.217  14.764 -1.3599  0.9164  0.7611
 9107TIP3    H248737   2.315   2.111  14.757  0.6876 -1.1963 -0.3225
 9108TIP3   OH248738   6.363   3.157  14.100  0.4623 -0.0403  0.3056
 9108TIP3    H148739   6.290   3.178  14.042  0.0379 -0.2514  0.7577
 9108TIP3    H248740   6.425   3.108  14.046  0.0003 -0.3673  0.0753
 9109TIP3   OH248741   3.669   1.104  13.410 -0.3370 -0.3516 -0.1996
 9109TIP3    H148742   3.695   1.170  13.346  1.0668  0.0013  0.7018
 9109TIP3    H248743   3.611   1.045  13.361 -1.5007  1.4106 -1.0722
 9110TIP3   OH248744   3.122   2.333   3.001 -0.0523  0.1400 -0.0173
 9110TIP3    H148745   3.033   2.366   3.009  0.8749  3.3813 -1.3845
 9110TIP3    H248746   3.162   2.350   3.086  0.7156  4.1262 -0.9560
 9111TIP3   OH248747   1.623   0.973  17.161  0.0792  0.1678  0.1084
 9111TIP3    H148748   1.551   1.006  17.108  1.5208  0.7528 -1.6313
 9111TIP3    H248749   1.684   1.046  17.166  1.3074 -0.8109  0.0471
 9112TIP3   OH248750   5.040   1.147  12.408  0.2766  0.0955  0.1852
 9112TIP3    H148751   4.970   1.140  12.472 -0.8912  0.4048 -1.0171
 9112TIP3    H248752   5.110   1.091  12.442 -1.3491 -1.9096  0.4015
 9113TIP3   OH248753   6.755   3.581   2.389  0.0762 -0.2631  0.0304
 9113TIP3    H148754   6.693   3.553   2.456 -0.4567 -0.0004 -0.3495
 9113TIP3    H248755   6.797   3.499   2.360 -1.1759 -0.6379 -0.7837
 9114TIP3   OH248756   2.541   3.804  13.225 -0.5379 -0.1707  0.0787
 9114TIP3    H148757   2.497   3.763  13.300  0.9163 -1.2301  0.3877
 9114TIP3    H248758   2.489   3.883  13.207 -1.2501 -0.2024  1.8243
 9115TIP3   OH248759   3.032   4.177   2.687  0.4110 -0.1764 -0.0231
 9115TIP3    H148760   2.989   4.261   2.674  1.2858  0.2526 -0.2358
 9115TIP3    H248761   2.983   4.135   2.758  0.5777  0.9480  0.7811
 9116TIP3   OH248762   4.610   6.520   2.516  0.1952 -0.6139 -0.2189
 9116TIP3    H148763   4.640   6.431   2.502  0.8029 -0.5198  0.4623
 9116TIP3    H248764   4.628   6.565   2.433  0.9720 -0.8245 -0.1696
 9117TIP3   OH248765   6.254   0.627   5.583 -0.1091  0.4630  0.3101
 9117TIP3    H148766   6.325   0.661   5.637  0.5228  0.9533 -0.8023
 9117TIP3    H248767   6.287   0.544   5.548 -0.0566  0.7084 -0.2368
 9118TIP3   OH248768   4.327   3.258   2.269  0.0625  0.2112  0.1821
 9118TIP3    H148769   4.315   3.263   2.363 -0.1362  1.0087  0.1247
 9118TIP3    H248770   4.239   3.270   2.233  0.1888  0.2903 -0.1068
 9119TIP3   OH248771   4.318   1.639  16.003  0.2094  0.3786 -0.2718
 9119TIP3    H148772   4.326   1.566  15.940  1.0958 -1.0595  1.4278
 9119TIP3    H248773   4.407   1.674  16.010  0.2571  0.0901  0.6589
 9120TIP3   OH248774   1.748   1.310  10.603 -0.0338 -0.0516 -0.1255
 9120TIP3    H148775   1.731   1.267  10.687 -1.4889 -0.3870 -0.5547
 9120TIP3    H248776   1.828   1.361  10.617 -0.1280 -0.2829  1.3857
 9121TIP3   OH248777   2.533   4.494  11.543 -0.6887  0.6734 -0.5630
 9121TIP3    H148778   2.438   4.496  11.557 -1.0248  1.5490 -2.6590
 9121TIP3    H248779   2.548   4.415  11.490 -0.2997  0.7504 -0.5717
 9122TIP3   OH248780   4.500   1.882   6.656 -0.0266 -0.2315 -0.3861
 9122TIP3    H148781   4.486   1.922   6.570  0.6432 -0.2891 -0.5306
 9122TIP3    H248782   4.523   1.791   6.635  1.3028  0.0468 -0.2174
 9123TIP3   OH248783   5.911   1.613   0.300  0.0130 -0.8214 -0.0038
 9123TIP3    H148784   5.997   1.650   0.280 -0.5090 -0.0375 -0.8647
 9123TIP3    H248785   5.908   1.609   0.396  1.0380 -0.9335  0.0258
 9124TIP3   OH248786   1.460   3.052  13.591 -0.1049 -0.2530  0.0144
 9124TIP3    H148787   1.487   3.139  13.563 -2.9039  0.4072 -0.9005
 9124TIP3    H248788   1.492   2.993  13.523  2.6825 -0.1939  1.1295
 9125TIP3   OH248789   2.797   1.177   1.452 -0.0599 -0.5526 -0.1771
 9125TIP3    H148790   2.812   1.179   1.546 -0.2250  1.6855 -0.1480
 9125TIP3    H248791   2.826   1.263   1.421 -0.8578 -0.9033 -2.0270
 9126TIP3   OH248792   2.587   4.968   4.327  0.2144  0.1961  0.9160
 9126TIP3    H148793   2.637   5.049   4.342  0.4142  0.3241 -0.3846
 9126TIP3    H248794   2.632   4.903   4.382 -0.2288  1.0440  2.3374
 9127TIP3   OH248795   6.266   1.458  14.221  0.4277  0.1663 -0.3390
 9127TIP3    H148796   6.219   1.498  14.148  1.4455 -2.1641 -2.4038
 9127TIP3    H248797   6.340   1.413  14.181  1.4328 -0.6687  2.2326
 9128TIP3   OH248798   6.594   4.356   3.301  0.4416 -0.2985 -0.6097
 9128TIP3    H148799   6.670   4.391   3.254 -0.4797 -0.0768 -2.0039
 9128TIP3    H248800   6.520   4.370   3.241 -1.0147  0.9909  1.3441
 9129TIP3   OH248801   6.380   0.755  12.551 -0.2278 -0.2608 -0.8970
 9129TIP3    H148802   6.348   0.842  12.574 -1.5863 -0.9867  0.1206
 9129TIP3    H248803   6.473   0.756  12.573  0.0487  1.2775 -2.0000
 9130TIP3   OH248804   6.778   1.034   2.480 -0.4782 -0.3080 -0.0515
 9130TIP3    H148805   6.738   0.949   2.459 -0.0131 -0.4094 -0.5461
 9130TIP3    H248806   6.705   1.086   2.513 -1.0102 -0.5300 -0.8363
 9131TIP3   OH248807   5.823   5.971  16.029 -0.6963  0.2114  0.0633
 9131TIP3    H148808   5.772   5.899  15.992 -0.6023  0.2238 -0.0908
 9131TIP3    H248809   5.773   6.050  16.007 -0.6982  0.2094  0.0606
 9132TIP3   OH248810   2.018   2.812   4.481 -0.4861  0.3772  0.0690
 9132TIP3    H148811   1.977   2.752   4.418 -1.0180 -1.4261  2.0155
 9132TIP3    H248812   2.112   2.804   4.464 -0.3741 -2.6299  1.5292
 9133TIP3   OH248813   4.424   5.188  10.428  0.0411 -0.0834 -0.1716
 9133TIP3    H148814   4.515   5.199  10.455  0.6349 -2.1564 -1.1365
 9133TIP3    H248815   4.395   5.276  10.405  1.0083  1.0028  2.4224
 9134TIP3   OH248816   2.783   5.329  16.305 -0.0368  0.5238  0.5179
 9134TIP3    H148817   2.727   5.255  16.281 -1.6283  1.6516  0.5972
 9134TIP3    H248818   2.814   5.364  16.221 -1.5272  1.3987  0.2835
 9135TIP3   OH248819   1.750   1.091  16.827  0.2143 -0.5590 -0.5994
 9135TIP3    H148820   1.768   1.114  16.919  1.0856 -2.2639 -0.3047
 9135TIP3    H248821   1.674   1.144  16.804  0.2750  0.2791  0.9487
 9136TIP3   OH248822   2.642   0.235   0.235 -0.0361 -0.5256 -0.0094
 9136TIP3    H148823   2.642   0.210   0.142 -3.3237  0.0021 -0.2687
 9136TIP3    H248824   2.728   0.207   0.267  0.8787 -1.5242 -2.9855
 9137TIP3   OH248825   3.007   1.569   2.306  0.4515  0.3374 -0.3152
 9137TIP3    H148826   3.010   1.611   2.392 -1.7699 -2.1223  1.0944
 9137TIP3    H248827   3.016   1.476   2.324 -0.5449 -0.3036 -2.7118
 9138TIP3   OH248828   3.855   1.031  14.812 -0.1339 -0.4090  0.4016
 9138TIP3    H148829   3.896   1.101  14.862 -0.1104  0.1118 -0.3316
 9138TIP3    H248830   3.805   0.981  14.877  0.9034 -0.5116  1.1564
 9139TIP3   OH248831   4.859   0.784   5.211 -0.0475 -0.2889 -0.0590
 9139TIP3    H148832   4.820   0.820   5.291  0.7547 -1.6714  1.0185
 9139TIP3    H248833   4.920   0.717   5.243 -0.2716 -1.4248 -1.8703
 9140TIP3   OH248834   5.653   0.300   2.082 -0.0213 -0.2252 -0.5822
 9140TIP3    H148835   5.698   0.216   2.087 -0.0862 -0.2086  0.4532
 9140TIP3    H248836   5.590   0.298   2.154 -1.7438 -0.2728 -2.0169
 9141TIP3   OH248837   3.138   1.268  12.845  0.1070  0.1270 -0.0305
 9141TIP3    H148838   3.206   1.225  12.793 -0.1638 -0.8906  0.4213
 9141TIP3    H248839   3.060   1.268  12.789  0.1322  0.1004 -0.0656
 9142TIP3   OH248840   3.928   1.323   0.325  0.0958 -0.4133  0.5562
 9142TIP3    H148841   3.869   1.259   0.283 -0.2400  0.7841 -0.8848
 9142TIP3    H248842   4.007   1.273   0.345 -0.3771 -1.4235 -0.0118
 9143TIP3   OH248843   4.832   3.491  14.673 -0.1559  0.0414 -0.4356
 9143TIP3    H148844   4.928   3.494  14.673 -0.1442  0.4971  0.9138
 9143TIP3    H248845   4.807   3.512  14.584  1.0452 -2.9671 -1.6137
 9144TIP3   OH248846   3.092   3.266   4.017  0.6172 -0.0672  0.1115
 9144TIP3    H148847   3.038   3.189   4.000  1.7553 -0.9336  0.2596
 9144TIP3    H248848   3.079   3.285   4.110 -0.4712  0.5779 -0.1607
 9145TIP3   OH248849   4.223   4.963   1.107 -0.4063  0.3092 -0.4996
 9145TIP3    H148850   4.226   5.052   1.071  2.4641  0.2316 -0.6940
 9145TIP3    H248851   4.311   4.948   1.140 -1.2699 -1.8958  1.0558
 9146TIP3   OH248852   5.650   5.148  13.215 -0.2622 -0.0569 -0.0728
 9146TIP3    H148853   5.725   5.200  13.244 -0.6094  1.3932 -1.6616
 9146TIP3    H248854   5.675   5.118  13.128  0.0092 -2.8154  0.8544
 9147TIP3   OH248855   4.825   2.370  13.503 -0.2848  0.0935  0.0837
 9147TIP3    H148856   4.879   2.428  13.557  2.9986 -2.0207 -0.6930
 9147TIP3    H248857   4.784   2.310  13.566 -0.2472  0.5210  0.5289
 9148TIP3   OH248858   5.451   6.461   3.289  0.2481 -0.3881 -0.2909
 9148TIP3    H148859   5.522   6.506   3.244 -2.4710  3.4767 -1.2420
 9148TIP3    H248860   5.477   6.459   3.381  1.6421  0.7602 -0.6232
 9149TIP3   OH248861   3.177   6.363  15.647 -0.7316 -0.1236  0.2388
 9149TIP3    H148862   3.268   6.391  15.657 -0.6866  0.2376 -0.9560
 9149TIP3    H248863   3.159   6.309  15.723  0.4873 -0.1906  0.4883
 9150TIP3   OH248864   4.460   1.982   1.951 -0.0267 -0.5229  0.3221
 9150TIP3    H148865   4.480   1.918   2.019 -0.7832  0.1481  1.1887
 9150TIP3    H248866   4.365   1.992   1.953  0.0769  0.6592  0.2333
 9151TIP3   OH248867   6.592   3.705  13.670 -0.3685 -0.1527  0.6566
 9151TIP3    H148868   6.639   3.694  13.588 -0.0175  1.0203  0.6829
 9151TIP3    H248869   6.548   3.621  13.684 -1.0645 -0.1184 -1.1148
 9152TIP3   OH248870   5.447   2.665   1.588 -0.0036 -0.3440 -0.2504
 9152TIP3    H148871   5.369   2.644   1.537 -0.1693  2.4009 -1.2967
 9152TIP3    H248872   5.500   2.719   1.530  0.6600  1.4137  1.8123
 9153TIP3   OH248873   2.824   2.762  15.469  0.2056  0.2860  0.1023
 9153TIP3    H148874   2.877   2.683  15.471  0.4298  0.4433  0.4028
 9153TIP3    H248875   2.883   2.832  15.498  0.1290  0.6331 -0.5578
 9154TIP3   OH248876   6.294   6.211   1.338  0.2182 -0.3263  0.2405
 9154TIP3    H148877   6.201   6.188   1.338  0.3832 -1.0398  1.3683
 9154TIP3    H248878   6.295   6.307   1.327 -0.6951 -0.1974  1.1280
 9155TIP3   OH248879   5.141   1.163  15.603  0.1882 -0.3736  0.6066
 9155TIP3    H148880   5.113   1.231  15.542 -0.2529 -0.1423  1.0520
 9155TIP3    H248881   5.060   1.120  15.629  0.3757 -0.5039  0.9841
 9156TIP3   OH248882   2.295   6.622   3.762  0.2430  0.4132  0.0118
 9156TIP3    H148883   2.344   6.663   3.834 -0.3679 -1.0411  1.3161
 9156TIP3    H248884   2.238   6.691   3.729 -0.4437  0.7730  1.8493
 9157TIP3   OH248885   4.155   5.693  16.100 -0.0996 -0.2377  0.6014
 9157TIP3    H148886   4.142   5.739  16.017  0.4499  0.2372  0.7642
 9157TIP3    H248887   4.068   5.685  16.137 -0.1175  1.7921  1.1349
 9158TIP3   OH248888   5.334   4.516   5.121 -0.2503  0.0667 -0.4064
 9158TIP3    H148889   5.243   4.516   5.091 -1.0039 -0.0926  1.6784
 9158TIP3    H248890   5.378   4.579   5.064 -1.7104  0.3301 -1.3091
 9159TIP3   OH248891   1.952   4.396  16.590 -0.2995 -0.4517  0.2816
 9159TIP3    H148892   1.899   4.430  16.517  0.3491  0.8254  0.3881
 9159TIP3    H248893   1.940   4.460  16.660 -0.1960 -1.2070  1.0047
 9160TIP3   OH248894   1.732   1.283   3.112  0.2506  0.1807  0.4443
 9160TIP3    H148895   1.827   1.287   3.100  0.1471 -0.8004 -1.0687
 9160TIP3    H248896   1.697   1.336   3.039 -0.3702  0.4748  0.9450
 9161TIP3   OH248897   1.572   3.944   2.104 -0.0147 -0.2553  0.3798
 9161TIP3    H148898   1.636   3.886   2.062 -0.9441 -1.6730  0.8318
 9161TIP3    H248899   1.488   3.898   2.094 -1.0660  1.7652 -0.5959
 9162TIP3   OH248900   2.763   6.474  12.755  0.2940 -0.3031  0.0135
 9162TIP3    H148901   2.834   6.411  12.762  0.0876 -0.6051 -0.5556
 9162TIP3    H248902   2.684   6.425  12.775  0.1540 -0.1770 -0.2236
 9163TIP3   OH248903   4.168   0.448  15.632  0.2843 -0.9852  0.4333
 9163TIP3    H148904   4.251   0.495  15.639 -1.0956  1.4588  1.7271
 9163TIP3    H248905   4.186   0.361  15.668  2.5708 -0.9921 -0.5672
 9164TIP3   OH248906   4.209   6.501  13.403  0.2191  0.1380 -0.4050
 9164TIP3    H148907   4.154   6.516  13.480  2.8655  0.4333  1.5983
 9164TIP3    H248908   4.176   6.561  13.337 -0.1935  2.2431  1.5932
 9165TIP3   OH248909   0.847   0.085  17.101 -0.0192  0.4706 -0.3861
 9165TIP3    H148910   0.860   0.033  17.181  0.8979  1.0718 -0.1330
 9165TIP3    H248911   0.859   0.022  17.029 -0.7055 -0.0437 -0.0690
 9166TIP3   OH248912   0.170   3.951  13.844  0.6787  0.9930  0.4107
 9166TIP3    H148913   0.142   3.860  13.838  1.2215  0.8037  0.6755
 9166TIP3    H248914   0.237   3.961  13.776  1.8816  0.7042  1.4987
 9167TIP3   OH248915   2.459   4.825  16.997  0.9263 -0.2758 -0.0836
 9167TIP3    H148916   2.536   4.856  17.045  0.6516 -0.6615  0.6156
 9167TIP3    H248917   2.420   4.759  17.054  0.3185 -0.3996 -0.6304
 9168TIP3   OH248918   3.552   4.659   4.706  0.3918 -0.3562 -0.5579
 9168TIP3    H148919   3.595   4.579   4.676  0.8803  0.2663 -1.5808
 9168TIP3    H248920   3.622   4.712   4.743  0.6737  0.8580 -2.6474
 9169TIP3   OH248921   5.610   1.654   2.279 -0.3257 -0.1957  0.3749
 9169TIP3    H148922   5.589   1.561   2.273 -1.2283  0.0391 -0.4679
 9169TIP3    H248923   5.525   1.698   2.286  0.0329  0.6053 -0.0192
 9170TIP3   OH248924   4.630   2.877  12.199 -0.1758 -0.3412 -0.4237
 9170TIP3    H148925   4.574   2.807  12.165  0.8828 -1.4053 -0.0177
 9170TIP3    H248926   4.580   2.957  12.182 -2.4275 -1.3227  1.1197
 9171TIP3   OH248927   1.699   2.332  15.421 -0.1528  0.4751  0.1994
 9171TIP3    H148928   1.659   2.281  15.351  0.1689  0.0516  0.3192
 9171TIP3    H248929   1.765   2.274  15.458 -1.2410  0.1571  1.7569
 9172TIP3   OH248930   2.121   3.823   0.908 -0.7367  0.1561  0.0301
 9172TIP3    H148931   2.124   3.757   0.977 -0.7665  0.0940 -0.0286
 9172TIP3    H248932   2.175   3.895   0.941  1.5211 -0.9580 -1.0085
 9173TIP3   OH248933   3.444   6.281  11.384  0.1062 -0.0085  0.1075
 9173TIP3    H148934   3.403   6.278  11.470  0.5705  0.6049  0.3572
 9173TIP3    H248935   3.389   6.340  11.332 -0.3395 -0.6093 -0.1109
 9174TIP3   OH248936   5.212   6.504   0.105 -0.4708  0.4728 -0.6248
 9174TIP3    H148937   5.185   6.534   0.192 -1.5239 -2.3085  0.1107
 9174TIP3    H248938   5.287   6.446   0.121 -1.6305 -1.3081 -1.3402
 9175TIP3   OH248939   6.754   6.393  16.445  0.4665 -0.3850 -0.0581
 9175TIP3    H148940   6.702   6.474  16.439 -0.1570 -0.5468  2.0281
 9175TIP3    H248941   6.818   6.400  16.375 -1.0859  0.8003 -1.4453
 9176TIP3   OH248942   0.950   2.677   0.408 -0.2002  0.2192  0.1300
 9176TIP3    H148943   1.023   2.727   0.443 -1.3696  1.4414  0.8849
 9176TIP3    H248944   0.884   2.742   0.384 -0.6922 -0.7891 -1.4173
 9177TIP3   OH248945   3.703   0.360  15.234 -0.0998 -0.4378 -0.5658
 9177TIP3    H148946   3.618   0.401  15.220 -0.8053 -1.5079  0.4084
 9177TIP3    H248947   3.766   0.430  15.217 -1.2194  0.8122  0.1885
 9178TIP3   OH248948   4.809   4.251  14.524 -0.3412  0.2621  0.1033
 9178TIP3    H148949   4.816   4.336  14.567 -1.2689 -0.0838  0.9639
 9178TIP3    H248950   4.883   4.249  14.463  0.8755  0.8664  1.5049
 9179TIP3   OH248951   0.928   0.404  14.991  0.2403  0.5664  0.5563
 9179TIP3    H148952   0.852   0.425  14.938  0.3288 -0.2517  0.0890
 9179TIP3    H248953   0.896   0.404  15.081 -0.0928  1.1478  0.4434
 9180TIP3   OH248954   2.816   6.618   3.922  0.1917  0.5340 -0.1536
 9180TIP3    H148955   2.788   6.680   3.854 -0.5709  0.6296  0.2307
 9180TIP3    H248956   2.809   6.668   4.004  0.2435  0.1537  0.0828
 9181TIP3   OH248957   3.593   5.230   1.670  0.0367 -0.5185  0.5532
 9181TIP3    H148958   3.686   5.248   1.683 -0.1727  0.3122  0.9677
 9181TIP3    H248959   3.589   5.136   1.649  1.0317 -0.3882 -0.2599
 9182TIP3   OH248960   2.660   1.913   1.823  0.2523  0.7334 -0.0428
 9182TIP3    H148961   2.752   1.900   1.849  0.9433  0.0624 -2.5464
 9182TIP3    H248962   2.628   1.825   1.804 -0.3611  1.1205 -0.8451
 9183TIP3   OH248963   3.791   1.252  13.820 -0.2501  0.0672 -0.0470
 9183TIP3    H148964   3.784   1.229  13.913  0.7647  0.9991  0.2893
 9183TIP3    H248965   3.855   1.190  13.785  1.3870  1.3669  0.5224
 9184TIP3   OH248966   4.934   5.336   3.388  0.4668 -0.1385 -0.5152
 9184TIP3    H148967   4.941   5.314   3.481 -2.5876  0.9377  0.0757
 9184TIP3    H248968   5.009   5.293   3.348  0.3846 -2.9707  2.0098
 9185TIP3   OH248969   4.853   4.083  14.097 -0.4745  0.4753 -0.7237
 9185TIP3    H148970   4.861   4.164  14.148 -2.4443  0.5466 -0.4367
 9185TIP3    H248971   4.941   4.046  14.096 -0.1968  0.8693  2.0954
 9186TIP3   OH248972   4.106   5.516   2.810 -0.2299 -0.1400 -0.1252
 9186TIP3    H148973   4.141   5.604   2.824  1.7349 -0.8257 -0.4108
 9186TIP3    H248974   4.142   5.465   2.883 -0.7229 -0.8745 -0.3933
 9187TIP3   OH248975   5.269   3.435   4.716  0.0813  0.2990 -0.0613
 9187TIP3    H148976   5.283   3.481   4.799  0.9735 -0.7132  0.3837
 9187TIP3    H248977   5.295   3.497   4.649 -0.9512  1.2462  0.3884
 9188TIP3   OH248978   4.587   3.293   4.663  0.1067 -0.5559 -0.5624
 9188TIP3    H148979   4.498   3.322   4.644 -1.8233 -4.1895  1.6713
 9188TIP3    H248980   4.606   3.329   4.750  0.8970  0.3258 -1.0943
 9189TIP3   OH248981   2.101   6.029   4.442 -0.2454  0.5156 -0.1523
 9189TIP3    H148982   2.024   6.023   4.385 -1.3160  0.7972  1.1889
 9189TIP3    H248983   2.067   6.009   4.529  1.6895 -1.7075  0.1642
 9190TIP3   OH248984   2.466   0.175  14.468  0.4048 -0.0144 -0.3170
 9190TIP3    H148985   2.520   0.254  14.464  0.8178 -0.2580  0.3439
 9190TIP3    H248986   2.379   0.207  14.490  0.6002  0.2477  0.0912
 9191TIP3   OH248987   6.625   0.453   2.814  0.2754 -0.3088 -0.1501
 9191TIP3    H148988   6.625   0.475   2.721 -0.9183 -3.0607 -0.8984
 9191TIP3    H248989   6.534   0.432   2.834  0.7613 -1.2600  1.2263
 9192TIP3   OH248990   0.136   2.534  16.431  0.6943  0.2551 -0.6611
 9192TIP3    H148991   0.174   2.528  16.519  0.7710  1.7746 -0.5564
 9192TIP3    H248992   0.065   2.470  16.431  2.2217 -1.5403 -0.3337
 9193TIP3   OH248993   2.067   5.569   5.537 -0.0026  0.2204  0.0322
 9193TIP3    H148994   2.082   5.651   5.585  0.0125  0.3015 -0.1100
 9193TIP3    H248995   1.973   5.553   5.545  0.0364  0.1076  0.2898
 9194TIP3   OH248996   2.554   2.747   4.744 -0.0407 -0.1111  0.2396
 9194TIP3    H148997   2.549   2.781   4.655 -0.0184 -1.1210 -0.1514
 9194TIP3    H248998   2.642   2.709   4.751 -0.2867 -0.6354  0.4798
 9195TIP3   OH248999   6.452   4.254  16.379  0.1154 -0.1622 -0.2305
 9195TIP3    H149000   6.454   4.323  16.314  0.3901  1.1795  1.1440
 9195TIP3    H249001   6.543   4.224  16.385 -0.0324 -0.7790 -0.9419
 9196TIP3   OH249002   1.420   4.711   2.157 -0.2982  0.1544 -0.1261
 9196TIP3    H149003   1.405   4.634   2.104  0.5127  1.4183 -2.2947
 9196TIP3    H249004   1.332   4.739   2.184 -1.0640  1.0785 -3.2497
 9197TIP3   OH249005   0.538   5.148   5.314 -0.4632  0.1580 -0.9646
 9197TIP3    H149006   0.481   5.132   5.389 -0.2927 -1.1223 -1.0886
 9197TIP3    H249007   0.477   5.164   5.241 -0.6347  0.5521 -0.7380
 9198TIP3   OH249008   5.319   3.541   5.243 -0.2060 -0.5503  0.0652
 9198TIP3    H149009   5.235   3.516   5.281 -0.7735  0.5580 -0.4514
 9198TIP3    H249010   5.360   3.597   5.309 -1.1094  1.2178 -0.8171
 9199TIP3   OH249011   2.409   1.496  14.810 -0.1002 -0.0940 -0.3319
 9199TIP3    H149012   2.423   1.502  14.904 -0.4858  0.4024 -0.3053
 9199TIP3    H249013   2.482   1.543  14.771 -0.6609  0.8739 -0.2408
 9200TIP3   OH249014   0.305   1.523   0.289  0.4118 -0.2287  0.1052
 9200TIP3    H149015   0.301   1.598   0.229  1.1785  1.0115  1.5423
 9200TIP3    H249016   0.363   1.461   0.247  0.1318  0.1728 -0.9011
 9201TIP3   OH249017   0.452   2.850   2.595 -0.5604 -0.2879 -0.0846
 9201TIP3    H149018   0.419   2.939   2.585 -0.1281 -0.1038  0.0855
 9201TIP3    H249019   0.547   2.860   2.602 -0.5388 -0.7198  0.3592
 9202TIP3   OH249020   5.470   0.991  17.146  0.4843 -0.0002  0.9900
 9202TIP3    H149021   5.528   0.915  17.142 -0.4014 -0.6469  0.1248
 9202TIP3    H249022   5.453   1.003  17.240  1.0695 -0.5175  1.1673
 9203TIP3   OH249023   2.444   2.133   4.156 -0.0096 -0.3852  0.2021
 9203TIP3    H149024   2.360   2.143   4.110  0.1703  2.1284  0.2940
 9203TIP3    H249025   2.452   2.038   4.169 -3.0815 -0.6929  0.6861
 9204TIP3   OH249026   4.122   1.102  11.990 -0.3698 -0.7295  0.3190
 9204TIP3    H149027   4.175   1.178  11.969 -1.7181 -0.0693 -0.9234
 9204TIP3    H249028   4.137   1.086  12.083 -1.1890  2.0075  1.0062
 9205TIP3   OH249029   0.826   3.959   6.274  0.0249  0.2206 -0.4805
 9205TIP3    H149030   0.823   3.947   6.369 -2.1345 -3.6247 -0.8270
 9205TIP3    H249031   0.918   3.946   6.251  0.5694  1.1437  1.0453
 9206TIP3   OH249032   0.098   4.176  11.559 -0.0105 -0.1811 -0.5604
 9206TIP3    H149033   0.153   4.105  11.593 -1.3300 -0.6707  0.5881
 9206TIP3    H249034   0.140   4.199  11.476  0.9213 -1.7493 -0.5797
 9207TIP3   OH249035   5.567   1.369   2.997 -0.1015 -0.1295 -0.2383
 9207TIP3    H149036   5.614   1.313   3.059 -1.8886  1.0242  2.3664
 9207TIP3    H249037   5.534   1.308   2.930  0.2680 -1.7866  1.0162
 9208TIP3   OH249038   6.732   6.003   3.255  0.1986 -0.1275  0.0344
 9208TIP3    H149039   6.775   6.003   3.169 -0.1708 -0.4589 -0.1542
 9208TIP3    H249040   6.653   5.950   3.242  0.0961 -0.1050  0.5576
 9209TIP3   OH249041   2.112   4.766   0.345  0.4615  0.1097  0.3386
 9209TIP3    H149042   2.056   4.760   0.422 -1.5286  1.0597 -0.9454
 9209TIP3    H249043   2.153   4.852   0.351 -0.2670  0.4894 -0.0059
 9210TIP3   OH249044   4.700   2.925  14.958  0.3471 -0.2612 -0.5838
 9210TIP3    H149045   4.617   2.957  14.922  0.2791  0.7054  0.3881
 9210TIP3    H249046   4.755   3.003  14.964  0.1613 -0.2423  1.8785
 9211TIP3   OH249047   1.763   6.192  15.722 -0.2335 -0.0200  0.1835
 9211TIP3    H149048   1.739   6.124  15.659  0.6712  0.1065 -0.3024
 9211TIP3    H249049   1.816   6.146  15.787 -0.1156  0.1063  0.1744
 9212TIP3   OH249050   4.601   4.838   6.018 -0.0685 -0.5229 -0.3088
 9212TIP3    H149051   4.511   4.829   6.052  0.5776 -0.0755  1.6585
 9212TIP3    H249052   4.650   4.768   6.062  0.8503  0.1863 -0.1726
 9213TIP3   OH249053   1.200   4.820  11.472  0.4242  0.9511 -0.3177
 9213TIP3    H149054   1.234   4.835  11.383 -0.2185 -1.5058 -1.0690
 9213TIP3    H249055   1.206   4.725  11.483 -1.1632  1.0301  1.5950
 9214TIP3   OH249056   6.597   2.977  14.679  0.6966 -0.1341 -0.6093
 9214TIP3    H149057   6.502   2.980  14.667  0.3558 -1.7348  1.1831
 9214TIP3    H249058   6.616   3.051  14.737 -0.2184 -2.2766  2.7115
 9215TIP3   OH249059   6.063   0.595   5.805  0.6398 -0.1106 -0.1749
 9215TIP3    H149060   6.094   0.574   5.893  2.3952  2.3727 -0.1105
 9215TIP3    H249061   6.026   0.683   5.813 -2.0984 -1.0622 -1.3276
 9216TIP3   OH249062   1.789   1.646  16.255 -0.1832 -0.0903 -0.6448
 9216TIP3    H149063   1.857   1.659  16.188  0.1067 -0.0017 -0.3386
 9216TIP3    H249064   1.750   1.561  16.234  0.1789 -0.2479 -0.6912
 9217TIP3   OH249065   6.102   2.643   5.706  0.1755 -0.2499 -0.0957
 9217TIP3    H149066   6.166   2.633   5.635  0.7731 -1.9625  0.6231
 9217TIP3    H249067   6.155   2.658   5.784 -0.2471 -1.9080  0.5444
 9218TIP3   OH249068   5.929   4.094  16.846  0.0627  0.5913 -0.3183
 9218TIP3    H149069   5.845   4.049  16.833  0.3520 -0.2304  0.5651
 9218TIP3    H249070   5.974   4.084  16.762  1.1294 -2.9845  0.4950
 9219TIP3   OH249071   0.778   4.206   0.329  0.5714 -0.0063 -0.6937
 9219TIP3    H149072   0.855   4.164   0.366  0.6726 -1.8882 -2.8919
 9219TIP3    H249073   0.812   4.287   0.290  1.6240 -1.1216 -2.2151
 9220TIP3   OH249074   4.907   1.653  16.791 -0.2338 -0.5207  0.0243
 9220TIP3    H149075   4.957   1.732  16.811 -0.3835 -0.6324  0.8653
 9220TIP3    H249076   4.851   1.640  16.867  1.3458 -2.6676  0.9382
 9221TIP3   OH249077   2.603   3.641   4.417 -0.3958 -0.2513 -0.5045
 9221TIP3    H149078   2.637   3.729   4.431 -1.8172  0.2606 -0.2273
 9221TIP3    H249079   2.588   3.636   4.322 -1.0251  0.0784 -0.4271
 9222TIP3   OH249080   1.159   2.526   4.918 -0.5569 -0.2139  0.1268
 9222TIP3    H149081   1.179   2.558   4.829 -0.1437  0.4694  0.4535
 9222TIP3    H249082   1.144   2.432   4.907  2.2578 -0.7082 -0.2781
 9223TIP3   OH249083   2.330   5.383   6.093  0.1151  0.0178 -0.2562
 9223TIP3    H149084   2.354   5.468   6.130  0.4761 -0.3876  0.4613
 9223TIP3    H249085   2.352   5.320   6.161 -0.2135 -0.6507 -0.7548
 9224TIP3   OH249086   2.837   5.336  12.557 -0.2391  0.3638 -0.1326
 9224TIP3    H149087   2.852   5.430  12.565 -2.2376  0.6266  1.4188
 9224TIP3    H249088   2.742   5.326  12.564 -0.5150 -1.4887 -4.0625
 9225TIP3   OH249089   5.790   4.862  12.623 -0.2028 -0.2592  0.6224
 9225TIP3    H149090   5.723   4.923  12.594  0.2892  0.0044 -0.0066
 9225TIP3    H249091   5.841   4.844  12.543  0.8829  0.0834  1.2260
 9226TIP3   OH249092   5.669   5.989   3.415  0.1104  0.1018 -0.0185
 9226TIP3    H149093   5.639   5.910   3.372  0.5943 -0.0037 -0.1676
 9226TIP3    H249094   5.636   5.981   3.505  2.4471 -1.6242  0.7981
 9227TIP3   OH249095   6.766   2.954  11.585 -0.0138 -0.4024  0.0256
 9227TIP3    H149096   6.855   2.975  11.557  0.3599 -1.9802 -0.0394
 9227TIP3    H249097   6.734   2.891  11.520  0.5184 -3.3870  2.4186
 9228TIP3   OH249098   6.729   5.564   1.513 -0.1577 -0.1749  0.2559
 9228TIP3    H149099   6.819   5.569   1.483 -0.2300 -1.1413 -0.1464
 9228TIP3    H249100   6.726   5.485   1.567 -0.6248  0.1724  0.7541
 9229TIP3   OH249101   5.538   6.383   4.846  0.2207 -0.5116  0.8763
 9229TIP3    H149102   5.444   6.385   4.826  0.6039 -0.6608 -1.0803
 9229TIP3    H249103   5.541   6.386   4.942 -1.7851 -0.8975  1.0074
 9230TIP3   OH249104   3.182   4.084  14.499  0.4234  0.1913 -0.5542
 9230TIP3    H149105   3.125   4.007  14.499  0.2183  0.3406 -0.2317
 9230TIP3    H249106   3.124   4.157  14.522  0.9452  0.1890  0.8881
 9231TIP3   OH249107   1.076   6.258  16.037 -1.0011 -0.2574  0.0457
 9231TIP3    H149108   1.024   6.309  15.974  0.9368  0.0933 -1.3792
 9231TIP3    H249109   1.087   6.173  15.994  0.8692  0.1903 -0.4650
 9232TIP3   OH249110   2.477   4.286   0.886 -0.6685  0.4010  0.3808
 9232TIP3    H149111   2.480   4.370   0.932 -0.7601  0.2814  0.6109
 9232TIP3    H249112   2.475   4.308   0.793 -0.8266  0.6558  0.4455
 9233TIP3   OH249113   3.281   3.740  15.004  0.0351 -0.1928  0.1214
 9233TIP3    H149114   3.352   3.676  14.995  0.4388  0.2442  0.2105
 9233TIP3    H249115   3.212   3.692  15.050  0.2774 -0.6118  0.0545
 9234TIP3   OH249116   2.677   5.723  11.177  0.1009 -0.1410  0.3270
 9234TIP3    H149117   2.633   5.773  11.108 -0.0169  0.6207  0.9383
 9234TIP3    H249118   2.691   5.637  11.139 -0.4878  0.0916 -0.4455
 9235TIP3   OH249119   1.120   0.349   1.088  0.0717 -0.0345  0.0034
 9235TIP3    H149120   1.166   0.355   1.004 -1.4089 -1.0022 -0.9226
 9235TIP3    H249121   1.184   0.379   1.152  0.4783  3.1474 -1.6811
 9236TIP3   OH249122   1.856   4.075  14.090 -0.1675  0.8122 -0.1536
 9236TIP3    H149123   1.930   4.015  14.085  0.7946  1.3838  3.8410
 9236TIP3    H249124   1.795   4.033  14.150 -0.9646  2.3282  0.1564
 9237TIP3   OH249125   4.668   3.006   1.237 -0.8481  0.0535  0.2984
 9237TIP3    H149126   4.726   3.003   1.313  0.5707  0.8305 -0.7114
 9237TIP3    H249127   4.596   3.062   1.264 -0.1393  0.6785  0.9268
 9238TIP3   OH249128   5.940   6.078   0.838 -0.4584 -0.1681 -0.0884
 9238TIP3    H149129   5.889   6.028   0.903 -0.9830  0.4349 -0.0331
 9238TIP3    H249130   5.958   6.161   0.881 -2.3474  0.9680 -1.3442
 9239TIP3   OH249131   0.438   3.237   2.072  0.0374 -0.1422 -0.0805
 9239TIP3    H149132   0.488   3.266   1.995  0.0801  0.8940  0.3278
 9239TIP3    H249133   0.364   3.188   2.035 -0.3706  0.9883 -0.8430
 9240TIP3   OH249134   0.887   6.792   4.201 -0.1347 -0.1437  0.1308
 9240TIP3    H149135   0.824   6.854   4.163  0.6330 -0.4977 -1.8331
 9240TIP3    H249136   0.972   6.836   4.194  0.3965 -1.2992 -1.1229
 9241TIP3   OH249137   1.453   1.276  16.754 -0.6952  0.0754 -0.1772
 9241TIP3    H149138   1.420   1.364  16.734  0.8525  1.1885  1.7559
 9241TIP3    H249139   1.454   1.273  16.850 -1.2470 -2.3009 -0.1939
 9242TIP3   OH249140   0.963   2.748  11.708 -0.5153  0.0700 -0.0820
 9242TIP3    H149141   0.898   2.808  11.744 -0.7269 -0.2324  0.0497
 9242TIP3    H249142   1.021   2.727  11.782  1.1578  2.1509 -0.7262
 9243TIP3   OH249143   5.410   0.671   3.014 -0.3536 -0.6849 -0.0370
 9243TIP3    H149144   5.448   0.647   2.929  1.0325  0.6055  0.1708
 9243TIP3    H249145   5.338   0.609   3.027 -1.2982 -0.2681 -2.6511
 9244TIP3   OH249146   4.707   2.095   5.431 -0.0971  0.3925  0.7131
 9244TIP3    H149147   4.665   2.022   5.384  3.1000 -1.1333 -0.0824
 9244TIP3    H249148   4.655   2.171   5.408 -2.3429 -1.2837 -0.1792
 9245TIP3   OH249149   1.863   1.896   5.087 -0.3956 -0.5885  0.0588
 9245TIP3    H149150   1.837   1.983   5.119 -1.7168 -0.0956 -2.1533
 9245TIP3    H249151   1.951   1.884   5.122 -0.9036  0.7881  2.0090
 9246TIP3   OH249152   0.318   2.913  10.849  0.5990  0.2192  0.3722
 9246TIP3    H149153   0.263   2.842  10.816  1.2948  0.2319 -0.8660
 9246TIP3    H249154   0.262   2.991  10.845  0.9940  0.4573 -1.9737
 9247TIP3   OH249155   0.936   6.066  16.629  0.7640  0.1834  0.2600
 9247TIP3    H149156   0.981   6.114  16.560  2.3103 -1.6696 -0.1210
 9247TIP3    H249157   0.972   6.101  16.710  1.8905 -0.2822 -0.0161
 9248TIP3   OH249158   2.049   4.144   1.659 -0.1755 -0.2227  0.3291
 9248TIP3    H149159   2.033   4.175   1.748  0.3846 -1.2475  0.7998
 9248TIP3    H249160   1.961   4.133   1.622 -0.4036  0.6335  0.5958
 9249TIP3   OH249161   1.200   4.678   6.441 -0.9452  0.0917  0.4817
 9249TIP3    H149162   1.236   4.767   6.438  3.0332 -1.3112 -2.1418
 9249TIP3    H249163   1.231   4.642   6.524 -2.1611  0.9513  1.3298
 9250TIP3   OH249164   6.631   4.210  10.371 -0.6097 -0.4355 -0.0914
 9250TIP3    H149165   6.680   4.130  10.355  0.6163 -0.1852  2.1378
 9250TIP3    H249166   6.561   4.185  10.430 -1.4782 -0.2147 -0.9888
 9251TIP3   OH249167   0.930   4.188  15.957  0.2406 -0.4883  0.2417
 9251TIP3    H149168   0.988   4.265  15.963  0.1997 -0.3973 -0.4857
 9251TIP3    H249169   0.912   4.179  15.864 -2.9523  0.9778  0.6142
 9252TIP3   OH249170   6.004   1.449  12.517 -0.6658  0.4419 -0.5054
 9252TIP3    H149171   6.099   1.436  12.521 -1.0483 -3.2215  1.8465
 9252TIP3    H249172   5.969   1.383  12.577 -4.8267  0.5334 -2.5070
 9253TIP3   OH249173   0.226   1.618   0.818 -0.3741  0.0186  0.2257
 9253TIP3    H149174   0.211   1.621   0.724 -2.0656  1.4555  0.4879
 9253TIP3    H249175   0.155   1.565   0.852  0.1243 -0.3426  0.7181
 9254TIP3   OH249176   6.113   0.430   4.950  0.1618 -0.1708  0.7218
 9254TIP3    H149177   6.154   0.489   5.013  1.4449  0.8096 -0.9500
 9254TIP3    H249178   6.175   0.426   4.877  0.1024 -3.5325  0.6932
 9255TIP3   OH249179   2.308   5.708  11.482 -0.0834 -0.2634  0.3018
 9255TIP3    H149180   2.297   5.709  11.578 -0.7784 -0.2421  0.2247
 9255TIP3    H249181   2.395   5.670  11.469 -0.3788 -1.2081  0.9135
 9256TIP3   OH249182   5.299   6.100  13.754  0.3277 -0.7723  0.3221
 9256TIP3    H149183   5.253   6.025  13.715 -0.1532 -0.6860  0.7127
 9256TIP3    H249184   5.363   6.060  13.813  2.1905 -0.9605 -1.7133
 9257TIP3   OH249185   1.616   6.263   2.164  0.6586 -0.3271 -0.0661
 9257TIP3    H149186   1.594   6.193   2.225  0.7718  0.8286  1.3377
 9257TIP3    H249187   1.531   6.293   2.131  0.3876  0.6053  1.3608
 9258TIP3   OH249188   6.356   2.258   1.672 -0.4382 -0.1002 -0.0662
 9258TIP3    H149189   6.336   2.220   1.586  0.8349 -1.6750  0.2851
 9258TIP3    H249190   6.451   2.273   1.670 -0.5729  0.9047  0.6703
 9259TIP3   OH249191   0.222   3.461   0.300 -0.5582  0.1738  0.3082
 9259TIP3    H149192   0.231   3.538   0.357 -0.5827  0.7490 -0.4562
 9259TIP3    H249193   0.298   3.465   0.241 -0.2144 -0.7388  0.6593
 9260TIP3   OH249194   3.234   3.090   5.445 -0.4284 -0.2378  0.6122
 9260TIP3    H149195   3.172   3.094   5.372  0.7995  0.2326 -0.4425
 9260TIP3    H249196   3.198   3.023   5.503 -2.1515  0.3235  0.2728
 9261TIP3   OH249197   2.433   4.648  16.585 -0.0184 -0.6752 -0.0270
 9261TIP3    H149198   2.472   4.595  16.655 -0.0281  0.7782  1.1115
 9261TIP3    H249199   2.347   4.673  16.618 -0.1923 -0.3071 -0.7335
 9262TIP3   OH249200   1.217   6.611  13.363 -0.5100  0.1971 -0.0312
 9262TIP3    H149201   1.252   6.616  13.274 -2.3011  0.9511 -0.7390
 9262TIP3    H249202   1.281   6.659  13.416 -0.4799  1.6398 -1.2887
 9263TIP3   OH249203   0.490   2.564   4.906 -0.1288  0.1421  0.0948
 9263TIP3    H149204   0.532   2.539   4.824 -0.6322  0.3100 -0.2172
 9263TIP3    H249205   0.552   2.624   4.947 -0.9237  2.0393 -1.3281
 9264TIP3   OH249206   4.782   4.977  10.515 -0.4013  0.2974  0.5321
 9264TIP3    H149207   4.769   4.927  10.434 -0.7307 -2.3339  2.0910
 9264TIP3    H249208   4.716   5.046  10.512 -1.2108 -0.4967 -0.9035
 9265TIP3   OH249209   5.091   5.281   1.022 -0.6959  0.3911 -0.2011
 9265TIP3    H149210   5.164   5.297   0.962 -1.2673  1.7510 -0.5669
 9265TIP3    H249211   5.115   5.331   1.101 -0.3879 -0.6409  0.3857
 9266TIP3   OH249212   1.869   0.379   4.498 -0.0266 -0.2502  0.3331
 9266TIP3    H149213   1.868   0.310   4.432 -0.8829  0.7854 -0.7973
 9266TIP3    H249214   1.787   0.367   4.546 -0.2488  0.0445  0.0377
 9267TIP3   OH249215   5.462   1.522   6.800 -0.0353  0.0106 -0.0254
 9267TIP3    H149216   5.468   1.444   6.745 -0.4329 -0.4505  0.5843
 9267TIP3    H249217   5.518   1.504   6.875  0.8941  0.8376 -0.4936
 9268TIP3   OH249218   5.339   2.820   4.370  0.0952 -0.1327 -0.3586
 9268TIP3    H149219   5.287   2.893   4.403 -0.4520 -0.0282 -1.3967
 9268TIP3    H249220   5.354   2.842   4.278  1.3357 -0.5396 -0.2692
 9269TIP3   OH249221   0.575   2.336   1.967  0.1385 -0.4064 -0.1754
 9269TIP3    H149222   0.526   2.290   1.898 -2.0330  1.0260  0.2781
 9269TIP3    H249223   0.533   2.422   1.971  0.9069 -0.0842  2.2085
 9270TIP3   OH249224   5.579   3.644   5.779  0.1284 -0.1400 -0.0148
 9270TIP3    H149225   5.624   3.618   5.699 -1.0264 -1.9262 -0.1221
 9270TIP3    H249226   5.616   3.588   5.847  1.7754  1.9818  0.9782
 9271TIP3   OH249227   4.936   1.361   1.958 -0.3418 -0.0608 -0.1482
 9271TIP3    H149228   4.961   1.314   1.878  0.5302 -0.8549  0.5788
 9271TIP3    H249229   4.851   1.400   1.937  0.5679  1.0742 -2.0161
 9272TIP3   OH249230   5.320   3.069   5.549  0.1138  0.0507 -0.2041
 9272TIP3    H149231   5.389   3.024   5.598 -0.3609  0.3598  0.7726
 9272TIP3    H249232   5.305   3.014   5.473  0.1355 -1.0089  0.5411
 9273TIP3   OH249233   2.868   4.989   1.500 -0.9316  0.3388 -0.1764
 9273TIP3    H149234   2.864   5.073   1.546  0.3209  0.2214  0.1656
 9273TIP3    H249235   2.896   5.012   1.411 -1.9678  0.4179 -0.4932
 9274TIP3   OH249236   4.637   3.477  10.965  0.3692 -0.1104 -0.5322
 9274TIP3    H149237   4.680   3.536  11.027 -0.5225 -1.0816  1.0953
 9274TIP3    H249238   4.704   3.458  10.899  1.5374  0.5404  0.4250
 9275TIP3   OH249239   1.370   5.078   4.181 -0.1736  0.1049  0.0006
 9275TIP3    H149240   1.363   5.014   4.110 -1.2074 -1.3432  1.3459
 9275TIP3    H249241   1.378   5.162   4.136 -1.8249 -0.6412 -1.8546
 9276TIP3   OH249242   3.849   4.583  11.778  0.1725 -0.2130  0.6274
 9276TIP3    H149243   3.835   4.560  11.686  0.5395 -2.0554  0.9821
 9276TIP3    H249244   3.807   4.669  11.788  3.0866  1.7301 -2.0467
 9277TIP3   OH249245   1.980   0.676  15.317 -0.1168  0.1357 -0.1736
 9277TIP3    H149246   2.005   0.584  15.331 -1.0043 -0.5628 -2.5860
 9277TIP3    H249247   2.064   0.722  15.307  0.3326 -0.5525  0.3551
 9278TIP3   OH249248   0.481   6.670  13.668 -0.2832 -0.2618  0.1524
 9278TIP3    H149249   0.525   6.746  13.629  1.6222 -1.4932 -0.2208
 9278TIP3    H249250   0.499   6.598  13.608 -0.1633 -1.4842  1.5844
 9279TIP3   OH249251   0.928   1.226  15.752 -0.2354  0.0634  0.5512
 9279TIP3    H149252   0.994   1.278  15.799 -0.3189 -0.1774  0.9346
 9279TIP3    H249253   0.950   1.135  15.772 -0.3137 -0.0374  0.1802
 9280TIP3   OH249254   3.552   2.392   4.214 -0.4179  0.6507 -1.0459
 9280TIP3    H149255   3.516   2.464   4.265 -1.6031  0.9201 -2.1996
 9280TIP3    H249256   3.515   2.404   4.126  1.7388  0.3696 -2.0708
 9281TIP3   OH249257   0.804   0.660   5.130  0.0394 -0.3909  0.2400
 9281TIP3    H149258   0.816   0.733   5.070  0.7840 -0.1354  0.6927
 9281TIP3    H249259   0.828   0.695   5.216  2.0127 -1.6133  0.2343
 9282TIP3   OH249260   0.908   0.365   2.609  0.0489 -0.0592  0.4179
 9282TIP3    H149261   0.831   0.398   2.562 -1.2732 -1.5707  1.3960
 9282TIP3    H249262   0.954   0.444   2.638 -1.1432  0.8986 -0.1888
 9283TIP3   OH249263   2.191   0.707  13.311  0.0562  0.5675 -0.3293
 9283TIP3    H149264   2.142   0.776  13.355  1.0578  0.2080  1.4390
 9283TIP3    H249265   2.257   0.681  13.374  1.6937  0.1236 -2.1376
 9284TIP3   OH249266   3.748   5.684   1.934  0.5509 -0.4475 -0.1162
 9284TIP3    H149267   3.715   5.768   1.966  1.4344 -0.2560  0.3112
 9284TIP3    H249268   3.673   5.625   1.942  0.2988 -0.0233  0.8390
 9285TIP3   OH249269   4.381   6.766  16.841 -0.2514  0.2159  0.0204
 9285TIP3    H149270   4.309   6.730  16.788  0.5971 -1.1251 -0.2691
 9285TIP3    H249271   4.373   6.861  16.830 -1.7787  0.0924 -0.2630
 9286TIP3   OH249272   5.705   0.380  11.197 -0.2254  0.1652  0.1904
 9286TIP3    H149273   5.776   0.443  11.186  0.2311 -0.2100  0.9275
 9286TIP3    H249274   5.662   0.406  11.279 -0.7373  0.1904 -0.0802
 9287TIP3   OH249275   4.155   2.629  13.852  0.4508  0.3460  0.2349
 9287TIP3    H149276   4.250   2.630  13.864  0.5310  1.3648 -0.3821
 9287TIP3    H249277   4.138   2.549  13.802  1.1496  0.8209 -0.8079
 9288TIP3   OH249278   2.666   4.273   6.013  0.5390  0.3229  0.2085
 9288TIP3    H149279   2.708   4.330   5.949  2.1415 -2.3203 -1.2851
 9288TIP3    H249280   2.738   4.225   6.054 -0.7557 -2.0441 -0.0709
 9289TIP3   OH249281   6.731   5.161   0.503 -0.0472  0.5902 -0.2168
 9289TIP3    H149282   6.824   5.140   0.498  0.1826  1.7458 -1.3257
 9289TIP3    H249283   6.686   5.079   0.480  0.5662 -0.6837  2.6787
 9290TIP3   OH249284   3.425   6.528  12.612  0.2899  0.3465  0.4878
 9290TIP3    H149285   3.353   6.559  12.558 -0.0748 -0.3742  0.5504
 9290TIP3    H249286   3.502   6.574  12.578 -0.0414  0.3885 -0.2147
 9291TIP3   OH249287   2.551   1.835   2.345  0.0067 -0.4397  0.3658
 9291TIP3    H149288   2.573   1.743   2.329 -1.0361 -0.8229  1.0295
 9291TIP3    H249289   2.632   1.883   2.326 -0.2529 -1.1073 -3.1210
 9292TIP3   OH249290   1.201   4.670  11.038 -0.0655  0.1200 -0.3035
 9292TIP3    H149291   1.204   4.693  10.945  0.1149  1.1448 -0.0612
 9292TIP3    H249292   1.108   4.681  11.062  0.3144  2.6987  0.2764
 9293TIP3   OH249293   4.805   3.304   5.277 -0.1524  0.0297  0.3819
 9293TIP3    H149294   4.730   3.360   5.294 -0.6394 -0.7850  0.9675
 9293TIP3    H249295   4.812   3.302   5.182 -1.1400 -0.2288  0.3060
 9294TIP3   OH249296   4.439   6.570  16.357 -0.5522  0.8308  0.3620
 9294TIP3    H149297   4.438   6.484  16.399 -0.2076  0.1196 -1.0312
 9294TIP3    H249298   4.435   6.633  16.430  0.5462 -0.3330  1.4699
 9295TIP3   OH249299   5.167   5.159  10.704  0.0399  0.0618 -0.0108
 9295TIP3    H149300   5.233   5.169  10.773  0.1262 -0.6437  0.0150
 9295TIP3    H249301   5.092   5.210  10.735  0.6073  0.9767 -0.1014
 9296TIP3   OH249302   4.637   1.624   5.650  0.1128 -0.5225 -0.0020
 9296TIP3    H149303   4.559   1.593   5.604 -0.6813  2.6601 -1.0907
 9296TIP3    H249304   4.604   1.689   5.713  1.7860  0.5973 -0.2048
 9297TIP3   OH249305   3.894   3.553   3.116 -0.3413  0.0911  0.4053
 9297TIP3    H149306   3.801   3.570   3.101 -0.2481 -0.2689 -0.7452
 9297TIP3    H249307   3.923   3.623   3.173 -1.3438  0.1540  0.8525
 9298TIP3   OH249308   4.974   5.012   6.310  0.0367 -0.1571 -0.1251
 9298TIP3    H149309   5.033   5.079   6.273  0.4977 -1.4979 -1.9908
 9298TIP3    H249310   4.888   5.035   6.276 -0.3068  0.9336  1.3737
 9299TIP3   OH249311   5.624   3.881   3.605 -0.2500  0.0404  0.2619
 9299TIP3    H149312   5.624   3.789   3.632 -1.2274  0.2140  0.8872
 9299TIP3    H249313   5.667   3.880   3.519  2.2382 -0.6252  1.4088
 9300TIP3   OH249314   3.705   2.400   4.577 -0.0564  0.0297 -0.2264
 9300TIP3    H149315   3.747   2.396   4.663 -0.3616 -1.1730 -0.1230
 9300TIP3    H249316   3.627   2.346   4.585  0.4085 -0.8818 -1.5372
 9301TIP3   OH249317   1.273   4.130   1.380  0.2471 -0.4349 -0.2316
 9301TIP3    H149318   1.237   4.218   1.386 -1.2936 -1.1240  1.8105
 9301TIP3    H249319   1.349   4.131   1.437  1.6760  0.1565 -2.0625
 9302TIP3   OH249320   6.535   5.905  15.081 -0.0362  0.3201 -0.5748
 9302TIP3    H149321   6.465   5.855  15.124  0.0222  0.9173  0.2222
 9302TIP3    H249322   6.494   5.940  15.002 -0.6878  0.7970 -0.0325
 9303TIP3   OH249323   3.481   0.992  13.212  0.4941  0.3729  0.2447
 9303TIP3    H149324   3.388   0.968  13.213  0.1388  1.6405  2.2266
 9303TIP3    H249325   3.485   1.070  13.157  0.7108 -0.6963 -1.3131
 9304TIP3   OH249326   0.387   6.448  10.625 -0.5039  0.1330 -0.3180
 9304TIP3    H149327   0.455   6.380  10.626 -0.1867  0.4551  0.3897
 9304TIP3    H249328   0.306   6.401  10.648 -0.3671 -0.0839 -0.2766
 9305TIP3   OH249329   4.052   5.661  13.804  0.1415  0.6315 -0.5335
 9305TIP3    H149330   4.148   5.670  13.808  0.1959  1.5157 -2.7267
 9305TIP3    H249331   4.036   5.568  13.817  1.4865  0.1086 -2.2236
 9306TIP3   OH249332   3.598   6.198  15.110  0.0915  0.3104  0.0424
 9306TIP3    H149333   3.538   6.208  15.036 -1.1379 -0.7002  0.8451
 9306TIP3    H249334   3.631   6.286  15.126  0.5956  0.5082 -1.8547
 9307TIP3   OH249335   1.290   1.436   0.911 -0.0066  0.2249 -0.4491
 9307TIP3    H149336   1.363   1.469   0.964 -1.5811  2.5678  0.4177
 9307TIP3    H249337   1.233   1.392   0.973  0.3255 -1.0510 -1.0218
 9308TIP3   OH249338   2.993   5.431  16.747 -0.1139  0.2433  0.2179
 9308TIP3    H149339   3.004   5.526  16.750  1.2337  0.0685  1.9251
 9308TIP3    H249340   2.919   5.413  16.804  1.5138  0.0740  2.3865
 9309TIP3   OH249341   1.762   4.039  10.632 -0.3240 -0.3106 -0.3998
 9309TIP3    H149342   1.685   4.002  10.675  0.6061 -0.7139  1.0115
 9309TIP3    H249343   1.823   3.966  10.626  1.5432  0.8321  2.4097
 9310TIP3   OH249344   6.090   3.617  10.674  0.7027 -0.0017 -0.6802
 9310TIP3    H149345   6.151   3.633  10.746 -0.5918 -2.8088  1.2271
 9310TIP3    H249346   6.072   3.704  10.638  0.1784  1.8563  3.4772
 9311TIP3   OH249347   0.553   1.080   4.651  0.2830 -0.5120  0.8597
 9311TIP3    H149348   0.501   1.155   4.623  1.4032  0.4944  1.3514
 9311TIP3    H249349   0.495   1.005   4.643 -0.2338  0.0873 -1.6404
 9312TIP3   OH249350   3.113   1.191   4.997  0.0623  0.1221  0.4471
 9312TIP3    H149351   3.143   1.101   5.012 -0.6622 -0.2174 -0.0901
 9312TIP3    H249352   3.055   1.209   5.071  1.4661  0.7584  1.4549
 9313TIP3   OH249353   5.424   6.300   1.709 -0.2355  0.4325  0.4190
 9313TIP3    H149354   5.384   6.342   1.786  1.3307 -0.8600  2.0213
 9313TIP3    H249355   5.508   6.344   1.699 -0.2053  0.2338 -0.2610
 9314TIP3   OH249356   0.882   4.094  14.711  0.0573 -0.4386 -0.1772
 9314TIP3    H149357   0.961   4.051  14.678  0.9451 -1.0782  2.5255
 9314TIP3    H249358   0.811   4.032  14.691  0.8326 -1.6490  0.6438
 9315TIP3   OH249359   4.808   3.642   0.007 -0.1836 -0.0983  0.0888
 9315TIP3    H149360   4.834   3.616  -0.082  0.2712 -1.4339  0.5855
 9315TIP3    H249361   4.772   3.563   0.046 -0.0269  0.3677  1.2299
 9316TIP3   OH249362   6.149   5.478   6.182 -0.1040 -0.1043  0.3554
 9316TIP3    H149363   6.223   5.417   6.182  0.4468  0.5659  0.4017
 9316TIP3    H249364   6.177   5.551   6.129 -1.0818 -0.2440 -0.3859
 9317TIP3   OH249365   3.449   0.561   3.247 -0.3361  0.0912 -0.7756
 9317TIP3    H149366   3.372   0.581   3.193 -0.0697 -0.8985 -1.5607
 9317TIP3    H249367   3.472   0.471   3.223  0.6135  0.1038  0.0154
 9318TIP3   OH249368   3.144   2.557  10.837 -0.3752 -1.0338 -0.0934
 9318TIP3    H149369   3.187   2.630  10.881  0.9064 -1.3945 -0.6810
 9318TIP3    H249370   3.050   2.574  10.846 -0.1424  1.5504 -1.6058
 9319TIP3   OH249371   6.712   5.258  14.067 -0.1685 -0.0126 -0.0054
 9319TIP3    H149372   6.673   5.261  14.154  1.6322  0.6100  0.8411
 9319TIP3    H249373   6.655   5.200  14.016 -0.3780 -1.7566  2.0644
 9320TIP3   OH249374   2.082   5.474   3.610 -0.1737 -0.2547  0.2891
 9320TIP3    H149375   2.026   5.478   3.687  0.3738 -1.7011  0.7814
 9320TIP3    H249376   2.073   5.561   3.570  0.3548  0.9131  2.5297
 9321TIP3   OH249377   2.089   6.456  14.463 -0.1835  0.0127  0.2453
 9321TIP3    H149378   2.169   6.448  14.515  0.8711  1.4560 -1.0675
 9321TIP3    H249379   2.084   6.374  14.413  1.2839  0.4775 -0.7152
 9322TIP3   OH249380   1.133   3.856  14.860  0.1289  0.0022  0.0981
 9322TIP3    H149381   1.135   3.873  14.766 -0.3890  0.3170  0.1392
 9322TIP3    H249382   1.220   3.882  14.891 -0.2015  1.3697 -0.0605
 9323TIP3   OH249383   5.302   2.127  13.782  0.3784  0.0162  0.0149
 9323TIP3    H149384   5.359   2.053  13.763  1.5345  0.7022  0.7033
 9323TIP3    H249385   5.307   2.137  13.877 -0.2161  0.6365 -0.0125
 9324TIP3   OH249386   0.637   0.815  12.570 -0.1405 -0.3095  0.2308
 9324TIP3    H149387   0.621   0.829  12.663 -1.4255  0.7420 -0.1065
 9324TIP3    H249388   0.631   0.903  12.532  0.8429 -0.6638 -0.7827
 9325TIP3   OH249389   1.760   0.370   3.516  1.0547  0.5202 -0.5376
 9325TIP3    H149390   1.699   0.366   3.442  1.2353  0.2224 -0.6741
 9325TIP3    H249391   1.706   0.395   3.590  0.8473  0.6953 -0.7453
 9326TIP3   OH249392   4.717   5.420  15.541  0.3683  0.0729 -0.0779
 9326TIP3    H149393   4.648   5.475  15.504  0.2438  0.3252  0.5186
 9326TIP3    H249394   4.688   5.402  15.631  0.7725 -0.3431 -0.0283
 9327TIP3   OH249395   5.247   6.519  14.324 -0.3986  0.2474  0.2598
 9327TIP3    H149396   5.297   6.438  14.339  0.0738  0.6616  0.9943
 9327TIP3    H249397   5.199   6.503  14.243  0.5402 -0.3566 -0.1904
 9328TIP3   OH249398   5.390   4.530   1.528 -0.2970  0.1202 -0.1232
 9328TIP3    H149399   5.331   4.593   1.568 -1.2267 -1.3784  1.0017
 9328TIP3    H249400   5.341   4.493   1.455 -0.3559 -0.3399  0.1394
 9329TIP3   OH249401   2.651   5.986   5.249 -0.1061  0.9748 -0.1492
 9329TIP3    H149402   2.583   6.041   5.209 -0.7002  1.0601  0.9439
 9329TIP3    H249403   2.629   5.897   5.222  1.0707  1.2370 -2.2401
 9330TIP3   OH249404   1.510   5.205   2.190 -0.4810  0.6028 -0.0970
 9330TIP3    H149405   1.600   5.179   2.213 -0.5317 -0.6035 -1.1351
 9330TIP3    H249406   1.475   5.129   2.144 -1.7320  1.4088 -0.5137
 9331TIP3   OH249407   0.404   3.064   2.325 -0.7358  0.3812 -0.4481
 9331TIP3    H149408   0.483   3.009   2.326 -1.1305 -0.1943 -0.1570
 9331TIP3    H249409   0.424   3.134   2.263 -0.5101 -0.5353 -1.4398
 9332TIP3   OH249410   4.662   0.237  15.468  0.1699  0.1477 -0.2199
 9332TIP3    H149411   4.701   0.188  15.539 -1.2178  0.7304  1.0160
 9332TIP3    H249412   4.720   0.312  15.455  0.0817  0.4096  0.8084
 9333TIP3   OH249413   6.678   3.181  14.852 -0.3923 -0.1135  0.6511
 9333TIP3    H149414   6.642   3.163  14.939  1.3656 -1.9807  1.0714
 9333TIP3    H249415   6.757   3.232  14.868 -0.6473  0.4980  0.0393
 9334TIP3   OH249416   0.407   0.557   0.919 -0.3321 -0.2120  0.0324
 9334TIP3    H149417   0.451   0.493   0.974 -0.0428 -0.0762 -0.0434
 9334TIP3    H249418   0.314   0.535   0.927 -0.1312 -2.0641 -1.7176
 9335TIP3   OH249419   4.547   3.536  12.979  0.6311  0.6730 -0.2746
 9335TIP3    H149420   4.609   3.465  12.960  1.6268  1.7635 -1.2420
 9335TIP3    H249421   4.464   3.506  12.941  1.2193  0.3394 -1.3211
 9336TIP3   OH249422   4.558   4.176  12.442  0.1394  0.7760 -0.1493
 9336TIP3    H149423   4.516   4.119  12.377 -0.7335 -0.0981  1.1424
 9336TIP3    H249424   4.649   4.183  12.413 -0.1273  0.0277 -1.2009
 9337TIP3   OH249425   4.229   5.438   4.314 -0.5974  0.0259  0.2400
 9337TIP3    H149426   4.253   5.504   4.248 -1.0142  0.1997  0.2609
 9337TIP3    H249427   4.270   5.358   4.283 -0.1106  0.2882  0.1958
 9338TIP3   OH249428   5.027   6.307   0.710 -0.1183 -0.1272  0.0839
 9338TIP3    H149429   4.968   6.382   0.719  0.3223 -0.0088  3.1842
 9338TIP3    H249430   5.102   6.341   0.661  0.3702  1.7426  1.9677
 9339TIP3   OH249431   1.692   0.340  13.825 -0.4163  0.4467  0.2305
 9339TIP3    H149432   1.632   0.266  13.811 -2.6189  2.4670 -1.7293
 9339TIP3    H249433   1.758   0.330  13.756 -0.2767 -0.0569  0.4278
 9340TIP3   OH249434   6.582   1.135  15.174  0.3316 -0.1460  0.3904
 9340TIP3    H149435   6.524   1.060  15.165  1.4894 -0.9130 -1.2082
 9340TIP3    H249436   6.662   1.109  15.128  0.7946  2.0442 -0.1525
 9341TIP3   OH249437   1.391   5.498   3.825  0.2484  0.2795  0.6340
 9341TIP3    H149438   1.352   5.583   3.845 -0.0855 -0.1196  1.7682
 9341TIP3    H249439   1.316   5.441   3.808  0.4862  0.2891 -0.5110
 9342TIP3   OH249440   2.479   4.291   0.124 -0.4423  0.2890  0.1758
 9342TIP3    H149441   2.535   4.362   0.091 -2.4046  1.3564 -1.0075
 9342TIP3    H249442   2.436   4.329   0.201  0.2305 -0.4517  0.9430
 9343TIP3   OH249443   1.926   3.828  10.594  0.1928  0.0939  0.0936
 9343TIP3    H149444   1.987   3.814  10.666  0.3223 -0.2250 -0.0763
 9343TIP3    H249445   1.965   3.782  10.520 -0.3432 -0.2775  0.0358
 9344TIP3   OH249446   5.881   5.237  14.425 -0.0702  0.1935  0.2645
 9344TIP3    H149447   5.789   5.211  14.415 -0.2699  1.2083 -0.8172
 9344TIP3    H249448   5.913   5.185  14.498 -1.2795 -0.7864  0.1344
 9345TIP3   OH249449   6.038   3.656   4.520  0.5077  0.2346  0.3328
 9345TIP3    H149450   6.026   3.611   4.437  0.2875  1.0178 -0.0722
 9345TIP3    H249451   6.087   3.594   4.574  1.2929 -0.0177 -0.6283
 9346TIP3   OH249452   1.180   6.752  14.085 -0.0235  0.3281  0.1485
 9346TIP3    H149453   1.096   6.776  14.046 -0.2956 -1.2956 -0.3417
 9346TIP3    H249454   1.187   6.658  14.072  2.0435  0.4659 -0.1392
 9347TIP3   OH249455   3.170   2.184  16.660  0.0291 -0.3027 -0.2045
 9347TIP3    H149456   3.096   2.146  16.614  0.5248 -0.5421 -0.8244
 9347TIP3    H249457   3.137   2.206  16.747 -0.3190 -1.9831  0.1055
 9348TIP3   OH249458   4.857   0.622  13.847  0.3852 -0.2721  0.2805
 9348TIP3    H149459   4.851   0.636  13.752  0.2842  0.4301  0.3844
 9348TIP3    H249460   4.916   0.547  13.856 -2.4910 -2.8624 -0.5136
 9349TIP3   OH249461   3.813   2.988   3.291 -0.0536 -0.2008 -0.0395
 9349TIP3    H149462   3.799   3.058   3.227 -0.0494 -0.2429 -0.0863
 9349TIP3    H249463   3.764   3.015   3.368 -0.1183 -0.1857 -0.0864
 9350TIP3   OH249464   1.890   0.829  13.052  0.0846 -0.1045  0.1105
 9350TIP3    H149465   1.847   0.747  13.028  0.3905  0.2211 -1.6840
 9350TIP3    H249466   1.928   0.861  12.970  0.2566  1.6709  0.8444
 9351TIP3   OH249467   1.038   5.969   5.280 -0.1053 -0.2086 -0.4703
 9351TIP3    H149468   1.039   6.028   5.355  0.6762 -1.0162  0.1786
 9351TIP3    H249469   0.996   5.889   5.313 -1.6261  0.1343 -1.4739
 9352TIP3   OH249470   0.286   3.087   1.889  0.0789 -0.3669 -0.0302
 9352TIP3    H149471   0.334   3.090   1.807  0.1699 -0.1023  0.0321
 9352TIP3    H249472   0.315   3.006   1.931 -0.4005 -0.8008 -0.5179
 9353TIP3   OH249473   0.627   2.052  14.787 -0.0923 -0.5246 -0.0647
 9353TIP3    H149474   0.549   2.050  14.732  0.4671 -0.2494 -0.8814
 9353TIP3    H249475   0.633   2.144  14.816  0.6946 -0.2270 -1.1336
 9354TIP3   OH249476   1.570   5.783   5.327 -0.0754  0.6507  0.0565
 9354TIP3    H149477   1.501   5.842   5.299 -0.9714 -0.1212  0.5910
 9354TIP3    H249478   1.612   5.828   5.400  0.2035  1.2597 -0.4699
 9355TIP3   OH249479   1.491   1.493   3.000  0.3172  0.2094 -0.2373
 9355TIP3    H149480   1.536   1.536   3.073 -1.3028 -0.5131  1.2337
 9355TIP3    H249481   1.489   1.560   2.931 -0.1670  1.7508  1.1945
 9356TIP3   OH249482   2.449   4.653   1.713  0.2282 -0.1389  0.2057
 9356TIP3    H149483   2.495   4.693   1.639  0.9680 -0.7089  0.3449
 9356TIP3    H249484   2.370   4.706   1.724 -0.0827 -0.2475 -1.2218
 9357TIP3   OH249485   5.838   2.984   1.672  0.2214 -0.2126  0.4720
 9357TIP3    H149486   5.890   2.945   1.602 -0.5276  1.7293 -1.2296
 9357TIP3    H249487   5.829   2.913   1.736  0.2225 -2.3599 -1.7489
 9358TIP3   OH249488   3.586   6.174  14.658 -0.0660  0.3929  0.0806
 9358TIP3    H149489   3.522   6.190  14.728  1.6333  1.2355  1.5090
 9358TIP3    H249490   3.631   6.257  14.647  0.7141 -0.1528 -0.9903
 9359TIP3   OH249491   6.165   0.166   4.906  0.2569  0.2827  0.0853
 9359TIP3    H149492   6.126   0.254   4.899 -0.5958  0.0749  1.7754
 9359TIP3    H249493   6.220   0.171   4.984 -0.9110 -1.0594  1.0418
 9360TIP3   OH249494   1.890   4.034  11.296 -0.1958  0.1006 -0.1558
 9360TIP3    H149495   1.946   4.048  11.220  0.3343 -0.8829  0.0363
 9360TIP3    H249496   1.812   4.086  11.278  0.5710  1.1112 -0.6467
 9361TIP3   OH249497   3.471   3.182  12.541 -0.2294  0.3188  0.0063
 9361TIP3    H149498   3.426   3.134  12.611 -0.7237 -0.2468 -0.6960
 9361TIP3    H249499   3.543   3.124  12.516  1.4721  1.5751  1.7061
 9362TIP3   OH249500   6.005   3.130   5.396  0.5746  0.0864 -0.0429
 9362TIP3    H149501   5.915   3.100   5.384  0.1705  1.6558 -1.2924
 9362TIP3    H249502   6.057   3.050   5.389 -0.7530 -1.0406  1.9412
 9363TIP3   OH249503   4.297   6.484   0.479  0.1528 -0.4316 -0.2185
 9363TIP3    H149504   4.302   6.558   0.418  1.7063 -0.8488 -0.6340
 9363TIP3    H249505   4.322   6.521   0.563  0.2022 -0.3225 -0.2810
 9364TIP3   OH249506   2.161   1.055  10.995 -0.0649  0.2522 -0.2104
 9364TIP3    H149507   2.118   1.129  10.952 -0.2030 -0.0000 -0.5121
 9364TIP3    H249508   2.115   1.046  11.078  1.6798  2.2065  1.0999
 9365TIP3   OH249509   1.604   3.914  11.317 -0.3084 -0.4969 -0.0404
 9365TIP3    H149510   1.684   3.887  11.362 -1.1551 -2.0872  0.5880
 9365TIP3    H249511   1.635   3.971  11.246  1.2045  0.4862  1.3382
 9366TIP3   OH249512   0.084   3.543  12.944 -0.1186 -0.6539 -0.4889
 9366TIP3    H149513   0.139   3.599  12.890  0.5179 -1.0493 -0.2728
 9366TIP3    H249514   0.018   3.601  12.981  0.8519  0.0533  0.1558
 9367TIP3   OH249515   6.253   6.639   4.608 -0.2905 -0.2558  0.3365
 9367TIP3    H149516   6.260   6.546   4.630  1.2959 -0.0530  0.8013
 9367TIP3    H249517   6.190   6.674   4.671  0.5704 -0.6511  1.4515
 9368TIP3   OH249518   4.076   1.227   0.004 -0.1332 -0.2334 -0.1556
 9368TIP3    H149519   4.159   1.245  -0.039  0.6508 -0.5111  1.1993
 9368TIP3    H249520   4.100   1.184   0.086 -1.6419 -0.9351 -0.0429
 9369TIP3   OH249521   6.572   5.410  10.479 -0.0305 -0.2168  0.0025
 9369TIP3    H149522   6.545   5.318  10.483  1.1383 -0.5318  1.1250
 9369TIP3    H249523   6.491   5.458  10.497 -0.6646 -1.0182 -0.6241
 9370TIP3   OH249524   0.548   1.293  11.985  0.5847  0.3351  0.5073
 9370TIP3    H149525   0.552   1.199  11.967 -0.5291  0.5417 -1.1379
 9370TIP3    H249526   0.457   1.317  11.965  1.2698  2.0521 -0.8297
 9371TIP3   OH249527   2.953   4.594   2.930 -0.5937  0.4846 -0.0306
 9371TIP3    H149528   2.868   4.633   2.949 -0.0632  1.4526  0.4599
 9371TIP3    H249529   3.007   4.668   2.901  0.2148 -0.0163  0.1650
 9372TIP3   OH249530   5.763   3.151   2.534 -0.4858 -0.0976 -0.4553
 9372TIP3    H149531   5.853   3.168   2.505  0.3201 -0.8313  1.4529
 9372TIP3    H249532   5.763   3.060   2.561 -1.0927  0.5201  1.8661
 9373TIP3   OH249533   1.266   6.391   0.114  0.4194  0.0893  0.3629
 9373TIP3    H149534   1.209   6.447   0.167  0.0035  0.9225 -0.9227
 9373TIP3    H249535   1.279   6.440   0.033 -0.0905 -1.7419 -0.8966
 9374TIP3   OH249536   1.487   5.477  12.211 -0.6242 -0.2242 -0.5393
 9374TIP3    H149537   1.485   5.472  12.306  0.3702 -1.7531 -0.5783
 9374TIP3    H249538   1.469   5.569  12.192  0.2426  0.3275  1.1510
 9375TIP3   OH249539   3.685   3.079  12.768  0.3527 -0.2497  0.4348
 9375TIP3    H149540   3.680   3.036  12.683 -0.7064 -0.9677  0.8358
 9375TIP3    H249541   3.733   3.017  12.823  1.7375  0.5536  0.1923
 9376TIP3   OH249542   6.517   6.631  12.762  0.4654 -0.3355 -0.1659
 9376TIP3    H149543   6.542   6.582  12.841  4.1320 -0.0555 -1.0171
 9376TIP3    H249544   6.486   6.564  12.701  0.7736 -0.9609  0.3556
 9377TIP3   OH249545   2.374   3.797  15.745 -0.2043 -0.4627  0.4048
 9377TIP3    H149546   2.346   3.885  15.718  1.4859 -0.9741 -3.6380
 9377TIP3    H249547   2.317   3.738  15.697  1.4002 -1.5010 -0.3020
 9378TIP3   OH249548   4.447   1.433   3.488 -0.1179  0.3354  0.6348
 9378TIP3    H149549   4.359   1.403   3.466  0.2983 -0.1850 -0.4005
 9378TIP3    H249550   4.472   1.491   3.416  0.7457 -0.2968  0.4045
 9379TIP3   OH249551   2.984   4.096  11.610  0.0377 -0.0984  0.5905
 9379TIP3    H149552   2.891   4.116  11.609  0.0282 -0.1484  0.4909
 9379TIP3    H249553   3.028   4.181  11.604  0.0223 -0.2079 -3.0688
 9380TIP3   OH249554   3.608   4.705   3.667  0.4926 -0.2516 -0.9827
 9380TIP3    H149555   3.564   4.765   3.607 -1.8945 -1.8738 -1.0002
 9380TIP3    H249556   3.609   4.752   3.751 -0.2438  0.3015 -1.2712
 9381TIP3   OH249557   3.375   5.013   6.068  0.3519  0.3455  0.3333
 9381TIP3    H149558   3.437   5.083   6.090  2.0843 -0.3494 -1.9866
 9381TIP3    H249559   3.380   4.952   6.142  1.8956  0.6774  0.5272
 9382TIP3   OH249560   4.256   2.050   0.863 -0.4298 -0.6559 -0.1459
 9382TIP3    H149561   4.282   1.968   0.906 -0.9333  0.2551  2.0387
 9382TIP3    H249562   4.250   2.113   0.935 -0.1649  1.2898 -1.7615
 9383TIP3   OH249563   5.891   1.545   4.239 -0.0953  0.0259 -0.6303
 9383TIP3    H149564   5.863   1.503   4.320  1.1428  0.4133  0.0261
 9383TIP3    H249565   5.969   1.497   4.213  0.5342  1.0087 -0.6152
 9384TIP3   OH249566   5.507   0.724  14.374  0.3287 -0.2770 -0.0751
 9384TIP3    H149567   5.471   0.639  14.398  0.2106  0.0849  1.0942
 9384TIP3    H249568   5.600   0.708  14.361  0.5968 -0.3157  1.6943
 9385TIP3   OH249569   5.133   5.603  12.187  0.0646 -0.5027  0.0996
 9385TIP3    H149570   5.088   5.608  12.103  0.7361 -1.5750 -0.3488
 9385TIP3    H249571   5.193   5.529  12.178  1.4653  0.4833  0.8952
 9386TIP3   OH249572   6.733   6.744  17.076  0.2544 -0.4830 -0.5017
 9386TIP3    H149573   6.701   6.731  16.986  0.8492 -1.6820 -0.5647
 9386TIP3    H249574   6.756   6.656  17.106 -1.0794 -0.2589  1.2841
 9387TIP3   OH249575   6.504   0.687  14.799 -0.3761  0.3954 -0.5373
 9387TIP3    H149576   6.417   0.726  14.791  0.1365  2.1933  1.6986
 9387TIP3    H249577   6.543   0.696  14.712 -2.1740  0.1151 -1.4100
 9388TIP3   OH249578   5.562   6.708   1.988  0.6871  0.0009 -0.1893
 9388TIP3    H149579   5.653   6.705   1.959  1.5705 -0.0911  2.3386
 9388TIP3    H249580   5.531   6.795   1.964  2.1857  0.8704  0.8729
 9389TIP3   OH249581   2.832   6.561   1.625  1.0233 -0.5779 -0.1753
 9389TIP3    H149582   2.845   6.474   1.662  3.0842 -0.0089  0.6157
 9389TIP3    H249583   2.892   6.565   1.550 -1.3518 -0.8733 -2.2370
 9390TIP3   OH249584   0.270   2.934  14.197  0.3653  0.3475 -0.4394
 9390TIP3    H149585   0.242   3.026  14.192  1.1756  0.7820  1.7026
 9390TIP3    H249586   0.283   2.908  14.106 -1.7517  1.7338 -1.2269
 9391TIP3   OH249587   0.697   1.347   4.805 -0.4640 -0.6003  0.0363
 9391TIP3    H149588   0.752   1.392   4.869  0.3532 -1.0899 -0.3155
 9391TIP3    H249589   0.718   1.254   4.816 -1.5270 -0.8410  0.1800
 9392TIP3   OH249590   0.634   2.881   2.266 -0.1682  0.0068  0.0716
 9392TIP3    H149591   0.668   2.808   2.318 -1.6978 -1.9315 -1.4403
 9392TIP3    H249592   0.685   2.878   2.185 -2.2785 -1.5514 -1.3167
 9393TIP3   OH249593   2.583   5.938  15.709  0.2777 -0.1350  0.6081
 9393TIP3    H149594   2.613   5.853  15.741 -0.3407 -0.1608  1.1458
 9393TIP3    H249595   2.627   5.950  15.625  1.1792 -0.5101  1.0235
 9394TIP3   OH249596   3.223   5.178   0.135 -0.4641  0.3415 -0.0322
 9394TIP3    H149597   3.302   5.195   0.084  0.6387 -1.1643  1.1101
 9394TIP3    H249598   3.233   5.232   0.213 -0.2220 -0.3419  0.4198
 9395TIP3   OH249599   2.830   5.426  12.901 -0.3296  0.6355 -0.1675
 9395TIP3    H149600   2.804   5.509  12.941 -0.5608  0.4361  0.0988
 9395TIP3    H249601   2.910   5.447  12.852  0.8265  0.5782  1.6150
 9396TIP3   OH249602   6.278   2.553  11.759  0.2967 -0.2956  0.1392
 9396TIP3    H149603   6.224   2.618  11.715  1.2490  0.8011  0.5452
 9396TIP3    H249604   6.270   2.575  11.852  0.8661 -0.5827  0.2589
 9397TIP3   OH249605   3.732   2.905  14.887  0.2369 -0.4838 -0.7140
 9397TIP3    H149606   3.702   2.992  14.863 -1.1297 -0.9698 -0.8243
 9397TIP3    H249607   3.805   2.921  14.947  0.0260  0.7263 -0.7530
 9398TIP3   OH249608   5.736   5.639  12.617  0.2980  0.8112 -0.1025
 9398TIP3    H149609   5.715   5.662  12.526  1.7922  0.5395 -0.5444
 9398TIP3    H249610   5.664   5.582  12.644  0.8270 -0.7647 -1.8230
 9399TIP3   OH249611   3.719   2.268   2.161  0.0718  0.7499  0.0001
 9399TIP3    H149612   3.758   2.290   2.076 -0.3227 -0.9248 -0.6477
 9399TIP3    H249613   3.703   2.174   2.156 -0.1497  0.6636  1.8664
 9400TIP3   OH249614   2.194   5.548   4.721 -0.1305  0.4761  0.3329
 9400TIP3    H149615   2.235   5.547   4.807  1.2218 -0.8811 -0.2774
 9400TIP3    H249616   2.215   5.462   4.683 -0.0517  1.2911 -1.6282
 9401TIP3   OH249617   1.328   3.700   5.612  0.0907 -0.0840  0.3813
 9401TIP3    H149618   1.242   3.659   5.602  1.3512 -2.5521 -1.1070
 9401TIP3    H249619   1.308   3.793   5.627 -2.7944 -0.1721 -1.9807
 9402TIP3   OH249620   6.372   2.825   0.822 -0.9655 -0.2101 -0.0523
 9402TIP3    H149621   6.330   2.902   0.860 -3.5725  0.1391 -3.1756
 9402TIP3    H249622   6.323   2.751   0.856 -0.7801 -0.2100  0.2162
 9403TIP3   OH249623   2.455   0.463   1.577  0.5503  0.5638  0.3963
 9403TIP3    H149624   2.476   0.553   1.550 -0.7082  0.3220 -1.5836
 9403TIP3    H249625   2.449   0.414   1.495  0.6462 -1.2250  1.4062
 9404TIP3   OH249626   0.441   2.815   3.085  0.0664  0.4421 -0.3781
 9404TIP3    H149627   0.366   2.784   3.135 -1.2526  1.0425 -1.9283
 9404TIP3    H249628   0.456   2.748   3.019  1.7736 -0.3222  0.7127
 9405TIP3   OH249629   6.461   0.432   3.532  0.1087  0.0195 -0.1619
 9405TIP3    H149630   6.372   0.467   3.533 -0.4113 -1.2233 -1.3201
 9405TIP3    H249631   6.454   0.349   3.578  0.2220 -1.0557 -2.0176
 9406TIP3   OH249632   3.551   4.436  15.212  0.6928  0.6767 -0.4433
 9406TIP3    H149633   3.503   4.374  15.157 -1.2699  1.2404  0.5337
 9406TIP3    H249634   3.494   4.513  15.217  1.5517  1.2605  1.0368
 9407TIP3   OH249635   5.653   6.584  12.916  0.2994  0.4730 -0.4099
 9407TIP3    H149636   5.630   6.664  12.869 -1.8045 -0.7652 -1.6535
 9407TIP3    H249637   5.595   6.583  12.992  1.0934  0.6241  0.2197
 9408TIP3   OH249638   4.036   5.188   1.457  0.0597 -0.6122 -0.4065
 9408TIP3    H149639   4.066   5.279   1.447 -1.4915 -0.1629 -1.4185
 9408TIP3    H249640   4.020   5.159   1.367 -2.5740 -0.7437  0.0337
 9409TIP3   OH249641   1.342   3.915  11.950 -0.0715  0.5042  0.2226
 9409TIP3    H149642   1.354   3.830  11.993 -0.5614 -0.3768 -1.2944
 9409TIP3    H249643   1.247   3.928  11.950 -0.1622  0.0544 -1.3090
 9410TIP3   OH249644   5.722   3.034   6.211 -0.5875  0.2823 -0.2157
 9410TIP3    H149645   5.765   3.022   6.296 -4.0697  0.4046  1.7541
 9410TIP3    H249646   5.707   3.128   6.205  2.4180  0.7504 -2.6288
 9411TIP3   OH249647   5.705   3.536  11.838 -0.0834  0.0494 -1.1146
 9411TIP3    H149648   5.712   3.585  11.920 -1.5356 -0.1109 -0.8653
 9411TIP3    H249649   5.717   3.445  11.862  0.6846  0.1037 -1.2755
 9412TIP3   OH249650   3.968   5.694   0.779  0.0301  0.3296  0.0889
 9412TIP3    H149651   3.986   5.712   0.687  0.1800  2.3139  0.4605
 9412TIP3    H249652   3.988   5.601   0.790  1.0622  0.3139 -1.6288
 9413TIP3   OH249653   4.811   2.915   2.176  0.1297 -0.3114 -0.1251
 9413TIP3    H149654   4.880   2.979   2.158  2.5689 -2.0881  2.1483
 9413TIP3    H249655   4.730   2.966   2.177  1.8027  2.5172  0.5082
 9414TIP3   OH249656   5.826   3.929   5.074 -0.7188  0.6845 -0.2566
 9414TIP3    H149657   5.744   3.915   5.122 -1.6967 -0.7419 -2.2227
 9414TIP3    H249658   5.799   3.958   4.987  0.8907  0.5799 -0.8277
 9415TIP3   OH249659   0.847   6.695  16.922  0.1590 -0.2597  0.3410
 9415TIP3    H149660   0.880   6.722  16.837  0.4697 -1.7718 -0.0468
 9415TIP3    H249661   0.817   6.605  16.909  0.9199 -0.7940  2.0019
 9416TIP3   OH249662   5.147   0.156  14.853  0.1821  0.3698 -0.4303
 9416TIP3    H149663   5.196   0.079  14.823  1.2293  0.8790 -0.0473
 9416TIP3    H249664   5.186   0.178  14.937 -1.7156 -0.1147  0.6290
 9417TIP3   OH249665   4.976   2.827  14.434 -0.5427  0.1375 -0.3548
 9417TIP3    H149666   4.937   2.867  14.512 -1.2307  0.5558 -0.9000
 9417TIP3    H249667   4.907   2.833  14.367 -0.9512 -2.5376 -0.3004
 9418TIP3   OH249668   0.581   4.768  12.177  0.0492  0.3131  0.3467
 9418TIP3    H149669   0.494   4.795  12.147  0.2198  0.9281  0.3954
 9418TIP3    H249670   0.636   4.846  12.166  0.5653 -0.0315  0.4413
 9419TIP3   OH249671   5.350   4.175  14.457  0.4236 -0.7632 -0.1087
 9419TIP3    H149672   5.271   4.132  14.489  0.0985 -0.9320 -1.0962
 9419TIP3    H249673   5.329   4.268  14.455  0.8412 -0.6216  1.2330
 9420TIP3   OH249674   3.802   1.038  17.068  0.5381 -0.3018  0.4574
 9420TIP3    H149675   3.858   1.105  17.109  0.8304  0.6838 -1.4490
 9420TIP3    H249676   3.770   1.079  16.988 -0.0725 -2.1244 -0.2804
 9421TIP3   OH249677   3.052   6.014  12.393 -0.7448  0.2171  0.3237
 9421TIP3    H149678   3.019   5.993  12.305  0.0549 -0.0252  0.0648
 9421TIP3    H249679   3.001   5.958  12.452  0.4219 -1.5408 -0.2356
 9422TIP3   OH249680   1.323   4.392  15.984  0.3977  0.1813 -0.2798
 9422TIP3    H149681   1.234   4.416  16.010  1.4844  0.5358  3.7927
 9422TIP3    H249682   1.310   4.329  15.913 -3.0330  0.8333 -0.4313
 9423TIP3   OH249683   1.590   2.983  15.383 -0.2620  0.1444 -0.2572
 9423TIP3    H149684   1.518   2.935  15.425  0.8265 -0.2751  1.2229
 9423TIP3    H249685   1.660   2.982  15.448 -0.0718  3.5448 -0.2317
 9424TIP3   OH249686   5.905   6.698  16.913 -0.3604 -0.7508  0.2468
 9424TIP3    H149687   5.991   6.697  16.953  0.2479 -3.6030 -0.9009
 9424TIP3    H249688   5.844   6.708  16.986  0.8740  0.5487  1.1349
 9425TIP3   OH249689   3.545   3.439   4.033 -0.3895 -0.1368  0.4212
 9425TIP3    H149690   3.563   3.362   3.979 -0.8784  1.2825 -1.8667
 9425TIP3    H249691   3.498   3.404   4.109 -2.4207 -1.8995 -1.5227
 9426TIP3   OH249692   5.245   5.169  15.528  0.1843 -0.1982 -0.3599
 9426TIP3    H149693   5.302   5.111  15.579  0.5456  1.3646  1.0938
 9426TIP3    H249694   5.173   5.189  15.587  0.3843  1.3088 -0.5968
 9427TIP3   OH249695   0.725   3.843   3.484 -0.1281 -0.1590 -0.1488
 9427TIP3    H149696   0.722   3.867   3.391  1.4418 -1.5551 -0.6058
 9427TIP3    H249697   0.815   3.862   3.511 -0.9125  1.5874  1.5322
 9428TIP3   OH249698   0.528   3.029  16.303  0.2594  0.6984 -0.0290
 9428TIP3    H149699   0.564   2.940  16.311 -0.5317  0.2708 -1.1236
 9428TIP3    H249700   0.604   3.086  16.318  1.1906 -0.1806 -1.2352
 9429TIP3   OH249701   3.482   4.792  13.331  0.2083 -0.3757  0.3949
 9429TIP3    H149702   3.527   4.817  13.412 -0.9376 -1.5040  1.4037
 9429TIP3    H249703   3.527   4.843  13.263  0.6343  1.2722  1.8262
 9430TIP3   OH249704   0.356   5.492  16.696 -0.1637  0.7514 -0.6019
 9430TIP3    H149705   0.351   5.585  16.719 -0.4172  0.9059 -1.2514
 9430TIP3    H249706   0.265   5.467  16.682  0.0221  0.8563 -2.1387
 9431TIP3   OH249707   0.866   5.358  12.411  0.0672 -0.6819  0.3654
 9431TIP3    H149708   0.896   5.286  12.355  2.6753  0.5661  0.0065
 9431TIP3    H249709   0.889   5.330  12.500  2.9417  0.3964  0.0718
 9432TIP3   OH249710   6.567   0.881   2.802 -0.1208  0.1272  0.1663
 9432TIP3    H149711   6.534   0.893   2.891  0.5738 -1.0620  0.6084
 9432TIP3    H249712   6.662   0.887   2.811  0.0694 -1.8713 -0.1530
 9433TIP3   OH249713   0.313   3.663   6.763 -0.2385 -0.2377 -0.0009
 9433TIP3    H149714   0.324   3.568   6.758 -1.6167 -0.5331  1.6673
 9433TIP3    H249715   0.294   3.689   6.673 -2.0526 -1.8964 -0.1734
 9434TIP3   OH249716   0.319   4.016  11.488  0.2319  0.5664  0.3804
 9434TIP3    H149717   0.328   3.940  11.431 -0.7127  0.7005  0.0348
 9434TIP3    H249718   0.308   4.090  11.428  3.3844  1.3662  0.6176
 9435TIP3   OH249719   1.384   3.810  13.271  0.3720  0.0567 -0.2669
 9435TIP3    H149720   1.349   3.864  13.200 -1.6352 -0.9906 -0.1437
 9435TIP3    H249721   1.479   3.816  13.261  0.1886  2.0340 -1.4181
 9436TIP3   OH249722   2.773   0.514   0.731  0.5971  0.5959 -0.6186
 9436TIP3    H149723   2.763   0.540   0.639  1.9287  0.4809 -0.8065
 9436TIP3    H249724   2.856   0.467   0.734 -0.5142 -1.4003  0.2336
 9437TIP3   OH249725   2.431   6.488   4.298 -0.1803  0.3383  0.4384
 9437TIP3    H149726   2.373   6.559   4.270 -0.9142 -0.6516 -0.6359
 9437TIP3    H249727   2.463   6.450   4.216 -0.4587 -1.0928  0.9656
 9438TIP3   OH249728   5.666   0.595  13.377 -0.2069 -0.3997 -0.1674
 9438TIP3    H149729   5.689   0.592  13.284  1.7092  0.8041  0.2137
 9438TIP3    H249730   5.640   0.505  13.398 -0.4533 -0.7399 -1.7850
 9439TIP3   OH249731   3.859   4.404  14.733  0.2879  0.7593  0.5847
 9439TIP3    H149732   3.860   4.494  14.702 -2.1620  0.8018  0.4272
 9439TIP3    H249733   3.783   4.399  14.791 -0.4110 -1.4592 -0.3817
 9440TIP3   OH249734   5.242   2.927  16.656  0.3655 -0.3485  0.0753
 9440TIP3    H149735   5.190   2.851  16.629  0.4078 -1.0617  1.8286
 9440TIP3    H249736   5.328   2.890  16.677 -0.0369 -0.1534  2.4101
 9441TIP3   OH249737   0.141   4.673  16.538  0.0257 -0.0257  0.0311
 9441TIP3    H149738   0.085   4.610  16.582 -1.2567  0.7725 -0.4265
 9441TIP3    H249739   0.213   4.621  16.502 -0.6781 -1.1326  0.2101
 9442TIP3   OH249740   2.703   1.423   5.397  0.5084  0.0139  0.4018
 9442TIP3    H149741   2.744   1.427   5.483  0.4813  0.8456  0.3795
 9442TIP3    H249742   2.609   1.426   5.414  0.3953 -2.1309  0.4673
 9443TIP3   OH249743   4.937   1.744   3.786  0.3549  0.3860  0.1959
 9443TIP3    H149744   4.961   1.740   3.693  2.4838 -1.5854  0.7338
 9443TIP3    H249745   4.912   1.654   3.808 -2.3689  1.2532  1.0798
 9444TIP3   OH249746   1.808   3.679   4.171  0.5184  0.0085  0.2714
 9444TIP3    H149747   1.855   3.603   4.138  0.8706 -0.0805  0.9792
 9444TIP3    H249748   1.777   3.654   4.258 -0.6870  0.1246 -0.0920
 9445TIP3   OH249749   2.718   3.216   3.588  0.0229  0.0827  0.1083
 9445TIP3    H149750   2.627   3.189   3.580  0.6951 -2.1588 -0.7607
 9445TIP3    H249751   2.768   3.142   3.555  2.2292  0.6882  1.8277
 9446TIP3   OH249752   4.853   4.250   2.853 -0.2638 -0.0829 -0.2865
 9446TIP3    H149753   4.808   4.233   2.937  0.1869  0.1028 -0.0043
 9446TIP3    H249754   4.808   4.328   2.818 -0.6463 -0.3331 -0.3602
 9447TIP3   OH249755   4.836   2.668   5.270  0.0951 -0.0059  0.2047
 9447TIP3    H149756   4.845   2.580   5.234 -1.1317 -0.4626  0.9675
 9447TIP3    H249757   4.755   2.666   5.321 -0.5476  1.8624 -0.6224
 9448TIP3   OH249758   3.675   5.648  13.856 -0.0210 -0.0513  0.2159
 9448TIP3    H149759   3.767   5.654  13.831  0.6748 -1.2530  2.2288
 9448TIP3    H249760   3.672   5.685  13.945 -2.0218  2.4300 -0.7581
 9449TIP3   OH249761   3.327   2.404   0.193 -0.0772 -0.8998  0.5456
 9449TIP3    H149762   3.347   2.394   0.286  2.1048 -0.4415  0.1728
 9449TIP3    H249763   3.312   2.314   0.162 -0.2310 -1.1098  1.2201
 9450TIP3   OH249764   4.324   5.314  16.126  0.3206 -0.4485 -0.0787
 9450TIP3    H149765   4.299   5.253  16.057  0.3069 -0.9530  0.3620
 9450TIP3    H249766   4.407   5.280  16.159 -0.5349 -1.2446  1.3427
 9451TIP3   OH249767   4.601   2.234   2.975 -0.4208 -0.5925  0.0277
 9451TIP3    H149768   4.669   2.300   2.964  1.1476 -2.0704  0.4624
 9451TIP3    H249769   4.592   2.194   2.888 -0.4365 -0.6889  0.0740
 9452TIP3   OH249770   4.918   3.594   2.121  0.1638  0.0810  0.0887
 9452TIP3    H149771   4.918   3.650   2.043  0.8415  0.7190  0.5366
 9452TIP3    H249772   4.874   3.514   2.093  0.8183  0.1098 -1.1029
 9453TIP3   OH249773   1.784   5.071  15.105 -0.1578  0.0030 -0.3307
 9453TIP3    H149774   1.804   4.995  15.050  1.0536 -1.0453  1.4548
 9453TIP3    H249775   1.770   5.034  15.193 -1.3498  1.6842  0.2443
 9454TIP3   OH249776   1.079   3.664   6.188  0.2712 -0.1182 -0.6177
 9454TIP3    H149777   1.106   3.754   6.207  1.9837 -0.6661 -0.2642
 9454TIP3    H249778   1.003   3.674   6.129 -1.3091  1.5518  1.5301
 9455TIP3   OH249779   6.278   3.957  15.835  0.1671  0.6711  0.4076
 9455TIP3    H149780   6.340   3.908  15.889 -0.4241  1.3336  1.7288
 9455TIP3    H249781   6.304   4.049  15.847 -0.2570  0.8560 -0.0741
 9456TIP3   OH249782   5.044   5.038  12.058  0.0564 -0.1179 -0.0090
 9456TIP3    H149783   4.998   5.054  11.976  0.8872 -1.3651 -0.7545
 9456TIP3    H249784   5.026   4.946  12.079  0.9314 -0.1942  0.4904
 9457TIP3   OH249785   2.310   1.469  14.028 -0.5027  0.8102  0.3665
 9457TIP3    H149786   2.388   1.491  13.976 -1.2769  0.8010 -0.8560
 9457TIP3    H249787   2.292   1.547  14.080 -0.8431  1.5967 -0.8798
 9458TIP3   OH249788   2.140   3.156   2.404  0.1284 -0.1778 -0.1332
 9458TIP3    H149789   2.223   3.110   2.397  1.7189  2.5449 -0.6640
 9458TIP3    H249790   2.164   3.249   2.413 -2.8466  0.7715 -0.7223
 9459TIP3   OH249791   5.182   4.339   4.154  0.4074 -0.1867 -0.2556
 9459TIP3    H149792   5.136   4.282   4.215 -0.1141  0.2611 -0.2141
 9459TIP3    H249793   5.275   4.325   4.172  0.3247 -1.7429 -0.9248
 9460TIP3   OH249794   3.215   6.163  16.519  0.4060  0.0232  0.2759
 9460TIP3    H149795   3.246   6.236  16.465  2.1563  1.6783  3.2819
 9460TIP3    H249796   3.141   6.198  16.568 -1.5314 -1.6307 -1.2722
 9461TIP3   OH249797   1.538   5.307  15.791  0.2888  0.4301 -0.7136
 9461TIP3    H149798   1.588   5.315  15.709  0.8847  2.3274 -0.2188
 9461TIP3    H249799   1.604   5.319  15.860  0.0624 -2.5430  0.1631
 9462TIP3   OH249800   0.373   6.058  16.151 -0.0591  0.1736 -0.3838
 9462TIP3    H149801   0.418   6.132  16.111  1.5121 -1.5773 -2.0368
 9462TIP3    H249802   0.290   6.051  16.103 -0.4405  1.0981  0.1053
 9463TIP3   OH249803   1.799   0.076  16.056 -0.1488 -0.1580  0.0987
 9463TIP3    H149804   1.786  -0.005  16.007  2.2679 -1.0840  0.8297
 9463TIP3    H249805   1.722   0.083  16.111  0.0068 -2.5378  0.7374
 9464TIP3   OH249806   0.240   4.011  12.508 -0.3696 -0.2724  0.9108
 9464TIP3    H149807   0.226   4.072  12.437  0.6013 -0.0956  0.8608
 9464TIP3    H249808   0.159   3.959  12.511 -0.3312 -0.4484 -0.4674
 9465TIP3   OH249809   2.320   4.725  14.767  0.6030  0.5329 -0.2079
 9465TIP3    H149810   2.395   4.695  14.819  0.9486  0.0537 -0.9582
 9465TIP3    H249811   2.289   4.645  14.723  0.7626  1.0509 -1.2858
 9466TIP3   OH249812   2.405   0.683  15.681 -0.1989 -0.1218 -0.3385
 9466TIP3    H149813   2.452   0.745  15.625  2.1998 -1.2916  0.2508
 9466TIP3    H249814   2.360   0.738  15.745 -0.0889  1.0810 -1.2570
 9467TIP3   OH249815   2.152   3.633   6.066 -0.6756  0.0002  0.1546
 9467TIP3    H149816   2.187   3.562   6.012 -1.9677  0.1063 -0.8978
 9467TIP3    H249817   2.228   3.683   6.094  0.0462  0.0808 -1.8045
 9468TIP3   OH249818   4.029   4.654   3.244 -0.4305 -0.1776  0.2636
 9468TIP3    H149819   4.081   4.585   3.203 -0.8476  0.9097 -2.3343
 9468TIP3    H249820   4.039   4.640   3.338 -0.8738 -4.0020 -0.1209
 9469TIP3   OH249821   2.677   1.819  10.309 -0.2243  0.4214 -0.0836
 9469TIP3    H149822   2.629   1.890  10.351 -0.6153  0.0096  0.1836
 9469TIP3    H249823   2.609   1.764  10.269  0.1939  2.0985 -3.4746
 9470TIP3   OH249824   2.441   2.441   2.999  0.5762  0.7892  0.3533
 9470TIP3    H149825   2.382   2.460   3.071  0.2359  1.4388 -0.0804
 9470TIP3    H249826   2.524   2.419   3.040 -0.0589 -0.5256  0.9832
 9471TIP3   OH249827   6.580   5.650  10.329  0.4849 -0.4966 -0.1098
 9471TIP3    H149828   6.586   5.564  10.370  0.6256  0.9041  3.1562
 9471TIP3    H249829   6.530   5.703  10.392  1.4872  2.1413 -1.3641
 9472TIP3   OH249830   6.660   6.713   3.054 -0.0766 -0.3163 -0.5160
 9472TIP3    H149831   6.748   6.690   3.025 -0.4515 -2.9433  0.1233
 9472TIP3    H249832   6.611   6.631   3.046 -2.2930  0.9134 -0.2149
 9473TIP3   OH249833   3.143   5.796  15.427 -0.2512 -0.0042  0.0339
 9473TIP3    H149834   3.076   5.821  15.490  0.4808  1.0138  0.4481
 9473TIP3    H249835   3.112   5.715  15.388 -0.9949 -0.3306  1.2828
 9474TIP3   OH249836   5.855   2.989   6.446  0.0553 -0.0198  0.2069
 9474TIP3    H149837   5.932   3.046   6.449 -0.1906  0.3154  3.0646
 9474TIP3    H249838   5.864   2.933   6.523 -2.3905 -0.2115  0.4171
 9475TIP3   OH249839   0.756   5.020   2.408  0.3477 -0.0438 -0.0716
 9475TIP3    H149840   0.745   5.089   2.342  0.0581  0.3129  0.3427
 9475TIP3    H249841   0.823   5.054   2.467  2.3034 -1.3153 -1.4109
 9476TIP3   OH249842   6.398   3.705   3.471 -0.0972  0.1143 -0.0781
 9476TIP3    H149843   6.347   3.627   3.489 -1.6150  0.8539 -0.9813
 9476TIP3    H249844   6.474   3.698   3.529 -2.1061 -0.1235  2.7550
 9477TIP3   OH249845   3.655   6.141   0.825  0.2055  0.8524  0.3224
 9477TIP3    H149846   3.584   6.086   0.792  0.9138 -0.7310  1.3165
 9477TIP3    H249847   3.735   6.101   0.791  0.7477  1.2140  1.1368
 9478TIP3   OH249848   0.940   0.820  16.683  0.7378  0.3814 -0.5288
 9478TIP3    H149849   0.932   0.815  16.588  0.5510 -1.2318 -0.4578
 9478TIP3    H249850   0.854   0.849  16.713  0.8798  1.1595 -0.8585
 9479TIP3   OH249851   1.409   6.007   5.269  0.0792  0.3473  0.2862
 9479TIP3    H149852   1.418   6.102   5.276 -0.2208  0.5564 -1.5273
 9479TIP3    H249853   1.389   5.992   5.176 -1.2956 -1.3751  0.8068
 9480TIP3   OH249854   3.903   1.869  15.638 -0.4963  0.2556 -0.1595
 9480TIP3    H149855   3.926   1.871  15.545 -0.2007  0.6331 -0.0809
 9480TIP3    H249856   3.845   1.944  15.650 -0.3410  0.3482  0.0103
 9481TIP3   OH249857   3.023   5.979  11.138  0.6942  0.3808  0.6605
 9481TIP3    H149858   2.962   6.035  11.186 -1.7269 -2.2801  0.9795
 9481TIP3    H249859   2.966   5.925  11.083  2.3307 -4.1475  2.9354
 9482TIP3   OH249860   2.307   0.944  12.048 -0.1763  0.5813  0.1620
 9482TIP3    H149861   2.322   0.939  12.142 -0.0946 -0.5360  0.1021
 9482TIP3    H249862   2.231   1.002  12.038  0.1177  1.0984  0.8713
 9483TIP3   OH249863   0.541   2.535  15.649 -0.3567 -0.2346 -0.4323
 9483TIP3    H149864   0.518   2.512  15.559  0.6231 -0.1427 -0.7168
 9483TIP3    H249865   0.561   2.628  15.646  2.4815 -0.7416 -0.7789
 9484TIP3   OH249866   0.518   4.137  15.595 -0.1784 -0.1690 -0.2730
 9484TIP3    H149867   0.566   4.211  15.631 -2.5729  1.3606  0.0676
 9484TIP3    H249868   0.448   4.121  15.658  1.4934 -4.3503  0.8908
 9485TIP3   OH249869   6.254   3.597   5.443  0.7874  0.2285  0.3767
 9485TIP3    H149870   6.215   3.513   5.420 -1.2082  1.3781 -0.7308
 9485TIP3    H249871   6.273   3.639   5.360  0.1366  1.5512  0.8569
 9486TIP3   OH249872   6.545   3.920  12.136 -0.3244 -0.0466 -0.4659
 9486TIP3    H149873   6.492   3.874  12.070  0.9308 -2.9039  0.3900
 9486TIP3    H249874   6.617   3.958  12.086 -0.8278  0.1432 -1.0642
 9487TIP3   OH249875   2.312   5.819   6.429 -0.4390 -0.4253 -0.2321
 9487TIP3    H149876   2.376   5.814   6.499 -1.1605 -0.2193  0.4623
 9487TIP3    H249877   2.361   5.848   6.353 -0.0526  1.6872  0.7623
 9488TIP3   OH249878   3.405   1.510   2.924  0.3335  0.4839  0.5279
 9488TIP3    H149879   3.330   1.452   2.910  1.0386 -0.6313  1.2624
 9488TIP3    H249880   3.472   1.478   2.864 -0.0675  2.1139 -0.8819
 9489TIP3   OH249881   0.741   3.816  13.594  0.0968 -0.1410  0.2188
 9489TIP3    H149882   0.688   3.739  13.613 -0.3973 -0.8247 -3.2172
 9489TIP3    H249883   0.687   3.869  13.535  2.4119  0.0671 -1.9099
 9490TIP3   OH249884   4.108   2.639  17.049 -0.2034 -0.2832 -0.1086
 9490TIP3    H149885   4.139   2.730  17.050 -2.3382  0.5160  0.6786
 9490TIP3    H249886   4.121   2.608  17.138  0.3523 -0.6785 -0.3292
 9491TIP3   OH249887   4.903   1.356  13.881 -0.1367 -0.2292 -0.4936
 9491TIP3    H149888   4.985   1.310  13.896 -0.1168  0.1071  0.4631
 9491TIP3    H249889   4.909   1.436  13.933 -0.7470  0.1922 -1.0368
 9492TIP3   OH249890   5.438   4.740   2.033 -0.2251 -0.4061  0.1557
 9492TIP3    H149891   5.531   4.720   2.028 -0.0031  0.4079  0.7512
 9492TIP3    H249892   5.427   4.817   1.978 -0.5987 -0.6423 -0.1070
 9493TIP3   OH249893   1.284   2.328   1.880 -0.1754 -0.0870 -0.4828
 9493TIP3    H149894   1.275   2.250   1.826  1.0242 -0.3835 -0.2859
 9493TIP3    H249895   1.322   2.394   1.821 -0.3549  0.0724 -0.4207
 9494TIP3   OH249896   4.953   6.706   2.355  0.0567  0.0537  0.1022
 9494TIP3    H149897   4.923   6.649   2.284 -2.0242  1.0403  0.1101
 9494TIP3    H249898   4.967   6.646   2.428  2.3190 -0.9851 -1.0900
 9495TIP3   OH249899   0.359   6.059  15.156 -0.1540 -0.1101  0.0764
 9495TIP3    H149900   0.373   6.061  15.061 -0.2080 -1.6894 -0.0017
 9495TIP3    H249901   0.423   6.120  15.191  0.7772 -0.5042 -0.8886
 9496TIP3   OH249902   4.397   4.565   2.818 -0.3659  0.8087  0.2784
 9496TIP3    H149903   4.388   4.491   2.879  2.5573 -0.2712 -0.4177
 9496TIP3    H249904   4.347   4.538   2.741  1.0682 -0.7763 -0.1678
 9497TIP3   OH249905   4.352   0.325   1.730  0.0846  0.3988 -0.0214
 9497TIP3    H149906   4.446   0.309   1.735  0.0791  0.7621  2.3767
 9497TIP3    H249907   4.345   0.416   1.702  0.3668  0.0190 -1.4440
 9498TIP3   OH249908   1.649   4.279   3.784 -0.3978  0.0915  0.4263
 9498TIP3    H149909   1.718   4.330   3.742  0.6880 -1.6143  0.0133
 9498TIP3    H249910   1.695   4.205   3.825 -2.0364 -2.0043 -1.2396
 9499TIP3   OH249911   6.115   4.343  16.894  0.1816 -0.2031  0.3168
 9499TIP3    H149912   6.054   4.291  16.842  1.7901 -1.8701 -0.0390
 9499TIP3    H249913   6.062   4.382  16.963 -1.4391 -0.6512 -0.6382
 9500TIP3   OH249914   1.214   2.780   3.385  0.8285 -0.5088 -0.1487
 9500TIP3    H149915   1.121   2.760   3.377  0.9322 -0.7734 -0.7457
 9500TIP3    H249916   1.242   2.732   3.463  0.3966 -0.1647  0.2206
 9501TIP3   OH249917   0.864   4.159   4.310  0.1169 -0.0621  0.0695
 9501TIP3    H149918   0.932   4.210   4.267  1.0677 -2.9835 -2.1897
 9501TIP3    H249919   0.881   4.170   4.404  0.0084  3.8615 -0.2031
 9502TIP3   OH249920   4.646   4.737  12.962  0.0875 -0.2595  0.2314
 9502TIP3    H149921   4.695   4.796  12.905 -0.6794  0.3765  0.2185
 9502TIP3    H249922   4.713   4.688  13.009  0.7606  1.6932  1.3929
 9503TIP3   OH249923   3.887   1.413  12.541  0.0735  0.1765  0.3334
 9503TIP3    H149924   3.830   1.451  12.609  0.2913  2.0156 -0.4582
 9503TIP3    H249925   3.926   1.489  12.497  1.0409 -1.0022 -0.9227
 9504TIP3   OH249926   2.433   4.612   5.192 -0.0820  0.7595 -1.1598
 9504TIP3    H149927   2.508   4.559   5.165  1.2571  1.2392  1.3024
 9504TIP3    H249928   2.367   4.548   5.218  0.5078  0.3070 -0.7520
 9505TIP3   OH249929   4.765   2.829  13.882  0.3242 -0.2502 -0.7257
 9505TIP3    H149930   4.816   2.882  13.943  1.9095 -0.6339 -1.6643
 9505TIP3    H249931   4.751   2.746  13.929 -0.1371  0.1454 -0.1567
 9506TIP3   OH249932   2.711   4.524  11.765 -0.2257 -0.3736  0.1381
 9506TIP3    H149933   2.663   4.590  11.816  1.1174  1.6876 -1.0936
 9506TIP3    H249934   2.664   4.520  11.682  1.4076  1.4544 -0.9689
 9507TIP3   OH249935   6.505   5.072   2.658  0.0301 -0.3729  1.0463
 9507TIP3    H149936   6.423   5.060   2.610  1.0596  0.1661 -0.9689
 9507TIP3    H249937   6.573   5.041   2.598  1.3388 -0.5806  2.5689
 9508TIP3   OH249938   1.634   0.681   3.919  0.3746 -0.3125  0.1075
 9508TIP3    H149939   1.640   0.775   3.932 -0.9140 -0.3153  0.9952
 9508TIP3    H249940   1.619   0.670   3.826 -3.3363  0.6822  0.4267
 9509TIP3   OH249941   2.804   6.092   5.538 -0.6336 -0.5188 -0.0624
 9509TIP3    H149942   2.881   6.076   5.482 -1.0301 -0.4944 -0.6268
 9509TIP3    H249943   2.832   6.066   5.625  0.2310  0.1125 -0.1435
 9510TIP3   OH249944   3.936   5.543  12.700  0.4931  0.0383  0.1099
 9510TIP3    H149945   3.916   5.625  12.657  0.2106 -0.9094 -1.6560
 9510TIP3    H249946   3.858   5.523  12.753  0.7437  1.0911  0.8992
 9511TIP3   OH249947   4.178   4.068  12.649  0.2921  0.2105 -0.1416
 9511TIP3    H149948   4.267   4.064  12.686  0.8136  0.2321 -1.3490
 9511TIP3    H249949   4.128   4.005  12.700  1.2616 -0.5681 -0.1264
 9512TIP3   OH249950   1.327   5.592  16.847  0.3414  0.4110  0.4687
 9512TIP3    H149951   1.323   5.537  16.925  0.7865 -1.4499 -0.7400
 9512TIP3    H249952   1.409   5.640  16.856  1.7694 -1.7574  0.0092
 9513TIP3   OH249953   2.531   0.703  12.855  0.2779  0.3774 -0.6930
 9513TIP3    H149954   2.473   0.681  12.928  0.6980  1.1564 -0.1253
 9513TIP3    H249955   2.610   0.651  12.870 -0.3876 -1.0001 -1.6859
 9514TIP3   OH249956   3.743   3.963  11.125 -0.0882 -0.4208  0.2630
 9514TIP3    H149957   3.767   3.988  11.214 -0.8880 -1.7076  0.8801
 9514TIP3    H249958   3.695   3.880  11.136 -1.0725 -0.0945 -1.2676
 9515TIP3   OH249959   2.672   2.740   6.201 -0.2288 -0.4126 -0.0817
 9515TIP3    H149960   2.765   2.745   6.179 -0.2589  1.8672  0.0609
 9515TIP3    H249961   2.636   2.825   6.174 -1.7973 -0.3701  1.8588
 9516TIP3   OH249962   5.118   0.585   3.996  0.1270  0.0049 -0.4503
 9516TIP3    H149963   5.188   0.636   4.035  0.1243  0.6483 -1.2667
 9516TIP3    H249964   5.140   0.494   4.016 -0.2962  0.3332  1.7338
 9517TIP3   OH249965   2.086   5.684   3.952  0.3057 -0.3946  0.0690
 9517TIP3    H149966   2.120   5.771   3.933 -0.5668  0.0468  0.5024
 9517TIP3    H249967   2.138   5.653   4.026  0.1045  0.0676  0.4051
 9518TIP3   OH249968   4.046   1.106  16.032 -0.3407 -0.2150  0.5112
 9518TIP3    H149969   4.112   1.159  16.076 -0.9511  1.7184 -0.8105
 9518TIP3    H249970   4.072   1.106  15.940 -0.8271 -1.5412  0.3477
 9519TIP3   OH249971   1.840   2.595  13.600 -0.5216 -0.2302  0.3593
 9519TIP3    H149972   1.845   2.550  13.515  1.9892 -2.5990  1.5601
 9519TIP3    H249973   1.865   2.685  13.581  0.9957 -0.9383 -1.3337
 9520TIP3   OH249974   0.738   0.792  13.989 -0.5468  0.1529  0.1275
 9520TIP3    H149975   0.822   0.803  13.946 -0.6996 -0.9824 -0.5023
 9520TIP3    H249976   0.748   0.836  14.074  0.0032  1.7804 -0.7380
 9521TIP3   OH249977   2.559   3.141  15.337 -0.2296  0.5005  0.3488
 9521TIP3    H149978   2.538   3.169  15.248  1.2030  0.6994  0.0470
 9521TIP3    H249979   2.534   3.215  15.392  0.0148  0.8742 -0.0319
 9522TIP3   OH249980   5.254   0.695  16.395 -0.0915  0.3180 -0.2109
 9522TIP3    H149981   5.248   0.673  16.488  0.7393 -0.5660 -0.3508
 9522TIP3    H249982   5.347   0.693  16.376 -0.3386 -1.3431 -1.4708
 9523TIP3   OH249983   4.575   1.452  13.255  0.4313 -0.6066  0.2679
 9523TIP3    H149984   4.562   1.375  13.200 -1.7712  0.3111 -0.6277
 9523TIP3    H249985   4.546   1.526  13.201 -1.8613  0.3421  2.5401
 9524TIP3   OH249986   3.082   2.453   0.465  0.1794  0.5406  0.2190
 9524TIP3    H149987   3.107   2.507   0.390  0.1661 -0.7343 -0.7383
 9524TIP3    H249988   3.063   2.367   0.427  1.5103 -0.5356  1.8440
 9525TIP3   OH249989   2.261   4.761  12.949  0.0865 -0.1469  0.7995
 9525TIP3    H149990   2.208   4.686  12.977 -1.4568 -0.1022 -1.6787
 9525TIP3    H249991   2.205   4.837  12.966  0.0155  0.0527 -0.2470
 9526TIP3   OH249992   0.019   2.853  13.646 -0.8081 -0.0648  0.4710
 9526TIP3    H149993   0.085   2.801  13.600 -0.6913 -0.6948  1.3340
 9526TIP3    H249994  -0.020   2.792  13.709 -0.9577  0.7878  1.2130
 9527TIP3   OH249995   1.009   3.765  15.079  0.3895  0.5376 -0.1184
 9527TIP3    H149996   1.053   3.804  15.004  1.9272  0.9579  0.9399
 9527TIP3    H249997   1.077   3.712  15.121 -0.2300  0.8435  1.3274
 9528TIP3   OH249998   0.505   1.213   5.036 -0.2186  1.1854 -0.1170
 9528TIP3    H149999   0.589   1.167   5.041 -0.5277  0.4382 -1.3204
 9528TIP3    H250000   0.467   1.203   5.123  0.5947  0.8494  0.2101
 9529TIP3   OH250001   4.003   0.728  10.846  0.5173  0.1155 -0.3838
 9529TIP3    H150002   4.023   0.802  10.788  0.1910  0.6649  0.1827
 9529TIP3    H250003   3.926   0.758  10.895 -0.6786 -1.2686 -1.3367
 9530TIP3   OH250004   5.437   0.292   2.219  0.7037 -0.0302 -0.2279
 9530TIP3    H150005   5.411   0.225   2.281 -0.4076  0.2102 -0.4078
 9530TIP3    H250006   5.355   0.326   2.184  1.2655  0.8447 -0.7576
 9531TIP3   OH250007   0.223   1.749  15.565 -0.0080  0.2436  0.0842
 9531TIP3    H150008   0.217   1.707  15.480 -0.2067  0.5963 -0.0792
 9531TIP3    H250009   0.151   1.710  15.616 -0.4948  0.7242 -0.2204
 9532TIP3   OH250010   4.608   2.336  15.709 -0.1353 -0.0361 -0.3908
 9532TIP3    H150011   4.568   2.262  15.663  0.0341  0.6031 -1.6077
 9532TIP3    H250012   4.545   2.407  15.700 -0.3118 -0.0101  0.8018
 9533TIP3   OH250013   6.659   5.385   1.051 -0.0930  0.4875 -0.7228
 9533TIP3    H150014   6.694   5.474   1.062 -0.2915  0.7955 -2.3210
 9533TIP3    H250015   6.687   5.338   1.129  0.8840  1.6818 -0.3256
 9534TIP3   OH250016   0.151   5.603  12.268  0.4648  0.0901  0.2534
 9534TIP3    H150017   0.149   5.526  12.324  0.4234 -1.0106 -1.1786
 9534TIP3    H250018   0.105   5.575  12.188 -2.6209  2.6489  0.9049
 9535TIP3   OH250019   5.652   5.972   1.478  0.1983 -0.3078 -0.4678
 9535TIP3    H150020   5.642   6.039   1.409  1.2495 -1.4751 -1.8211
 9535TIP3    H250021   5.572   5.980   1.531 -0.1909  1.2925 -1.2213
 9536TIP3   OH250022   5.523   4.826  11.409 -0.2467 -0.4191 -0.2372
 9536TIP3    H150023   5.585   4.896  11.389 -0.4550  0.3372  1.5425
 9536TIP3    H250024   5.552   4.752  11.357 -0.4092  1.1591 -2.7291
 9537TIP3   OH250025   5.822   1.632   0.038 -0.5302  0.2645 -0.5198
 9537TIP3    H150026   5.789   1.547   0.008  1.3997 -0.8901  0.3741
 9537TIP3    H250027   5.844   1.618   0.130 -0.2070  1.7657 -0.3413
 9538TIP3   OH250028   6.282   3.845   2.023  0.1795  0.2255 -0.4996
 9538TIP3    H150029   6.357   3.785   2.019 -1.7164 -2.3407 -0.0819
 9538TIP3    H250030   6.211   3.797   1.981 -1.5688  2.0396  0.2314
 9539TIP3   OH250031   2.188   6.331  11.706  0.2921  0.1071  0.0798
 9539TIP3    H150032   2.228   6.349  11.792  0.0820  1.0997 -0.0110
 9539TIP3    H250033   2.215   6.242  11.685 -0.5642 -0.5839  1.6853
 9540TIP3   OH250034   4.148   4.526  12.692  0.4611 -0.6332 -0.0884
 9540TIP3    H150035   4.081   4.493  12.632  0.8713 -0.0973 -0.8585
 9540TIP3    H250036   4.230   4.518  12.644  0.8586 -0.6309  0.5822
 9541TIP3   OH250037   4.741   3.475  13.497 -0.0712 -0.3174  0.1543
 9541TIP3    H150038   4.764   3.540  13.430 -1.6574  0.3562  0.2029
 9541TIP3    H250039   4.775   3.392  13.463 -1.6135 -0.1555 -1.9958
 9542TIP3   OH250040   5.160   3.295   2.687 -0.0155  0.7626  0.3213
 9542TIP3    H150041   5.183   3.296   2.780  1.5541 -2.8130  0.1635
 9542TIP3    H250042   5.164   3.202   2.663 -1.0621  1.4735 -3.1873
 9543TIP3   OH250043   3.977   4.436   2.559 -0.3383 -0.2002  0.1606
 9543TIP3    H150044   3.905   4.407   2.616  0.7934 -1.4213  1.0442
 9543TIP3    H250045   4.001   4.358   2.509  0.3980  0.1778 -0.0935
 9544TIP3   OH250046   5.650   2.537   4.553  0.3757  0.0182  0.1543
 9544TIP3    H150047   5.583   2.548   4.486  0.9988  1.9406 -0.2279
 9544TIP3    H250048   5.733   2.556   4.509  0.9162  0.1306  1.1694
 9545TIP3   OH250049   5.259   3.955  14.240 -0.5175 -0.3190  0.3708
 9545TIP3    H150050   5.271   4.049  14.227 -0.8746 -0.2669  0.4033
 9545TIP3    H250051   5.219   3.948  14.327 -0.6511 -0.4878  0.2976
 9546TIP3   OH250052   4.465   2.610  16.717 -0.3296  0.0958 -0.6099
 9546TIP3    H150053   4.524   2.551  16.764  0.7885  0.8097 -1.0581
 9546TIP3    H250054   4.408   2.552  16.667  0.0050 -0.6264 -0.1684
 9547TIP3   OH250055   3.525   2.489  14.019 -0.4231  0.5729 -0.8284
 9547TIP3    H150056   3.521   2.530  13.933 -2.0595  0.9146 -0.6135
 9547TIP3    H250057   3.549   2.398  14.001 -0.1300  0.7950 -1.5881
 9548TIP3   OH250058   5.189   0.327   3.875  0.4299 -0.3367 -0.0159
 9548TIP3    H150059   5.223   0.250   3.829  1.0851  0.1237 -0.3273
 9548TIP3    H250060   5.183   0.395   3.807  1.2815  0.3131  0.5273
 9549TIP3   OH250061   3.059   4.894  15.357 -0.3775  0.1597 -0.3871
 9549TIP3    H150062   2.988   4.959  15.356 -1.4028 -0.9424 -1.2994
 9549TIP3    H250063   3.034   4.830  15.291  0.0638 -1.7407  1.2051
 9550TIP3   OH250064   1.573   1.109  15.460  0.5457 -0.1498  0.1424
 9550TIP3    H150065   1.491   1.105  15.412  0.1753 -0.3194  0.7696
 9550TIP3    H250066   1.567   1.190  15.511  0.7239 -0.2082  0.2564
 9551TIP3   OH250067   6.120   1.250  11.100 -0.2304 -0.5104  0.0139
 9551TIP3    H150068   6.177   1.255  11.023 -1.0510  1.1545 -0.5498
 9551TIP3    H250069   6.036   1.285  11.069 -0.5457  0.2818  1.6893
 9552TIP3   OH250070   3.982   2.604   3.822  0.3566  0.7181  0.0847
 9552TIP3    H150071   4.033   2.683   3.803 -1.5906  1.4552 -2.6006
 9552TIP3    H250072   3.974   2.560   3.738 -0.9572 -0.9046  1.0059
 9553TIP3   OH250073   2.837   1.231   1.030 -0.6752  0.1915  0.0286
 9553TIP3    H150074   2.763   1.230   1.090 -1.0333 -0.0284 -0.4097
 9553TIP3    H250075   2.887   1.153   1.052 -1.0689 -0.1544 -0.2692
 9554TIP3   OH250076   3.417   2.996   0.158  0.0280 -0.1645 -0.0008
 9554TIP3    H150077   3.492   2.937   0.164  0.0296 -0.1838 -0.2055
 9554TIP3    H250078   3.410   3.035   0.245 -1.0913 -1.8324  0.7030
 9555TIP3   OH250079   1.360   5.949  11.504  0.6338  0.3343  1.3199
 9555TIP3    H150080   1.438   5.907  11.542  1.0302 -0.5882 -0.4288
 9555TIP3    H250081   1.357   5.917  11.414 -0.1524  2.5937  0.4702
 9556TIP3   OH250082   2.773   4.461   1.690  0.4225  0.6018 -0.2434
 9556TIP3    H150083   2.721   4.421   1.759  1.2908  0.5728  0.4224
 9556TIP3    H250084   2.822   4.389   1.651 -1.7294  0.2203 -2.4851
 9557TIP3   OH250085   0.224   2.706  16.931  0.0772 -0.5088 -0.3282
 9557TIP3    H150086   0.168   2.751  16.868 -1.2977 -0.8599  0.5954
 9557TIP3    H250087   0.309   2.749  16.923 -0.8079  1.2863 -0.4761
 9558TIP3   OH250088   6.314   5.967   0.539 -0.4388  0.2432 -0.2000
 9558TIP3    H150089   6.277   5.976   0.626  0.3953  0.5154  0.1360
 9558TIP3    H250090   6.384   5.902   0.548  0.2675  0.9505 -0.4533
 9559TIP3   OH250091   0.702   4.159   4.014 -0.0999  0.9333 -0.1464
 9559TIP3    H150092   0.674   4.189   3.927 -0.5417 -0.2160 -0.4130
 9559TIP3    H250093   0.756   4.082   3.996 -0.9129  0.1600  0.6370
 9560TIP3   OH250094   5.392   4.884  12.529  0.3019 -0.4408  0.1735
 9560TIP3    H150095   5.409   4.949  12.596  1.1983 -0.9484  0.4543
 9560TIP3    H250096   5.320   4.921  12.477 -0.1256  0.1338  1.1561
 9561TIP3   OH250097   2.027   1.623  13.632 -0.3278  0.1008  0.0184
 9561TIP3    H150098   2.089   1.651  13.700  0.8419 -1.3476 -0.3807
 9561TIP3    H250099   2.026   1.527  13.639 -1.1075 -0.0025 -1.2193
 9562TIP3   OH250100   6.629   3.418  13.062 -0.5425 -0.3567  0.5428
 9562TIP3    H150101   6.594   3.491  13.114 -1.1148 -1.5295  1.8574
 9562TIP3    H250102   6.554   3.359  13.051  0.0699 -1.0424  0.0002
 9563TIP3   OH250103   0.886   0.292   2.065 -0.1539  0.0313 -0.3850
 9563TIP3    H150104   0.928   0.375   2.044 -0.5660  0.8887  1.8771
 9563TIP3    H250105   0.958   0.231   2.079  0.3148  0.8701  1.0872
 9564TIP3   OH250106   1.005   1.842  13.573  0.5041 -0.1581  0.2412
 9564TIP3    H150107   1.096   1.865  13.595  1.0269 -1.4442 -0.4723
 9564TIP3    H250108   1.011   1.755  13.535 -0.8992  0.2149 -0.9276
 9565TIP3   OH250109   5.698   3.412   0.227 -0.7235 -0.1202 -0.5132
 9565TIP3    H150110   5.690   3.321   0.198 -2.1644 -0.3987  0.6289
 9565TIP3    H250111   5.614   3.431   0.269  0.2458  1.0963  0.9846
 9566TIP3   OH250112   0.168   1.282  13.052 -0.3527 -0.1107 -0.1242
 9566TIP3    H150113   0.262   1.289  13.062 -0.3093 -0.7250 -0.1136
 9566TIP3    H250114   0.150   1.324  12.967 -0.2118  1.0165  0.3836
 9567TIP3   OH250115   5.067   3.987  12.409  0.2602  0.0085 -0.6149
 9567TIP3    H150116   5.053   3.909  12.354 -0.3438 -1.2725  1.2636
 9567TIP3    H250117   4.982   4.030  12.411 -0.0651 -0.6467  0.3030
 9568TIP3   OH250118   0.637   0.591  15.796 -0.1339 -0.3195 -0.0198
 9568TIP3    H150119   0.609   0.550  15.878 -0.0473 -0.9170 -0.2880
 9568TIP3    H250120   0.578   0.556  15.730  1.4919 -1.9648 -0.6841
 9569TIP3   OH250121   4.876   5.650  15.537  0.0382 -0.0237 -0.3937
 9569TIP3    H150122   4.824   5.569  15.538 -2.1800  1.3486  0.3278
 9569TIP3    H250123   4.857   5.689  15.452 -1.1505  1.0993  0.3623
 9570TIP3   OH250124   5.144   5.333  13.954  0.1087 -0.3410  0.4660
 9570TIP3    H150125   5.055   5.300  13.939  0.4008 -1.2373  0.5965
 9570TIP3    H250126   5.153   5.334  14.049  0.0142  0.3889  0.4692
 9571TIP3   OH250127   6.781   6.297   3.312  0.2198 -0.3958  0.5622
 9571TIP3    H150128   6.853   6.338   3.264  0.6792  0.0787  1.6310
 9571TIP3    H250129   6.760   6.218   3.261  1.3887 -0.4617  0.1525
 9572TIP3   OH250130   4.662   1.636   3.346 -0.4479 -0.1366 -0.7931
 9572TIP3    H150131   4.716   1.637   3.426  0.6798 -0.7918 -1.5136
 9572TIP3    H250132   4.596   1.704   3.361  1.3793  1.6646 -0.4197
 9573TIP3   OH250133   0.985   4.549   3.118  0.1053  0.8150 -0.6261
 9573TIP3    H150134   0.998   4.627   3.065  0.5309  1.8769  0.9896
 9573TIP3    H250135   0.915   4.501   3.073  0.0931  1.9281 -1.8400
 9574TIP3   OH250136   0.363   2.967   3.870 -0.4014 -0.0982  0.0909
 9574TIP3    H150137   0.290   2.951   3.811 -0.5161  0.5396  0.0507
 9574TIP3    H250138   0.324   2.971   3.958 -0.3351 -0.3010  0.1312
 9575TIP3   OH250139   1.851   3.002   4.732  0.3258 -0.0504  0.4238
 9575TIP3    H150140   1.894   2.994   4.647 -0.9048 -0.8247 -0.1624
 9575TIP3    H250141   1.868   3.092   4.760  0.9732  0.1329 -0.5101
 9576TIP3   OH250142   0.824   2.517  14.642 -0.5890  0.5954 -0.3095
 9576TIP3    H150143   0.756   2.499  14.707  0.3135  0.7242  0.7035
 9576TIP3    H250144   0.787   2.485  14.559 -0.3505 -3.0201  0.8026
 9577TIP3   OH250145   2.145   3.619   1.118 -0.4778  0.4409  0.9181
 9577TIP3    H150146   2.054   3.629   1.146 -1.1306 -0.3331 -0.7800
 9577TIP3    H250147   2.161   3.525   1.118  0.2850  0.5650  1.1060
 9578TIP3   OH250148   1.355   6.496  16.053  0.5747 -0.1830  0.1276
 9578TIP3    H150149   1.271   6.473  16.093 -1.2134 -0.1949 -3.2537
 9578TIP3    H250150   1.390   6.564  16.111 -2.8595  1.4349  0.6253
 9579TIP3   OH250151   2.106   2.652   2.724  0.2128  0.0866  0.3269
 9579TIP3    H150152   2.132   2.717   2.790  0.7956  0.1395  0.0485
 9579TIP3    H250153   2.040   2.599   2.768  0.4564  0.2415  0.8890
 9580TIP3   OH250154   0.437   3.995   4.321  0.1821  0.0020 -0.1154
 9580TIP3    H150155   0.493   3.982   4.398 -0.1586 -0.4001  0.0651
 9580TIP3    H250156   0.486   4.057   4.267  0.6349 -0.0615  0.2125
 9581TIP3   OH250157   2.753   1.844  11.092  0.0656 -0.3254  0.0964
 9581TIP3    H150158   2.832   1.791  11.081 -0.3704 -1.7040  2.7316
 9581TIP3    H250159   2.763   1.884  11.179 -1.1607  1.2823 -0.4442
 9582TIP3   OH250160   0.142   3.034   4.953  0.4761 -0.2267  0.1824
 9582TIP3    H150161   0.212   2.975   4.978  1.3493  1.5430  2.2388
 9582TIP3    H250162   0.171   3.073   4.871  0.1926 -2.0475 -0.8438
 9583TIP3   OH250163   2.195   3.827  14.103  0.5591  0.3214  0.9684
 9583TIP3    H150164   2.107   3.789  14.102  0.5300  0.1745  3.0972
 9583TIP3    H250165   2.241   3.787  14.030 -1.2262  0.6429 -0.3935
 9584TIP3   OH250166   0.548   2.505  12.445 -0.3247  0.1769 -0.2669
 9584TIP3    H150167   0.498   2.425  12.432 -3.2550  1.4690  1.9576
 9584TIP3    H250168   0.525   2.560  12.370  0.1288 -0.2744 -0.7529
 9585TIP3   OH250169   5.694   6.086  14.382 -0.2562  0.0236 -0.0535
 9585TIP3    H150170   5.719   6.178  14.387 -0.7032  0.0965  1.1734
 9585TIP3    H250171   5.632   6.074  14.455 -2.4214 -0.5562 -1.8702
 9586TIP3   OH250172   2.957   0.170  11.254  0.6054  0.5138  0.6128
 9586TIP3    H150173   2.959   0.227  11.331  2.1738  0.3289  0.7326
 9586TIP3    H250174   3.043   0.128  11.252  0.5799  0.4644 -1.2141
 9587TIP3   OH250175   5.423   1.979   1.641  0.3333 -0.0384  0.0012
 9587TIP3    H150176   5.436   1.919   1.714 -0.2135 -0.2884 -0.0971
 9587TIP3    H250177   5.511   2.007   1.616  0.4788  0.7298  1.3127
 9588TIP3   OH250178   5.446   0.128   1.885  0.0117 -0.5059 -0.1398
 9588TIP3    H150179   5.372   0.167   1.932  1.2227  0.2745  1.2182
 9588TIP3    H250180   5.499   0.203   1.858  0.1268 -1.0344 -1.4511
 9589TIP3   OH250181   5.802   2.149   4.122 -0.3659 -0.0407  0.5363
 9589TIP3    H150182   5.838   2.167   4.035 -0.2388  0.1268  0.6233
 9589TIP3    H250183   5.726   2.094   4.105  0.2710 -0.8955  0.3887
 9590TIP3   OH250184   3.415   6.430  12.863  0.7818 -0.1660  0.8211
 9590TIP3    H150185   3.510   6.421  12.869  0.8244  0.4229  1.1031
 9590TIP3    H250186   3.400   6.478  12.781  0.6709 -1.0701  0.3037
 9591TIP3   OH250187   2.936   1.957  14.393  0.4282  0.1914 -0.0215
 9591TIP3    H150188   2.863   2.004  14.352 -0.5388 -0.8061  0.5077
 9591TIP3    H250189   2.948   2.001  14.477  0.5310  0.4236 -0.1537
 9592TIP3   OH250190   3.223   5.146   5.892  0.4323  0.0223  0.2983
 9592TIP3    H150191   3.186   5.181   5.973 -1.8235  0.1061 -0.7104
 9592TIP3    H250192   3.278   5.073   5.921 -0.2305  0.1110  1.9013
 9593TIP3   OH250193   4.629   0.162   3.195  0.1109 -1.0118 -0.1233
 9593TIP3    H150194   4.649   0.177   3.287  1.2875  1.9218 -0.7490
 9593TIP3    H250195   4.534   0.149   3.193  0.0405 -0.9681  1.4544
 9594TIP3   OH250196   4.679   6.261   5.006 -0.3202  0.1378 -0.0575
 9594TIP3    H150197   4.586   6.272   4.986 -0.2347 -0.6933 -0.9480
 9594TIP3    H250198   4.710   6.350   5.022 -0.4907  0.9282 -3.3435
 9595TIP3   OH250199   4.691   1.379   1.791 -0.8816 -0.2507  0.3040
 9595TIP3    H150200   4.655   1.371   1.703 -0.7280  0.7596  0.1348
 9595TIP3    H250201   4.739   1.462   1.790  0.0288 -0.7502  1.0272
 9596TIP3   OH250202   1.242   3.892   0.296  0.0078 -0.3133  0.4224
 9596TIP3    H150203   1.167   3.837   0.273 -0.7358  0.5676  0.6758
 9596TIP3    H250204   1.277   3.920   0.211 -0.7634  0.3211  0.2954
 9597TIP3   OH250205   6.278   6.552   2.075  0.4094 -0.2640 -0.5935
 9597TIP3    H150206   6.264   6.511   1.990  0.6769  0.5924 -1.0625
 9597TIP3    H250207   6.193   6.588   2.099  0.1876 -1.0313 -0.2062
 9598TIP3   OH250208   0.828   4.081  14.261 -0.1936  0.1368  0.4906
 9598TIP3    H150209   0.737   4.056  14.246 -0.4575 -0.4541  2.7208
 9598TIP3    H250210   0.871   3.999  14.286  0.1533  0.9221  2.6642
 9599TIP3   OH250211   0.082   0.829   4.690 -0.3383  0.2561  0.3346
 9599TIP3    H150212   0.085   0.925   4.695  1.6999  0.2685 -0.3875
 9599TIP3    H250213   0.153   0.799   4.747  0.6835 -0.6925 -1.3465
 9600TIP3   OH250214   3.882   5.855  17.114 -0.1728  0.4633  0.3487
 9600TIP3    H150215   3.896   5.763  17.092 -0.8956  0.3492  0.3229
 9600TIP3    H250216   3.872   5.855  17.209 -2.5574  0.1477  0.1553
 9601TIP3   OH250217   6.175   4.085   7.063  0.2024 -0.9706 -0.1970
 9601TIP3    H150218   6.173   4.000   7.018 -0.0046  0.0950 -2.3432
 9601TIP3    H250219   6.264   4.118   7.049 -0.5016  0.3574 -1.8503
 9602TIP3   OH250220   1.698   0.888   5.800  0.0842 -0.2801  0.2605
 9602TIP3    H150221   1.771   0.910   5.859 -1.2357  0.0042  1.8653
 9602TIP3    H250222   1.713   0.796   5.777  1.5422  0.0866 -0.3586
 9603TIP3   OH250223   5.983   1.594  14.696  0.3244 -0.5023 -0.1416
 9603TIP3    H150224   5.971   1.571  14.604 -1.3854  0.5656 -0.2379
 9603TIP3    H250225   5.949   1.519  14.744 -1.1492 -0.0429 -0.4211
 9604TIP3   OH250226   0.069   4.880   1.864  0.1571 -0.1033  0.1863
 9604TIP3    H150227   0.038   4.969   1.849  0.7983  0.1234  0.1704
 9604TIP3    H250228   0.023   4.827   1.799 -1.6582 -0.1094  1.4005
 9605TIP3   OH250229   5.069   0.273  15.437  0.4190 -0.1503 -0.1306
 9605TIP3    H150230   5.059   0.212  15.511  0.1261 -1.2714 -1.0723
 9605TIP3    H250231   5.132   0.338  15.469  0.1179 -0.4693  1.1889
 9606TIP3   OH250232   0.392   0.619   6.617 -0.4372  0.2446  0.0064
 9606TIP3    H150233   0.452   0.551   6.650  0.6031  0.6459 -1.0144
 9606TIP3    H250234   0.414   0.697   6.667  0.4154  0.5801 -0.8677
 9607TIP3   OH250235   1.401   5.466  14.168  0.1431 -0.1237 -1.1504
 9607TIP3    H150236   1.433   5.378  14.147  1.0483  0.2158 -1.2751
 9607TIP3    H250237   1.447   5.490  14.248 -3.8488 -1.7002  1.9487
 9608TIP3   OH250238   4.820   4.627   2.026 -0.2241 -0.1561  0.1281
 9608TIP3    H150239   4.832   4.629   2.121 -1.1978  1.2743  0.2535
 9608TIP3    H250240   4.902   4.662   1.991 -0.4358  0.8128  0.5411
 9609TIP3   OH250241   4.572   0.654  11.429  0.3981 -0.1749 -0.1024
 9609TIP3    H150242   4.541   0.731  11.478  1.7101  0.7670 -0.6909
 9609TIP3    H250243   4.494   0.601  11.417 -0.3092  0.4511  1.4127
 9610TIP3   OH250244   6.024   2.518  13.794  0.5019  0.0566  0.1912
 9610TIP3    H150245   6.119   2.512  13.783  0.3409 -0.2079 -1.2188
 9610TIP3    H250246   6.002   2.608  13.771  0.1056 -0.6251 -2.4318
 9611TIP3   OH250247   3.848   4.580   0.282 -0.5618  0.1453 -0.2079
 9611TIP3    H150248   3.760   4.551   0.255 -0.6915  1.1161 -0.8820
 9611TIP3    H250249   3.848   4.570   0.377 -1.6389  0.7061 -0.1248
 9612TIP3   OH250250   4.278   0.738   5.238  0.0928  0.4123 -0.2613
 9612TIP3    H150251   4.249   0.656   5.199 -0.5153 -0.1220  1.2326
 9612TIP3    H250252   4.290   0.797   5.164 -1.5537 -0.3660 -1.2006
 9613TIP3   OH250253   5.906   4.372   5.567 -0.1533 -0.6671  0.0886
 9613TIP3    H150254   5.943   4.427   5.499  2.1663 -2.6386 -0.3804
 9613TIP3    H250255   5.817   4.352   5.535  0.3921 -0.4489 -1.6999
 9614TIP3   OH250256   3.753   4.904   2.899 -0.2546  0.0989  0.0428
 9614TIP3    H150257   3.835   4.856   2.886  0.1602  0.7756  0.1431
 9614TIP3    H250258   3.696   4.842   2.945 -0.1758 -0.7492 -0.9616
 9615TIP3   OH250259   5.215   1.450  12.953 -0.2748 -0.1209 -0.6529
 9615TIP3    H150260   5.283   1.490  13.007 -0.3079 -0.4344 -0.3736
 9615TIP3    H250261   5.164   1.397  13.015 -0.1095 -0.7528 -1.0517
 9616TIP3   OH250262   5.523   2.288  15.702 -0.2726  0.1755  0.2750
 9616TIP3    H150263   5.437   2.246  15.702 -0.8159  1.0991 -2.0299
 9616TIP3    H250264   5.573   2.240  15.636  0.8800 -0.0942  1.3064
 9617TIP3   OH250265   2.190   1.849  16.207  0.2901  0.3401 -0.4988
 9617TIP3    H150266   2.148   1.763  16.200  0.6596  0.2635 -2.2595
 9617TIP3    H250267   2.232   1.849  16.293 -0.6713 -0.7953 -0.0092
 9618TIP3   OH250268   6.103   1.244  14.370  0.1284  0.7200  0.1804
 9618TIP3    H150269   6.101   1.227  14.464 -0.1070  1.6946  0.3658
 9618TIP3    H250270   6.184   1.202  14.340 -0.9100 -1.5366  0.3913
 9619TIP3   OH250271   0.550   3.289  11.461  0.1090  0.2872 -0.1954
 9619TIP3    H150272   0.525   3.238  11.539 -0.8061  0.8429 -0.1119
 9619TIP3    H250273   0.643   3.270  11.449  0.1892 -0.0451  0.8580
 9620TIP3   OH250274   2.251   0.656  14.434  0.2763 -0.6119  0.2982
 9620TIP3    H150275   2.166   0.614  14.447  0.0575 -0.1689  0.3105
 9620TIP3    H250276   2.282   0.621  14.351 -0.2003 -0.3122 -0.0123
 9621TIP3   OH250277   2.374   4.569   0.764 -0.2121 -0.3481  0.0751
 9621TIP3    H150278   2.309   4.517   0.810  1.7931 -3.0068  0.1646
 9621TIP3    H250279   2.335   4.655   0.755 -2.9124 -1.2907  1.7827
 9622TIP3   OH250280   3.654   1.785  15.253  0.5632  0.3992 -0.0863
 9622TIP3    H150281   3.660   1.706  15.307 -1.1003 -0.1905 -0.6893
 9622TIP3    H250282   3.729   1.838  15.279  1.0934 -0.8850  1.1305
 9623TIP3   OH250283   3.647   6.731   5.307  0.3919  0.0931 -0.2819
 9623TIP3    H150284   3.594   6.656   5.333  0.7489 -0.0440  0.0666
 9623TIP3    H250285   3.716   6.694   5.251  1.2826 -0.0385  0.8479
 9624TIP3   OH250286   1.188   3.324  16.916 -0.0969  0.5624  0.6000
 9624TIP3    H150287   1.268   3.303  16.964  0.8738  0.8295 -0.8118
 9624TIP3    H250288   1.215   3.394  16.855 -1.0780 -0.1807 -0.7443
 9625TIP3   OH250289   4.256   3.441   5.835 -0.2000  0.2656 -0.2649
 9625TIP3    H150290   4.284   3.390   5.911 -1.5365  0.6518  0.5232
 9625TIP3    H250291   4.160   3.434   5.835 -0.3020  1.2879 -1.1959
 9626TIP3   OH250292   5.082   4.389  15.530  0.0769  0.0800 -0.1892
 9626TIP3    H150293   4.989   4.409  15.537  0.4144  1.2170  1.6440
 9626TIP3    H250294   5.108   4.424  15.445 -1.3922 -1.4431 -1.3501
 9627TIP3   OH250295   6.795   5.319   2.374  0.0652 -0.3877  0.7026
 9627TIP3    H150296   6.885   5.302   2.344  0.1335  1.5560 -0.3345
 9627TIP3    H250297   6.743   5.252   2.330  0.8526 -0.8859  0.4900
 9628TIP3   OH250298   5.470   4.995   5.835 -0.6036  0.3449 -0.1430
 9628TIP3    H150299   5.415   4.940   5.779 -1.6533 -0.2106  1.3484
 9628TIP3    H250300   5.509   5.059   5.776 -1.2376 -0.5446 -1.5681
 9629TIP3   OH250301   1.943   2.629  16.466 -0.8755 -0.0317 -0.2333
 9629TIP3    H150302   1.982   2.576  16.535  0.1362  0.0831 -0.7095
 9629TIP3    H250303   2.005   2.701  16.454 -0.0112 -1.0880 -2.6295
 9630TIP3   OH250304   2.948   1.458  13.403 -0.4363 -0.1110  0.2188
 9630TIP3    H150305   2.939   1.533  13.461  0.8509  1.8426 -1.9360
 9630TIP3    H250306   3.010   1.400  13.447 -0.9662  0.3620  1.6366
 9631TIP3   OH250307   0.101   5.662   3.484 -0.0538  0.1393  0.0147
 9631TIP3    H150308   0.125   5.642   3.575 -0.9469  0.3610  0.3073
 9631TIP3    H250309   0.081   5.577   3.445 -0.3877  0.1171  0.2369
 9632TIP3   OH250310   0.916   0.371   3.297 -0.2694  0.1638 -0.2288
 9632TIP3    H150311   0.997   0.421   3.289 -1.0599  1.3412 -1.2782
 9632TIP3    H250312   0.907   0.324   3.214  0.0495 -1.1285  0.4375
 9633TIP3   OH250313   0.745   1.290  15.522  0.1678 -0.3040 -0.4796
 9633TIP3    H150314   0.838   1.279  15.541  0.0827  1.5199  1.2411
 9633TIP3    H250315   0.738   1.278  15.427  2.1476 -0.4228 -0.6326
 9634TIP3   OH250316   4.634   0.330   2.964  0.2877  0.3600  0.3461
 9634TIP3    H150317   4.592   0.416   2.972 -0.1377  0.2089 -0.1935
 9634TIP3    H250318   4.655   0.305   3.054 -1.6457  0.0295  0.7446
 9635TIP3   OH250319   5.969   3.648  11.168  0.2873 -0.2493  0.5789
 9635TIP3    H150320   5.923   3.720  11.123  0.4097 -0.3975  0.2134
 9635TIP3    H250321   6.059   3.653  11.136  0.0480 -1.2529 -0.3179
 9636TIP3   OH250322   6.639   2.041  13.595 -0.5267  0.1762 -0.4250
 9636TIP3    H150323   6.699   1.972  13.621  1.5920  1.9079 -0.4313
 9636TIP3    H250324   6.603   2.011  13.512  1.9885 -0.0667 -1.5261
 9637TIP3   OH250325   5.032   6.277   5.020  0.2487 -0.6463 -0.2133
 9637TIP3    H150326   5.071   6.213   5.079  1.4976 -0.1580 -0.4809
 9637TIP3    H250327   5.038   6.360   5.067  0.6342 -0.3652 -0.7506
 9638TIP3   OH250328   0.848   6.607  16.551  0.1142 -0.2946  0.3345
 9638TIP3    H150329   0.793   6.551  16.605 -0.0841  1.2855  1.8714
 9638TIP3    H250330   0.937   6.576  16.566 -0.0273 -0.4513  0.8628
 9639TIP3   OH250331   2.549   5.085  11.295 -0.4772  0.4329 -0.2420
 9639TIP3    H150332   2.473   5.033  11.321 -1.2327  0.6399 -1.8939
 9639TIP3    H250333   2.607   5.082  11.371 -0.7199 -2.3686 -0.0601
 9640TIP3   OH250334   2.465   4.360   0.592  0.4624 -0.3244  0.6222
 9640TIP3    H150335   2.423   4.420   0.654 -1.0379 -1.9527  1.2834
 9640TIP3    H250336   2.495   4.416   0.520 -1.7127  1.1251  0.7569
 9641TIP3   OH250337   0.565   4.983   0.080 -0.5149 -0.0822 -0.3610
 9641TIP3    H150338   0.615   5.046   0.133  0.4804  0.1255 -1.5023
 9641TIP3    H250339   0.512   5.037   0.022 -1.6892 -0.3099  0.4594
 9642TIP3   OH250340   2.262   5.647  15.108 -0.0094 -0.1524 -0.1980
 9642TIP3    H150341   2.262   5.737  15.074 -0.7550 -0.4577 -1.0330
 9642TIP3    H250342   2.196   5.602  15.056  0.0366 -1.0760  0.5312
 9643TIP3   OH250343   1.841   0.315   2.678  0.4503 -0.3554  0.0322
 9643TIP3    H150344   1.784   0.327   2.754  1.8641  0.0953  1.0560
 9643TIP3    H250345   1.880   0.402   2.664  0.5853 -0.5566 -0.9018
 9644TIP3   OH250346   1.346   0.459  11.909  0.3484 -0.0336  0.0136
 9644TIP3    H150347   1.343   0.521  11.982 -1.3153 -0.0713  0.0319
 9644TIP3    H250348   1.435   0.465  11.875  1.0243  0.3505  1.7387
 9645TIP3   OH250349   1.191   4.299   4.445  0.0116 -0.2136 -0.1325
 9645TIP3    H150350   1.193   4.204   4.433 -0.3747 -0.3702  0.9385
 9645TIP3    H250351   1.116   4.328   4.394 -0.7176 -0.6704  0.6567
 9646TIP3   OH250352   0.662   3.053   0.079 -0.5653  0.1188  0.3507
 9646TIP3    H150353   0.754   3.069   0.059 -0.2894 -0.4256  1.1128
 9646TIP3    H250354   0.641   2.972   0.034 -1.1727  1.1126 -1.2246
 9647TIP3   OH250355   2.404   3.759   1.484 -0.3755  0.2196 -0.1421
 9647TIP3    H150356   2.493   3.723   1.481 -0.3725  0.2414 -0.3656
 9647TIP3    H250357   2.413   3.847   1.448 -0.5237  0.1409 -0.3776
 9648TIP3   OH250358   0.786   0.216  12.981 -0.1845  0.0951  0.5134
 9648TIP3    H150359   0.767   0.221  12.888 -0.0094  1.3474  0.5418
 9648TIP3    H250360   0.881   0.205  12.986 -0.3649 -1.9451  0.5132
 9649TIP3   OH250361   3.844   5.380   1.751  0.2231 -0.4690 -0.3267
 9649TIP3    H150362   3.848   5.431   1.831 -1.3938 -0.2829 -0.3200
 9649TIP3    H250363   3.910   5.312   1.762  2.0745  1.2684 -0.1216
 9650TIP3   OH250364   0.109   3.390   4.034  0.3495  0.3283  0.1366
 9650TIP3    H150365   0.035   3.418   3.979  1.7698  0.2464 -1.9233
 9650TIP3    H250366   0.122   3.461   4.096  0.1816  1.5547 -1.1856
 9651TIP3   OH250367   6.667   0.306  14.320  0.8673  0.6281  0.0433
 9651TIP3    H150368   6.629   0.250  14.388  1.6218 -2.4891 -1.9265
 9651TIP3    H250369   6.756   0.323  14.351  1.2236 -0.8041 -0.1532
 9652TIP3   OH250370   0.154   4.573  10.536  0.1454 -0.5678 -0.2195
 9652TIP3    H150371   0.239   4.557  10.576 -0.2691 -1.2019  0.4133
 9652TIP3    H250372   0.158   4.527  10.452  1.3339  1.4717 -1.3827
 9653TIP3   OH250373   2.916   2.720   4.838  0.0813  0.2485  0.0119
 9653TIP3    H150374   3.004   2.756   4.827  0.0637  0.4020  0.3530
 9653TIP3    H250375   2.861   2.771   4.778  0.5413 -1.1198 -1.6583
 9654TIP3   OH250376   2.660   6.208  13.453  0.3667 -0.2646  0.3352
 9654TIP3    H150377   2.602   6.132  13.461  1.0343 -0.7755  0.3379
 9654TIP3    H250378   2.641   6.260  13.531 -2.3835  1.2005 -1.1683
 9655TIP3   OH250379   0.010   4.051  13.098 -0.9228 -0.3565 -0.2819
 9655TIP3    H150380   0.063   3.972  13.109 -2.2246 -1.4449 -1.4054
 9655TIP3    H250381   0.059   4.105  13.036  1.3097  1.0490  2.4865
 9656TIP3   OH250382   1.725   0.180   5.208  0.1139  0.1020  0.6647
 9656TIP3    H150383   1.665   0.128   5.262 -0.8626 -2.0194 -2.2345
 9656TIP3    H250384   1.695   0.166   5.119  2.8469  1.8257 -0.6487
 9657TIP3   OH250385   2.410   6.036   1.554  0.0379  0.0518  0.3107
 9657TIP3    H150386   2.492   6.001   1.588 -0.7109 -2.4953 -0.2713
 9657TIP3    H250387   2.427   6.129   1.540  3.0947 -0.5378 -0.5994
 9658TIP3   OH250388   4.627   1.262   3.594  0.0345  0.4163 -1.0189
 9658TIP3    H150389   4.582   1.326   3.538 -1.5574 -0.9345 -1.3794
 9658TIP3    H250390   4.562   1.239   3.660  1.9063  2.0282  1.5279
 9659TIP3   OH250391   1.211   5.113  12.838 -0.2424 -0.1115 -0.1406
 9659TIP3    H150392   1.248   5.074  12.759  0.5980 -0.5201  0.4402
 9659TIP3    H250393   1.166   5.041  12.882 -3.5547  0.7549 -1.7974
 9660TIP3   OH250394   2.920   3.602   6.189 -0.4971 -0.4915  0.2845
 9660TIP3    H150395   2.961   3.655   6.258  0.2269  0.0085 -0.5177
 9660TIP3    H250396   2.888   3.524   6.235 -1.6961  0.6632  1.5041
 9661TIP3   OH250397   0.428   2.257  11.202  0.1592  0.1293  0.1387
 9661TIP3    H150398   0.482   2.262  11.281 -3.1492  0.4437  2.5389
 9661TIP3    H250399   0.438   2.167  11.172  1.4380 -0.0074  0.8854
 9662TIP3   OH250400   0.692   2.588   3.645  0.5473 -0.1406  0.1030
 9662TIP3    H150401   0.717   2.504   3.609 -0.5545 -0.8981  1.0270
 9662TIP3    H250402   0.765   2.613   3.702 -0.1806 -1.7348  1.8343
 9663TIP3   OH250403   2.197   6.532  15.599 -0.1231  0.0174 -0.6920
 9663TIP3    H150404   2.171   6.624  15.608  0.5756  0.1001  0.7969
 9663TIP3    H250405   2.114   6.485  15.587 -0.7472  0.6076  0.9440
 9664TIP3   OH250406   4.901   1.786  14.453  0.0634 -0.1871 -0.2189
 9664TIP3    H150407   4.887   1.795  14.359  0.2015  0.4529 -0.1885
 9664TIP3    H250408   4.995   1.798  14.464 -0.0269  0.2962  0.0539
 9665TIP3   OH250409   1.444   1.875   4.793 -0.5860  0.4232  0.1570
 9665TIP3    H150410   1.356   1.910   4.808 -0.4061  0.9559  0.0266
 9665TIP3    H250411   1.481   1.865   4.881 -1.8618 -2.8067  0.4359
 9666TIP3   OH250412   6.220   5.787   3.876  0.3353 -0.2774  0.1576
 9666TIP3    H150413   6.290   5.834   3.831  0.3298  0.9214  1.3280
 9666TIP3    H250414   6.253   5.698   3.888  0.5760 -0.4601 -1.6130
 9667TIP3   OH250415   1.004   4.353   4.224 -0.1153 -0.1381 -0.3551
 9667TIP3    H150416   0.937   4.375   4.159  0.8461  1.7226 -0.7864
 9667TIP3    H250417   1.086   4.354   4.175  0.4264 -0.6900  0.5076
 9668TIP3   OH250418   1.471   0.610   2.269  0.3690 -0.0485 -0.0609
 9668TIP3    H150419   1.515   0.647   2.192  1.0978 -3.5488 -1.5593
 9668TIP3    H250420   1.541   0.568   2.318 -0.7188 -2.4791 -0.4569
 9669TIP3   OH250421   3.805   3.569   3.775 -0.2380 -0.0484 -0.2809
 9669TIP3    H150422   3.734   3.522   3.732 -0.5738  0.1799  0.0175
 9669TIP3    H250423   3.771   3.658   3.786  1.0558  0.7947 -2.4808
 9670TIP3   OH250424   1.277   3.588   3.108 -0.0345  0.0304 -0.2234
 9670TIP3    H150425   1.213   3.590   3.179  1.0360 -1.7815  0.8636
 9670TIP3    H250426   1.356   3.627   3.145 -0.0412  0.9429 -1.1077
 9671TIP3   OH250427   1.998   0.626   5.652  0.6964 -0.3505 -0.5054
 9671TIP3    H150428   2.067   0.584   5.600  0.0571  0.7495 -2.3186
 9671TIP3    H250429   2.008   0.719   5.634 -2.0947 -0.2305 -1.9521
 9672TIP3   OH250430   6.597   0.719  14.053 -0.7229 -0.6411  0.5961
 9672TIP3    H150431   6.587   0.624  14.048 -3.2246 -0.4742  1.4041
 9672TIP3    H250432   6.519   0.755  14.011  0.7606  1.1257 -0.8217
 9673TIP3   OH250433   3.412   4.049   0.550 -0.1249 -0.6634  1.1026
 9673TIP3    H150434   3.369   3.972   0.513  0.8206  0.1891 -2.0463
 9673TIP3    H250435   3.367   4.064   0.633 -2.7225 -2.5252  0.1506
 9674TIP3   OH250436   4.024   4.915  14.875 -0.2706 -0.0264 -0.2237
 9674TIP3    H150437   4.002   4.824  14.895 -1.7030  0.5676  1.1169
 9674TIP3    H250438   4.119   4.917  14.875 -0.1833 -1.7478 -1.4457
 9675TIP3   OH250439   5.997   0.508  13.191 -0.4257 -0.4602  0.2126
 9675TIP3    H150440   5.953   0.483  13.109  0.4486  0.7477 -0.6599
 9675TIP3    H250441   6.051   0.583  13.167  1.0785 -1.0596  1.5614
 9676TIP3   OH250442   6.141   3.337   1.609 -0.0301  0.2058 -0.2868
 9676TIP3    H150443   6.228   3.311   1.638 -0.2223 -1.8612 -1.3474
 9676TIP3    H250444   6.093   3.357   1.689  1.8050  2.9731  0.2531
 9677TIP3   OH250445   4.156   0.801  16.786 -0.0082 -0.4368  0.2217
 9677TIP3    H150446   4.209   0.852  16.724  0.9561 -2.0530 -0.3484
 9677TIP3    H250447   4.151   0.856  16.864  0.5442  0.7430 -0.5407
 9678TIP3   OH250448   6.088   1.778   3.953 -0.3354 -0.2822  0.0051
 9678TIP3    H150449   5.994   1.761   3.962 -0.6163  0.8375 -0.5568
 9678TIP3    H250450   6.123   1.761   4.040 -1.1521 -0.2332  0.3584
 9679TIP3   OH250451   4.257   1.407  13.376  0.2050 -0.2585  0.7612
 9679TIP3    H150452   4.337   1.444  13.413  0.5995 -2.2493  1.9909
 9679TIP3    H250453   4.192   1.417  13.445 -0.4559  0.6907  0.0325
 9680TIP3   OH250454   2.392   1.241  14.691  0.3375  0.0358 -0.1742
 9680TIP3    H150455   2.380   1.326  14.735  0.1727  0.4388 -0.9743
 9680TIP3    H250456   2.485   1.238  14.670  0.2700  0.1955 -0.4966
 9681TIP3   OH250457   4.508   4.065   0.812  0.3017  0.2628  0.5282
 9681TIP3    H150458   4.520   4.135   0.748  0.2468  1.3613  1.6678
 9681TIP3    H250459   4.472   3.992   0.762  0.9054  0.8353 -0.8072
 9682TIP3   OH250460   2.289   1.888   0.313 -0.4850 -0.1664  0.3627
 9682TIP3    H150461   2.348   1.960   0.338 -2.6976  0.9297  2.8808
 9682TIP3    H250462   2.307   1.819   0.377  0.2224 -1.1210 -0.8221
 9683TIP3   OH250463   6.356   4.851  12.388 -0.4505  0.3971  0.6314
 9683TIP3    H150464   6.292   4.801  12.336 -0.3154 -0.9063  1.6479
 9683TIP3    H250465   6.308   4.927  12.419 -0.8605  0.5923 -0.4346
 9684TIP3   OH250466   1.556   0.055   2.307 -0.3246 -0.0529 -0.4486
 9684TIP3    H150467   1.631   0.111   2.327 -1.8750  2.8373 -2.0292
 9684TIP3    H250468   1.586   0.000   2.234 -0.0919  2.0839 -2.0361
 9685TIP3   OH250469   0.373   2.294  12.440  0.3915 -0.6799 -0.2902
 9685TIP3    H150470   0.326   2.253  12.513  1.3248  0.2543  0.8666
 9685TIP3    H250471   0.304   2.322  12.381 -0.4624 -0.3307  0.8397
 9686TIP3   OH250472   3.083   5.168  16.754  0.0539  0.6395  0.2930
 9686TIP3    H150473   3.006   5.219  16.729 -0.3533  0.0092  0.2375
 9686TIP3    H250474   3.107   5.120  16.675  0.2735  0.5379  0.4185
 9687TIP3   OH250475   1.390   3.595   4.793 -0.4744 -1.0180 -0.1948
 9687TIP3    H150476   1.325   3.662   4.816  0.3695 -0.2687  0.0868
 9687TIP3    H250477   1.339   3.522   4.759 -1.6452 -1.3433  2.0954
 9688TIP3   OH250478   3.566   0.918   4.173 -0.3846  0.3140  0.1129
 9688TIP3    H150479   3.548   0.982   4.104  0.3806  1.4812  0.9557
 9688TIP3    H250480   3.552   0.834   4.131  0.0832  0.9892 -1.4925
 9689TIP3   OH250481   6.210   4.429  12.088  0.3257  0.2817 -0.7400
 9689TIP3    H150482   6.191   4.414  11.995 -0.5228 -0.6575 -0.4185
 9689TIP3    H250483   6.168   4.513  12.107  2.5911  1.7695 -1.7899
 9690TIP3   OH250484   1.899   6.791  13.592 -0.2206 -0.5412 -0.1852
 9690TIP3    H150485   1.889   6.814  13.684  0.2964  1.6615 -0.6390
 9690TIP3    H250486   1.817   6.821  13.551 -0.6852 -1.9972 -0.3995
 9691TIP3   OH250487   0.115   1.863  16.797  0.6153 -0.5473  0.1707
 9691TIP3    H150488   0.050   1.806  16.756  0.8050  0.2190 -1.2707
 9691TIP3    H250489   0.181   1.876  16.730  0.0185  2.2580  0.0010
 9692TIP3   OH250490   4.147   4.285  15.146  0.0675 -0.4105  0.4700
 9692TIP3    H150491   4.084   4.214  15.152  0.9537 -1.2072  0.5822
 9692TIP3    H250492   4.153   4.305  15.053  1.4346 -2.0092  0.1700
 9693TIP3   OH250493   4.575   4.282   6.166 -0.4708  0.1926  0.1678
 9693TIP3    H150494   4.614   4.354   6.215 -1.7756  1.6852 -0.8901
 9693TIP3    H250495   4.540   4.223   6.233  1.0856  0.2289  1.0550
 9694TIP3   OH250496   4.708   0.552  11.182  0.5999  0.1047 -0.0649
 9694TIP3    H150497   4.620   0.561  11.146  1.4896 -2.1185 -3.2657
 9694TIP3    H250498   4.710   0.611  11.257 -2.6143  2.5795 -1.6854
 9695TIP3   OH250499   0.047   6.507  16.209  0.1329 -0.1237  0.0584
 9695TIP3    H150500   0.039   6.448  16.135  1.2443  0.5297 -0.6122
 9695TIP3    H250501  -0.017   6.576  16.193 -1.5723 -1.3934  1.1324
 9696TIP3   OH250502   3.108   1.879   0.793  0.0430 -0.4842 -0.1864
 9696TIP3    H150503   3.067   1.812   0.738  0.5745 -0.1994 -0.9599
 9696TIP3    H250504   3.197   1.886   0.758  0.3986 -0.3104  0.7449
 9697TIP3   OH250505   5.901   3.474   1.856 -0.2333  0.3861 -0.0449
 9697TIP3    H150506   5.854   3.450   1.776 -2.5516 -0.5681  1.5059
 9697TIP3    H250507   5.907   3.392   1.905  1.5068  0.8762  0.6220
 9698TIP3   OH250508   6.177   4.709  15.818 -0.2802 -0.3773 -0.1402
 9698TIP3    H150509   6.260   4.675  15.786 -0.5853 -0.5834 -0.7338
 9698TIP3    H250510   6.160   4.659  15.898 -0.6957 -1.6348 -0.9706
 9699TIP3   OH250511   2.237   6.018   5.355  0.5981 -0.3728 -0.5058
 9699TIP3    H150512   2.220   6.106   5.387  0.8279 -0.2465 -0.7302
 9699TIP3    H250513   2.252   6.029   5.262  2.5082 -0.3878 -0.2343
 9700TIP3   OH250514   1.268   3.492  14.934  0.6683 -0.4107  0.0470
 9700TIP3    H150515   1.317   3.547  14.995  1.2169 -1.2657  0.4020
 9700TIP3    H250516   1.254   3.410  14.982  0.0406 -0.6557 -0.5419
 9701TIP3   OH250517   5.890   1.476   3.835 -0.0737  0.1548  0.2099
 9701TIP3    H150518   5.850   1.539   3.893  0.7131  1.2448 -0.3957
 9701TIP3    H250519   5.926   1.409   3.894 -0.2950  0.6385  0.9079
 9702TIP3   OH250520   2.821   2.060   2.963  0.2903  0.1718  0.0878
 9702TIP3    H150521   2.914   2.043   2.947  0.2569  1.2582 -1.4053
 9702TIP3    H250522   2.797   2.128   2.900 -2.1075 -1.7189 -1.2321
 9703TIP3   OH250523   6.035   5.212  11.887 -0.6252  0.5512  0.0811
 9703TIP3    H150524   6.080   5.287  11.848  0.4865  0.3578  0.9618
 9703TIP3    H250525   6.105   5.155  11.919 -1.3580 -1.8474 -2.2703
 9704TIP3   OH250526   5.482   2.416  16.240 -0.2363 -0.0119 -0.0677
 9704TIP3    H150527   5.402   2.380  16.280  0.4409 -0.6374  0.7512
 9704TIP3    H250528   5.450   2.482  16.179 -1.3173  1.2324  1.7603
 9705TIP3   OH250529   5.870   4.599  11.396 -0.1276 -0.3557  0.0022
 9705TIP3    H150530   5.911   4.673  11.350  1.5802 -0.8874  0.5799
 9705TIP3    H250531   5.779   4.600  11.368  0.1576  1.2109 -0.9671
 9706TIP3   OH250532   0.309   6.121   2.484  0.0656 -1.0657  0.1906
 9706TIP3    H150533   0.383   6.148   2.538 -0.2249 -1.4445  0.7859
 9706TIP3    H250534   0.255   6.199   2.475  1.4364 -0.2639 -1.7835
 9707TIP3   OH250535   2.684   2.666  14.362 -0.0409  0.3022  0.2563
 9707TIP3    H150536   2.594   2.634  14.362 -0.2049  0.7295  1.0867
 9707TIP3    H250537   2.682   2.742  14.303  0.1663 -0.6551 -1.0485
 9708TIP3   OH250538   5.580   4.153  17.004 -0.3624 -0.3482 -0.3590
 9708TIP3    H150539   5.505   4.136  17.062 -1.7867  0.2877 -1.9279
 9708TIP3    H250540   5.600   4.067  16.966  0.2142 -0.6623  0.6318
 9709TIP3   OH250541   3.426   6.721  16.686 -0.4555  0.0850 -0.0570
 9709TIP3    H150542   3.370   6.646  16.668  0.0344  0.0162 -1.3887
 9709TIP3    H250543   3.514   6.690  16.666 -0.2485  1.0065 -0.6105
 9710TIP3   OH250544   2.634   5.225   3.596 -0.3120  0.1317  0.1920
 9710TIP3    H150545   2.723   5.192   3.606 -0.0518 -0.1120 -2.3050
 9710TIP3    H250546   2.579   5.160   3.641  0.7265  0.0369  1.3505
 9711TIP3   OH250547   4.838   3.672  11.669  0.5844  0.1758  0.3189
 9711TIP3    H150548   4.793   3.757  11.663 -1.0140 -0.7498 -2.3353
 9711TIP3    H250549   4.811   3.625  11.590  1.9722 -2.5710  1.3641
 9712TIP3   OH250550   3.502   5.705   4.266  0.2680  0.3640 -0.0723
 9712TIP3    H150551   3.443   5.646   4.219 -0.1452  1.1227 -0.5249
 9712TIP3    H250552   3.579   5.652   4.285  1.1353  0.4331 -2.9765
 9713TIP3   OH250553   5.139   4.472  14.075  0.2371 -0.4640 -0.2075
 9713TIP3    H150554   5.149   4.411  14.003  2.0938 -1.1420  0.5640
 9713TIP3    H250555   5.225   4.474  14.117 -0.6391  0.3030  1.6650
 9714TIP3   OH250556   2.670   1.331   2.273  0.4223 -0.1447 -0.1480
 9714TIP3    H150557   2.710   1.294   2.352 -1.9991  0.9748  1.7588
 9714TIP3    H250558   2.599   1.270   2.251 -0.1232  0.5127 -0.2624
 9715TIP3   OH250559   4.895   5.116   5.934 -0.1522 -0.0457 -0.3326
 9715TIP3    H150560   4.861   5.204   5.922 -0.0088 -0.0683 -0.9814
 9715TIP3    H250561   4.857   5.085   6.016 -0.1716  0.6308 -0.0867
 9716TIP3   OH250562   1.272   3.261   3.170 -0.2629 -0.4117 -0.4736
 9716TIP3    H150563   1.309   3.173   3.173  1.4159  0.2806  0.4519
 9716TIP3    H250564   1.317   3.309   3.239 -0.8244  1.2920 -1.2231
 9717TIP3   OH250565   4.036   5.987  11.543  0.2984 -0.5919 -0.1243
 9717TIP3    H150566   4.088   5.960  11.618  0.5529  2.7657  1.0862
 9717TIP3    H250567   3.951   6.011  11.580  0.5571  1.5050 -0.7458
 9718TIP3   OH250568   5.104   6.427   4.189  0.3242 -0.2317 -0.5085
 9718TIP3    H150569   5.025   6.435   4.135  0.0565 -2.3735 -0.5217
 9718TIP3    H250570   5.164   6.376   4.135  1.4706  0.7227 -0.1884
 9719TIP3   OH250571   5.071   1.069   3.021 -0.7161 -0.2729 -0.3360
 9719TIP3    H150572   5.037   0.993   3.067  0.0101 -0.6265 -0.3591
 9719TIP3    H250573   5.140   1.102   3.079  0.9425 -1.3447 -1.5903
 9720TIP3   OH250574   6.371   1.958   6.774  0.7105  0.2413 -0.2602
 9720TIP3    H150575   6.331   2.045   6.779 -0.9466 -0.2996 -2.5403
 9720TIP3    H250576   6.457   1.972   6.736  0.6861  0.9457 -0.0632
 9721TIP3   OH250577   4.026   2.325   0.205 -0.6609  0.3276 -0.1276
 9721TIP3    H150578   4.081   2.402   0.214  1.6271 -1.4304  3.0911
 9721TIP3    H250579   4.086   2.256   0.175 -2.3687 -0.5290 -1.8006
 9722TIP3   OH250580   1.763   5.389   3.546  0.1306 -0.9404 -0.6254
 9722TIP3    H150581   1.813   5.432   3.477 -0.4964 -0.3423 -0.7245
 9722TIP3    H250582   1.758   5.298   3.520 -1.5859 -0.4251 -2.3081
 9723TIP3   OH250583   3.737   5.102  11.340 -0.2842  0.3638  0.9070
 9723TIP3    H150584   3.663   5.063  11.387 -0.4422  0.8126  1.0447
 9723TIP3    H250585   3.696   5.147  11.266  0.0852 -1.6143 -0.5857
 9724TIP3   OH250586   5.666   3.329   4.675  0.0965 -0.5702  0.0742
 9724TIP3    H150587   5.683   3.364   4.588  0.4535 -0.5836  0.1333
 9724TIP3    H250588   5.621   3.399   4.721  0.8733 -0.1450  0.2150
 9725TIP3   OH250589   4.670   2.173   1.015 -0.0785 -0.9231  0.0768
 9725TIP3    H150590   4.664   2.176   0.920  1.4285 -1.2196 -0.0561
 9725TIP3    H250591   4.726   2.097   1.033  2.4672  1.0462  0.9971
 9726TIP3   OH250592   4.081   0.290   1.369  0.1669  0.3824 -0.2795
 9726TIP3    H150593   4.024   0.365   1.382 -0.4235 -0.2271  0.6983
 9726TIP3    H250594   4.067   0.235   1.445  0.9601 -0.4920 -0.7443
 9727TIP3   OH250595   3.323   4.194  15.348  0.4010  0.6603 -0.4976
 9727TIP3    H150596   3.233   4.164  15.351  1.0568 -1.6002 -1.4495
 9727TIP3    H250597   3.321   4.282  15.386 -1.6825 -0.5226  2.4497
 9728TIP3   OH250598   6.384   4.136   5.978  0.0095 -0.1138 -0.2233
 9728TIP3    H150599   6.424   4.197   6.041  0.0913 -1.2611  0.8753
 9728TIP3    H250600   6.291   4.157   5.980  0.1583  0.5895 -0.5484
 9729TIP3   OH250601   0.939   5.036   2.615  0.4897 -0.4563 -0.1241
 9729TIP3    H150602   0.967   5.128   2.609  1.9230 -0.8979 -0.5185
 9729TIP3    H250603   0.937   5.018   2.709 -1.1156  0.3409  0.0307
 9730TIP3   OH250604   1.079   5.485   2.687 -0.0160 -0.0006  0.0660
 9730TIP3    H150605   1.028   5.554   2.645 -0.1722  0.4258  0.9435
 9730TIP3    H250606   1.170   5.509   2.671 -0.0416  1.1290  1.4722
 9731TIP3   OH250607   0.428   5.233  16.766  0.3117  0.6023  0.3258
 9731TIP3    H150608   0.407   5.319  16.731 -0.9943  0.2140  0.1300
 9731TIP3    H250609   0.443   5.178  16.689  0.9640  0.5963  0.4462
 9732TIP3   OH250610   5.013   3.911  11.000 -0.3076  0.2506  0.4965
 9732TIP3    H150611   5.050   3.997  10.980 -1.1654  0.7961  1.1955
 9732TIP3    H250612   4.932   3.930  11.047 -0.6729 -0.9399  0.3793
 9733TIP3   OH250613   6.560   3.989   0.603 -0.2674  0.3290  0.2864
 9733TIP3    H150614   6.517   3.929   0.542  0.9843 -0.1400 -0.1773
 9733TIP3    H250615   6.599   4.056   0.546  1.8319 -0.6944  0.4155
 9734TIP3   OH250616   4.677   0.761   0.115  0.6888 -0.0187 -0.0399
 9734TIP3    H150617   4.694   0.781   0.023  0.6084  0.7065  0.0978
 9734TIP3    H250618   4.760   0.780   0.159  0.4266  0.6266  0.1863
 9735TIP3   OH250619   1.905   1.670   4.415  0.0937 -0.0316 -0.3818
 9735TIP3    H150620   1.935   1.699   4.329 -0.8201  2.9125  0.1624
 9735TIP3    H250621   1.973   1.701   4.476 -0.5216  0.2600  0.1750
 9736TIP3   OH250622   3.890   2.703   1.981 -0.0014 -0.1832 -0.1123
 9736TIP3    H150623   3.797   2.726   1.981  0.3128  1.1657  0.7799
 9736TIP3    H250624   3.931   2.771   1.928  0.7394  0.4378  1.2330
 9737TIP3   OH250625   5.161   4.195   2.583  0.2315 -0.6213  0.1779
 9737TIP3    H150626   5.109   4.115   2.586 -2.0788  0.7975  0.9649
 9737TIP3    H250627   5.152   4.232   2.671 -0.1858  1.3151 -0.6262
 9738TIP3   OH250628   6.325   6.400   3.806  0.3375  1.0773 -0.0381
 9738TIP3    H150629   6.358   6.472   3.860 -2.0355  1.3617  1.1592
 9738TIP3    H250630   6.308   6.329   3.869 -1.1643  0.9157 -0.5805
 9739TIP3   OH250631   0.361   0.905   4.545  0.2370 -0.0740 -0.2072
 9739TIP3    H150632   0.289   0.866   4.595  0.8225 -0.3174  0.4690
 9739TIP3    H250633   0.319   0.946   4.469 -0.6780  0.3999  0.5447
 9740TIP3   OH250634   2.752   6.240   1.166 -0.3424 -0.4374 -0.2638
 9740TIP3    H150635   2.746   6.332   1.140  0.1605 -0.4305 -0.3562
 9740TIP3    H250636   2.799   6.242   1.250 -1.0641 -0.5435  0.1527
 9741TIP3   OH250637   1.818   4.962  13.407 -0.2791 -0.1440  0.0605
 9741TIP3    H150638   1.898   5.006  13.377 -2.2861  3.1079 -1.0350
 9741TIP3    H250639   1.820   4.972  13.502  0.6395 -0.1971  0.0545
 9742TIP3   OH250640   0.770   1.766  12.111  0.3891  0.3027 -0.7437
 9742TIP3    H150641   0.730   1.842  12.068  0.3007  1.2927  0.9489
 9742TIP3    H250642   0.862   1.790  12.120  0.2195  0.5922  0.4720
 9743TIP3   OH250643   6.598   4.232   3.819 -0.2283  0.0401  0.0275
 9743TIP3    H150644   6.691   4.255   3.821 -0.0181 -0.8144  0.6717
 9743TIP3    H250645   6.552   4.316   3.811  0.5735  0.5248  0.4339
 9744TIP3   OH250646   0.571   1.499   3.123 -0.2445 -0.1020 -0.0539
 9744TIP3    H150647   0.526   1.464   3.200 -0.6944  0.4872 -0.0466
 9744TIP3    H250648   0.501   1.528   3.065  0.0516 -1.4295 -1.1223
 9745TIP3   OH250649   0.250   3.485  17.114  0.0829  0.1890  0.5698
 9745TIP3    H150650   0.323   3.474  17.175 -0.6526  0.5709  1.5521
 9745TIP3    H250651   0.218   3.397  17.098  0.0504  0.1154  1.0316
 9746TIP3   OH250652   1.634   6.137  13.154 -0.4556 -0.0963  0.1009
 9746TIP3    H150653   1.597   6.063  13.107  2.0925 -0.3046 -1.7767
 9746TIP3    H250654   1.617   6.212  13.097  0.2484  0.1122  0.1557
 9747TIP3   OH250655   5.217   3.221   0.099  0.1483  0.5152 -0.4035
 9747TIP3    H150656   5.180   3.248   0.016  0.0530  1.3898 -0.0829
 9747TIP3    H250657   5.226   3.302   0.150 -0.2372 -0.0617  0.6129
 9748TIP3   OH250658   1.352   6.414   5.252 -0.1895  0.1779 -0.0523
 9748TIP3    H150659   1.340   6.483   5.186 -1.5964 -0.9006 -0.9690
 9748TIP3    H250660   1.438   6.376   5.232 -0.2219  0.4393 -0.7057
 9749TIP3   OH250661   5.742   0.067  16.072  0.5416 -0.5900 -0.3374
 9749TIP3    H150662   5.716   0.074  16.164 -1.3423  0.5782 -0.8963
 9749TIP3    H250663   5.719  -0.022  16.048  1.5358 -1.0731  0.4516
 9750TIP3   OH250664   4.070   3.087   2.828  0.1716 -0.0067 -0.0328
 9750TIP3    H150665   4.126   3.011   2.842 -0.0956 -0.1004  0.5480
 9750TIP3    H250666   4.124   3.162   2.851  1.0355  0.1454 -2.2738
 9751TIP3   OH250667   1.158   0.060   0.267  0.1279  0.3579  0.5079
 9751TIP3    H150668   1.198   0.094   0.187 -0.5096  1.5110  0.6568
 9751TIP3    H250669   1.180   0.125   0.334 -0.8247  0.3126  0.8828
 9752TIP3   OH250670   3.667   2.994  12.506  0.2934 -0.5648 -0.1822
 9752TIP3    H150671   3.674   2.903  12.532  2.4262 -0.3520  0.1956
 9752TIP3    H250672   3.662   2.991  12.410  1.6807 -1.0789 -0.2679
 9753TIP3   OH250673   3.672   3.894  14.596 -0.0525  0.7009  0.1149
 9753TIP3    H150674   3.581   3.898  14.569 -0.6626  1.1950  2.0896
 9753TIP3    H250675   3.691   3.801  14.606  0.0703  0.5305 -1.4954
 9754TIP3   OH250676   5.468   2.737   0.163  0.1916  0.1316  0.5811
 9754TIP3    H150677   5.541   2.680   0.140 -0.2531 -0.2175  0.0019
 9754TIP3    H250678   5.397   2.676   0.185  0.0661  0.4668  1.1053
 9755TIP3   OH250679   0.821   3.185   5.751  0.0035 -0.6080 -0.0745
 9755TIP3    H150680   0.896   3.228   5.711  0.1428  0.6981  1.4921
 9755TIP3    H250681   0.859   3.118   5.808  0.0901  0.8061  1.5938
 9756TIP3   OH250682   3.774   5.296  17.032 -0.0616  0.0419  0.0690
 9756TIP3    H150683   3.719   5.255  16.965 -0.5264 -0.1712  0.5721
 9756TIP3    H250684   3.852   5.325  16.985 -0.4300 -0.0087 -0.5816
 9757TIP3   OH250685   2.753   1.149  12.988  0.2297  0.1857 -0.3093
 9757TIP3    H150686   2.711   1.157  12.902  0.0700  0.4360 -0.2096
 9757TIP3    H250687   2.813   1.222  12.992 -2.4267  2.4783  1.2703
 9758TIP3   OH250688   4.583   2.374   4.352  0.0077  0.9437 -0.3164
 9758TIP3    H150689   4.632   2.376   4.434 -2.2715 -0.3416  1.1900
 9758TIP3    H250690   4.626   2.440   4.297  2.3474  1.0186  1.4346
 9759TIP3   OH250691   4.841   5.302  14.012  0.2046 -1.1583 -0.2991
 9759TIP3    H150692   4.807   5.226  14.058 -0.1133 -0.5083  0.5825
 9759TIP3    H250693   4.766   5.338  13.966  0.2496 -1.1236 -0.3455
 9760TIP3   OH250694   3.916   6.744  13.521  0.2197 -0.1720  0.1004
 9760TIP3    H150695   3.862   6.672  13.554  1.2614 -1.3826 -0.7409
 9760TIP3    H250696   3.858   6.821  13.523 -1.5256 -1.4085 -0.7423
 9761TIP3   OH250697   5.202   4.893  15.080  0.2364 -0.2839  0.3608
 9761TIP3    H150698   5.126   4.846  15.115 -0.5807  0.2786 -0.6265
 9761TIP3    H250699   5.208   4.972  15.134 -0.5984  0.2436 -0.3112
 9762TIP3   OH250700   2.617   5.192   3.153  0.3036  0.1516 -0.2916
 9762TIP3    H150701   2.568   5.213   3.073  1.4226  2.0250 -0.5500
 9762TIP3    H250702   2.564   5.229   3.223  1.2097  2.0826 -0.5612
 9763TIP3   OH250703   6.505   5.528   0.821  0.2962 -0.2120  0.1701
 9763TIP3    H150704   6.520   5.446   0.774 -1.4518  0.5964 -1.9908
 9763TIP3    H250705   6.437   5.506   0.884  1.7654 -1.0110  1.5472
 9764TIP3   OH250706   4.212   0.567   5.865 -0.0361  0.3666 -0.3766
 9764TIP3    H150707   4.141   0.569   5.929 -0.2032 -4.2497 -0.1006
 9764TIP3    H250708   4.281   0.621   5.905 -0.9516 -0.5005  2.6965
 9765TIP3   OH250709   6.293   4.220  14.813 -0.3703 -0.4769  0.1655
 9765TIP3    H150710   6.265   4.159  14.745 -1.5628 -1.0238  1.1155
 9765TIP3    H250711   6.240   4.197  14.890 -0.0181  1.0038  0.8856
 9766TIP3   OH250712   4.927   2.628  15.843 -0.1914  0.1909 -0.6270
 9766TIP3    H150713   4.879   2.558  15.887  0.5330  0.4240  0.5523
 9766TIP3    H250714   4.921   2.606  15.750 -1.4390 -0.4960 -0.3991
 9767TIP3   OH250715   5.676   5.836  13.340  0.4564 -0.1097 -0.3017
 9767TIP3    H150716   5.749   5.804  13.392  0.1458 -2.2737 -1.0984
 9767TIP3    H250717   5.717   5.893  13.274  1.2963 -0.4868 -0.1209
 9768TIP3   OH250718   0.460   4.135   1.133 -0.1473  0.0834  0.0809
 9768TIP3    H150719   0.370   4.111   1.156  0.1476  0.9755  2.4521
 9768TIP3    H250720   0.494   4.177   1.212  1.1069  3.3233 -2.0109
 9769TIP3   OH250721   3.251   2.030   0.382 -0.4918 -0.7394  0.3631
 9769TIP3    H150722   3.339   2.066   0.365  0.1393 -0.4916  3.5297
 9769TIP3    H250723   3.256   1.996   0.472 -3.6479 -0.7319  0.6471
 9770TIP3   OH250724   0.207   5.330  12.328 -0.4108  0.1699  0.3985
 9770TIP3    H150725   0.261   5.273  12.273 -0.1997  0.6836  0.0663
 9770TIP3    H250726   0.117   5.304  12.309 -0.3179  0.0173  0.1688
 9771TIP3   OH250727   5.399   4.218   5.005 -0.5678 -0.3926  0.2664
 9771TIP3    H150728   5.337   4.257   4.942 -0.7731  0.0205  0.7140
 9771TIP3    H250729   5.467   4.179   4.950 -1.7736 -1.8404 -0.2839
 9772TIP3   OH250730   1.187   3.892   3.246 -0.6112 -0.2375  0.2169
 9772TIP3    H150731   1.260   3.954   3.243  1.6273 -2.5789  1.8298
 9772TIP3    H250732   1.114   3.938   3.205  0.6719  3.6774  1.9031
 9773TIP3   OH250733   0.754   3.935  12.176 -0.0062  0.1832  0.0667
 9773TIP3    H150734   0.814   3.866  12.148 -0.3298 -0.3752  0.7066
 9773TIP3    H250735   0.668   3.893  12.179  0.0042  0.1978  1.8497
 9774TIP3   OH250736   3.266   4.875   4.401  0.4262  0.9821  0.0929
 9774TIP3    H150737   3.360   4.858   4.402  0.1839 -0.6958 -1.0057
 9774TIP3    H250738   3.251   4.918   4.317  0.2824  1.8122  0.5357
 9775TIP3   OH250739   6.349   6.176  14.129 -0.2031 -0.0727  0.3668
 9775TIP3    H150740   6.345   6.082  14.142  1.0682 -0.3568 -1.0428
 9775TIP3    H250741   6.356   6.187  14.034 -0.8511  1.4715  0.4588
 9776TIP3   OH250742   2.551   0.792  13.244  0.0068 -0.4575 -0.4234
 9776TIP3    H150743   2.480   0.841  13.204  0.1291  1.4432  1.4702
 9776TIP3    H250744   2.568   0.838  13.327  3.2083 -1.0176 -0.6353
 9777TIP3   OH250745   5.426   0.643   5.607  0.6321  0.1196 -0.2491
 9777TIP3    H150746   5.466   0.632   5.693  0.0436  0.8256  0.1205
 9777TIP3    H250747   5.401   0.554   5.581  0.5176 -0.0584  0.4547
 9778TIP3   OH250748   1.543   5.863   3.737 -0.2391  0.1568  0.2831
 9778TIP3    H150749   1.558   5.847   3.830 -0.6673 -0.0919  0.3127
 9778TIP3    H250750   1.484   5.939   3.736  0.3532  0.6239  0.1908
 9779TIP3   OH250751   0.841   0.234   3.061  0.0461  0.3121 -0.0186
 9779TIP3    H150752   0.876   0.185   2.986  0.9716 -0.2619  0.7619
 9779TIP3    H250753   0.827   0.322   3.028  0.9044  0.1884 -0.7476
 9780TIP3   OH250754   4.862   5.082  16.066  0.2989  0.0226  0.3285
 9780TIP3    H150755   4.811   5.162  16.073  1.0925  0.7370 -1.5204
 9780TIP3    H250756   4.953   5.110  16.080  0.4746 -0.7848  0.9282
 9781TIP3   OH250757   6.780   6.440  10.676  0.7481 -0.5664  0.9375
 9781TIP3    H150758   6.844   6.509  10.659  0.7365 -0.1316  2.5525
 9781TIP3    H250759   6.696   6.485  10.676  0.4639 -1.0374 -0.5703
 9782TIP3   OH250760   4.401   1.825   4.731 -0.5847 -0.7777  0.0366
 9782TIP3    H150761   4.455   1.799   4.806 -1.4851 -0.6541  0.7589
 9782TIP3    H250762   4.383   1.744   4.685  0.8231 -0.7259 -0.6584
 9783TIP3   OH250763   5.556   2.200   5.903  0.1804  0.2818 -0.0508
 9783TIP3    H150764   5.504   2.219   5.825  0.8858  0.9553 -0.3770
 9783TIP3    H250765   5.609   2.278   5.916  1.2414 -0.4467  0.1549
 9784TIP3   OH250766   5.073   2.998  16.332 -0.1540 -0.5343 -0.3221
 9784TIP3    H150767   5.070   3.050  16.411  0.2967 -1.2469  0.1851
 9784TIP3    H250768   4.982   2.979  16.311 -0.3250 -3.7610  2.3890
 9785TIP3   OH250769   5.030   6.330  11.248  0.3143  0.4678  0.1383
 9785TIP3    H150770   5.034   6.398  11.316  0.4707  0.5468  0.0533
 9785TIP3    H250771   4.939   6.330  11.219  0.5400  1.4704 -0.6812
 9786TIP3   OH250772   3.996   4.713   2.703 -0.6043  0.1471  0.3767
 9786TIP3    H150773   3.960   4.632   2.668  0.5298 -0.2394  0.0499
 9786TIP3    H250774   3.945   4.783   2.661 -1.1593 -0.3755  0.1708
 9787TIP3   OH250775   3.480   0.052  13.855  0.0579 -0.3594 -0.1728
 9787TIP3    H150776   3.441  -0.024  13.812  0.9037 -1.2344  0.5635
 9787TIP3    H250777   3.532   0.094  13.787  0.1283 -0.8245 -0.4098
 9788TIP3   OH250778   0.601   3.748   5.658 -0.1862  0.2060  0.0372
 9788TIP3    H150779   0.614   3.834   5.618 -0.0819 -0.1830 -0.7910
 9788TIP3    H250780   0.685   3.729   5.699  0.0057  0.2152 -0.3453
 9789TIP3   OH250781   2.825   3.970  14.751 -0.1909  0.1566 -0.5688
 9789TIP3    H150782   2.773   3.892  14.734 -1.7541  0.7127  1.2785
 9789TIP3    H250783   2.913   3.937  14.772 -0.5485 -1.0102 -0.8313
 9790TIP3   OH250784   1.875   0.140   1.400 -0.4953  0.0225 -0.3105
 9790TIP3    H150785   1.908   0.058   1.436 -3.8153 -1.5256 -0.4109
 9790TIP3    H250786   1.893   0.134   1.306 -0.7559 -0.5988 -0.3213
 9791TIP3   OH250787   6.786   3.597   4.956 -0.3812 -0.6874 -0.2687
 9791TIP3    H150788   6.827   3.683   4.965  0.5548 -0.7833 -2.7208
 9791TIP3    H250789   6.697   3.609   4.987  0.5848  0.3161  2.3986
 9792TIP3   OH250790   3.564   3.530  16.557 -0.1178 -0.2243 -0.5872
 9792TIP3    H150791   3.511   3.586  16.500 -0.1426 -0.1636 -0.5056
 9792TIP3    H250792   3.517   3.529  16.640 -0.1897 -0.4840 -0.6319
 9793TIP3   OH250793   4.662   4.565   1.647  0.6511 -1.1576 -1.1687
 9793TIP3    H150794   4.682   4.473   1.663  0.3731 -0.8591  1.3936
 9793TIP3    H250795   4.626   4.596   1.730 -0.0185  1.0791 -2.2160
 9794TIP3   OH250796   6.005   1.866  12.127 -0.1336 -0.0043 -0.5886
 9794TIP3    H150797   5.975   1.937  12.184  0.1341 -0.6109  0.3301
 9794TIP3    H250798   6.011   1.790  12.185 -1.1169 -0.9601 -1.7056
 9795TIP3   OH250799   2.121   3.918  15.963  0.1978 -0.3181 -0.0622
 9795TIP3    H150800   2.182   3.848  15.983 -0.1961 -0.9081 -0.8386
 9795TIP3    H250801   2.083   3.893  15.879 -2.2992 -0.8229  1.1236
 9796TIP3   OH250802   6.301   5.879   2.980  0.1655 -0.7618 -0.2594
 9796TIP3    H150803   6.254   5.926   2.910  1.6057 -1.0226 -1.4399
 9796TIP3    H250804   6.283   5.787   2.963 -1.3104 -0.7523  1.0821
 9797TIP3   OH250805   0.690   2.574   2.591  0.2836 -0.4575 -0.1763
 9797TIP3    H150806   0.759   2.571   2.658  2.2652 -1.1581 -2.1376
 9797TIP3    H250807   0.658   2.484   2.586 -1.4483  0.0217  1.3077
 9798TIP3   OH250808   5.654   4.626   1.666  0.0038  0.0656  0.1303
 9798TIP3    H150809   5.559   4.633   1.674  0.1048  0.2411  1.4742
 9798TIP3    H250810   5.677   4.685   1.595 -0.8012  0.7910  0.4604
 9799TIP3   OH250811   4.469   3.839  14.088 -0.2590 -0.1009 -0.1050
 9799TIP3    H150812   4.516   3.898  14.147  1.2533 -0.1053 -1.2496
 9799TIP3    H250813   4.403   3.895  14.046 -0.0371  0.3524  0.1461
 9800TIP3   OH250814   0.759   5.291   0.689 -0.2079  0.2980 -0.2386
 9800TIP3    H150815   0.827   5.255   0.746  0.1228  1.8752  0.4301
 9800TIP3    H250816   0.733   5.218   0.633 -0.1097 -1.1449  1.5112
 9801TIP3   OH250817   4.616   1.941  16.280 -0.2768 -0.2824 -0.0262
 9801TIP3    H150818   4.704   1.933  16.243 -0.1377  0.5167  0.1164
 9801TIP3    H250819   4.616   1.879  16.353  1.1491  1.6575  1.7555
 9802TIP3   OH250820   1.637   0.237  12.904 -0.4486  0.1319 -0.1077
 9802TIP3    H150821   1.631   0.333  12.899  0.9362  0.2750  0.5703
 9802TIP3    H250822   1.646   0.209  12.813  2.2414  0.9331 -0.1876
 9803TIP3   OH250823   3.428   0.790  15.202  0.4873  0.6004  0.3356
 9803TIP3    H150824   3.420   0.788  15.106  0.8524  1.7258  0.2648
 9803TIP3    H250825   3.414   0.699  15.229 -0.0523  0.3420 -0.7474
 9804TIP3   OH250826   4.980   4.758   3.471 -0.1354  0.3534 -0.4087
 9804TIP3    H150827   4.929   4.839   3.462 -1.3251 -0.4639 -1.3656
 9804TIP3    H250828   5.052   4.768   3.409 -1.1212  0.0946 -1.6435
 9805TIP3   OH250829   6.069   4.905  15.611  0.5732  0.3079 -0.1219
 9805TIP3    H150830   6.018   4.880  15.688  1.2114  0.5182  0.3818
 9805TIP3    H250831   6.156   4.870  15.628  1.1864  1.8573  0.0702
 9806TIP3   OH250832   0.022   4.199  15.149 -0.3162  0.1277  0.0513
 9806TIP3    H150833   0.033   4.279  15.200 -1.8038  0.1783  0.3490
 9806TIP3    H250834  -0.068   4.172  15.167  0.3132 -1.9100  0.3855
 9807TIP3   OH250835   0.357   1.610  14.596 -0.5012  0.0899 -0.8952
 9807TIP3    H150836   0.398   1.690  14.628 -1.7651  0.5980 -0.4962
 9807TIP3    H250837   0.430   1.550  14.583  0.2992  0.6676  0.6283
 9808TIP3   OH250838   3.703   0.778   0.640 -0.4509  0.5233 -0.0312
 9808TIP3    H150839   3.770   0.729   0.593  0.2662 -2.2723  3.4712
 9808TIP3    H250840   3.746   0.861   0.662  0.8540 -0.0536 -0.2904
 9809TIP3   OH250841   0.805   1.251  12.125 -0.1144  0.0816  0.6382
 9809TIP3    H150842   0.737   1.290  12.071  1.1061  0.0279 -1.0209
 9809TIP3    H250843   0.764   1.175  12.166 -0.3461 -1.7468 -2.6526
 9810TIP3   OH250844   0.873   2.100   6.498  0.1013 -0.1901 -0.0243
 9810TIP3    H150845   0.796   2.061   6.457 -1.7631  2.5821  0.5161
 9810TIP3    H250846   0.846   2.189   6.519  3.6131  1.0449 -0.0831
 9811TIP3   OH250847   4.060   5.524   4.047  0.3774  0.6315 -0.1585
 9811TIP3    H150848   4.044   5.432   4.068 -2.8225  1.2083  0.3631
 9811TIP3    H250849   4.105   5.521   3.962  0.0858 -1.3907 -0.3037
 9812TIP3   OH250850   1.421   0.274   3.060 -0.2987 -0.0390  0.4709
 9812TIP3    H150851   1.488   0.207   3.049 -0.1406  0.1363  0.3551
 9812TIP3    H250852   1.338   0.226   3.059 -0.1187 -0.4067  1.9221
 9813TIP3   OH250853   2.043   3.397   0.557  0.2465  0.3108 -0.1962
 9813TIP3    H150854   2.014   3.376   0.646 -0.3175  2.7788  0.2722
 9813TIP3    H250855   1.965   3.389   0.503  0.2269  0.3648 -0.1759
 9814TIP3   OH250856   2.218   2.606  12.317  0.3452 -0.4077  0.3940
 9814TIP3    H150857   2.129   2.638  12.304  0.5445  0.2064  0.4976
 9814TIP3    H250858   2.274   2.670  12.274  0.7506 -0.6796  0.5031
 9815TIP3   OH250859   5.431   5.771  13.199  0.1393 -0.1647 -0.0674
 9815TIP3    H150860   5.438   5.745  13.291  0.9594 -0.6770 -0.2616
 9815TIP3    H250861   5.431   5.867  13.200  1.8543 -0.1515  0.3627
 9816TIP3   OH250862   3.095   5.208   3.034 -0.5417  0.0696  0.3506
 9816TIP3    H150863   3.114   5.125   3.078  2.0167  0.2284 -0.3138
 9816TIP3    H250864   3.176   5.258   3.040 -1.5921  2.0062 -0.4612
 9817TIP3   OH250865   1.392   1.319  14.141 -0.0718 -0.1154  0.1112
 9817TIP3    H150866   1.384   1.402  14.188  3.7877 -0.6069  2.0817
 9817TIP3    H250867   1.429   1.342  14.056 -1.9035  0.3409 -0.6010
 9818TIP3   OH250868   2.913   6.061   5.802  0.3574 -0.0897 -0.4783
 9818TIP3    H150869   2.967   6.141   5.799 -0.4925  0.5353  0.3650
 9818TIP3    H250870   2.955   6.007   5.869 -0.3352  0.6322  0.5783
 9819TIP3   OH250871   5.532   2.798   4.901  0.3755 -0.4594  0.1059
 9819TIP3    H150872   5.623   2.829   4.896  0.3301 -0.4267 -0.5594
 9819TIP3    H250873   5.517   2.753   4.818 -0.4794  0.2601 -0.1473
 9820TIP3   OH250874   4.487   3.089  12.177 -0.7016  0.0965  0.3339
 9820TIP3    H150875   4.445   3.124  12.255  0.2028 -0.3527  1.0359
 9820TIP3    H250876   4.415   3.050  12.127 -1.3429  0.7113  0.7491
 9821TIP3   OH250877   0.190   2.964  14.750 -0.2356 -0.4689  0.3524
 9821TIP3    H150878   0.127   2.976  14.821 -0.5341 -0.2178  0.0533
 9821TIP3    H250879   0.215   2.872  14.755 -0.7479 -0.6123  0.3803
 9822TIP3   OH250880   0.090   0.096   0.044 -0.3865 -0.2076  0.3896
 9822TIP3    H150881   0.159   0.102  -0.022 -0.8748  1.5942 -0.0205
 9822TIP3    H250882   0.021   0.046   0.003 -0.4098  0.3212 -0.2303
 9823TIP3   OH250883   0.059   2.008   4.780 -0.3816 -0.2136 -0.3181
 9823TIP3    H150884   0.013   2.020   4.697 -2.7923  0.1668  0.9835
 9823TIP3    H250885   0.040   1.917   4.804 -1.3064  0.2372  0.7001
 9824TIP3   OH250886   6.616   3.496  15.040  0.1185  0.2111  0.4381
 9824TIP3    H150887   6.654   3.540  15.116  0.4176  0.8781 -0.0898
 9824TIP3    H250888   6.624   3.403  15.061  0.5369  0.3791  1.0623
 9825TIP3   OH250889   1.749   6.435  16.586  0.2422 -0.0368  0.1773
 9825TIP3    H150890   1.767   6.398  16.500  1.1231  0.7307  0.0211
 9825TIP3    H250891   1.821   6.495  16.603 -0.0910  0.0817  1.3098
 9826TIP3   OH250892   0.700   5.202   3.553  0.5947  0.4382 -0.2447
 9826TIP3    H150893   0.678   5.240   3.638 -1.0918 -0.9473 -0.0105
 9826TIP3    H250894   0.712   5.278   3.495  0.0882  1.3629  0.8323
 9827TIP3   OH250895   4.648   4.448   4.683  0.5203 -0.5545  0.2499
 9827TIP3    H150896   4.733   4.466   4.725  0.2600 -2.9224  2.0072
 9827TIP3    H250897   4.588   4.510   4.725  0.8233 -0.9448  1.3097
 9828TIP3   OH250898   1.982   5.908  14.382 -0.2067  0.0213  0.4028
 9828TIP3    H150899   1.934   5.826  14.392 -0.4053  0.1114  0.1904
 9828TIP3    H250900   2.063   5.882  14.337  0.7363 -0.3997  2.2352
 9829TIP3   OH250901   4.576   2.201  15.425  0.1443 -0.4183  0.0997
 9829TIP3    H150902   4.568   2.296  15.421  1.0381 -0.1166  2.9056
 9829TIP3    H250903   4.492   2.168  15.393 -0.6913  1.3591  0.3270
 9830TIP3   OH250904   4.509   1.987  12.932  0.1869 -0.1597  0.5678
 9830TIP3    H150905   4.590   2.029  12.962  0.4375  2.1219 -2.7906
 9830TIP3    H250906   4.443   2.056  12.935 -1.4516 -1.6793  2.1346
 9831TIP3   OH250907   3.288   0.057   5.103 -0.1692  0.1577  0.0055
 9831TIP3    H150908   3.272   0.004   5.181 -1.0972  0.4256  0.0111
 9831TIP3    H250909   3.362   0.113   5.127 -0.4262  0.2175  0.6840
 9832TIP3   OH250910   4.416   3.168   5.185  0.2316 -0.2925  0.4251
 9832TIP3    H150911   4.491   3.118   5.152  0.3789  1.0549 -1.4512
 9832TIP3    H250912   4.444   3.203   5.269  0.9775 -1.3870  0.6492
 9833TIP3   OH250913   1.664   0.420   2.073 -0.3071  0.0953  0.1538
 9833TIP3    H150914   1.653   0.513   2.051  1.9988  0.2151 -0.7821
 9833TIP3    H250915   1.611   0.374   2.008 -0.5354  0.7356 -0.1230
 9834TIP3   OH250916   4.119   6.073  16.026 -0.3259  0.6213  0.6564
 9834TIP3    H150917   4.161   6.005  15.972 -2.1077  2.0978 -2.9400
 9834TIP3    H250918   4.190   6.106  16.082  1.3969 -1.8454  0.1079
 9835TIP3   OH250919   6.745   6.594  15.119  0.6718 -0.5251 -0.2284
 9835TIP3    H150920   6.790   6.516  15.153  2.7496  0.5766 -0.3089
 9835TIP3    H250921   6.792   6.668  15.158 -2.7048  0.7887  1.7291
 9836TIP3   OH250922   3.357   3.976  14.914 -0.3897  0.4327 -0.1771
 9836TIP3    H150923   3.291   4.042  14.892 -1.9779 -0.4667  1.5851
 9836TIP3    H250924   3.310   3.912  14.967  1.7547 -0.6413  0.5487
 9837TIP3   OH250925   4.028   2.634  14.224  0.0004  0.2157  0.1017
 9837TIP3    H150926   4.013   2.716  14.176 -0.8572 -0.5735 -1.0426
 9837TIP3    H250927   3.945   2.587  14.218  1.0314 -1.5855 -0.9866
 9838TIP3   OH250928   5.957   4.741   1.445  0.4375 -0.3147 -0.2922
 9838TIP3    H150929   5.894   4.792   1.394 -0.8397 -2.3565 -0.9096
 9838TIP3    H250930   5.960   4.656   1.401  2.0208 -0.9825  0.9956
 9839TIP3   OH250931   3.094   1.559  12.849  0.0556 -0.1895 -0.1642
 9839TIP3    H150932   3.102   1.595  12.761 -0.9213 -1.3839 -0.7867
 9839TIP3    H250933   3.114   1.466  12.839  0.1790 -0.3002  0.9232
 9840TIP3   OH250934   3.992   2.581   5.830 -0.3681 -0.4432 -0.0421
 9840TIP3    H150935   3.954   2.669   5.830 -1.6164 -0.9586  1.0556
 9840TIP3    H250936   3.977   2.548   5.919 -1.5705 -2.4697 -0.9390
 9841TIP3   OH250937   5.078   4.588  11.029 -0.3687 -0.2276  0.1856
 9841TIP3    H150938   5.122   4.518  10.980  0.2765  0.6804 -0.5471
 9841TIP3    H250939   5.108   4.669  10.988 -2.1513  0.4523  0.1388
 9842TIP3   OH250940   4.901   3.921  16.674  0.1738  0.1510 -0.3159
 9842TIP3    H150941   4.895   4.014  16.695  2.1001  0.4828 -1.0045
 9842TIP3    H250942   4.957   3.918  16.596  0.2080 -1.5835 -0.2553
 9843TIP3   OH250943   3.750   6.149   2.624 -0.4000  0.4284 -0.4482
 9843TIP3    H150944   3.797   6.228   2.652  0.1529 -0.2157  0.5121
 9843TIP3    H250945   3.746   6.156   2.529 -0.6481  1.7661 -0.3504
 9844TIP3   OH250946   5.712   5.112  16.087  0.5557 -0.3890 -0.3871
 9844TIP3    H150947   5.795   5.160  16.087  1.0958 -1.3028 -0.5722
 9844TIP3    H250948   5.733   5.028  16.045 -0.4326 -0.6830 -0.3130
 9845TIP3   OH250949   3.777   3.124   0.699  0.0106  0.1582 -0.0258
 9845TIP3    H150950   3.841   3.123   0.627 -0.8050  2.4054 -0.8912
 9845TIP3    H250951   3.692   3.125   0.655 -0.6541 -1.8038  1.0928
 9846TIP3   OH250952   4.305   0.514  11.417  0.0234  0.6048  0.0948
 9846TIP3    H150953   4.298   0.429  11.459  0.1494  0.7847  0.4823
 9846TIP3    H250954   4.220   0.526  11.374 -0.3547  0.7066  0.8483
 9847TIP3   OH250955   4.432   0.941   5.645 -0.5841 -0.4726 -0.2274
 9847TIP3    H150956   4.496   0.902   5.704 -0.0913 -0.2263 -0.5892
 9847TIP3    H250957   4.402   0.868   5.590  1.1495 -0.1815 -1.6425
 9848TIP3   OH250958   1.691   1.639   1.704  0.5022 -0.0753  0.3327
 9848TIP3    H150959   1.745   1.568   1.740 -0.4647 -1.3678 -0.6962
 9848TIP3    H250960   1.687   1.704   1.774  1.6082 -0.9215  1.2112
 9849TIP3   OH250961   6.109   1.073  10.575 -0.1196 -0.4564 -0.2615
 9849TIP3    H150962   6.182   1.035  10.526 -0.6891 -0.3812 -1.2020
 9849TIP3    H250963   6.042   1.003  10.576 -0.4858 -0.1134 -0.4528
 9850TIP3   OH250964   5.012   0.293  11.814 -0.5229  0.2150  0.4412
 9850TIP3    H150965   5.098   0.303  11.771  0.3712  1.0153  2.3214
 9850TIP3    H250966   4.954   0.349  11.763  0.2962  0.4308 -0.2866
 9851TIP3   OH250967   3.952   2.829   2.210  0.3915 -0.0722 -0.0223
 9851TIP3    H150968   3.921   2.784   2.132 -0.7860 -0.7076  0.7774
 9851TIP3    H250969   4.045   2.842   2.195  0.6881 -2.3537 -0.5215
 9852TIP3   OH250970   1.982   5.290  15.852  0.2083  0.5120  0.2369
 9852TIP3    H150971   1.910   5.347  15.825 -0.9378  0.1531  2.2991
 9852TIP3    H250972   2.036   5.281  15.774 -1.2849  1.8515 -1.0246
 9853TIP3   OH250973   3.245   3.933   2.061  0.2588  0.1024 -0.5967
 9853TIP3    H150974   3.267   3.956   2.151 -0.0672  2.2767 -1.0091
 9853TIP3    H250975   3.177   3.866   2.068 -0.9356  1.4150  0.8027
 9854TIP3   OH250976   0.367   6.271   3.136  0.0720 -0.0954 -0.2634
 9854TIP3    H150977   0.392   6.360   3.163  1.5395 -0.3115 -0.7844
 9854TIP3    H250978   0.447   6.220   3.149 -0.5721 -1.2079 -0.5875
 9855TIP3   OH250979   6.646   0.365   2.496 -0.5516 -0.4765 -0.2839
 9855TIP3    H150980   6.714   0.310   2.535 -1.4443  0.4813  2.9542
 9855TIP3    H250981   6.677   0.455   2.511 -1.6925 -0.0566 -0.3192
 9856TIP3   OH250982   6.412   2.356   5.007  1.0838 -0.3537 -0.0309
 9856TIP3    H150983   6.475   2.420   4.974 -0.8339  1.5656 -0.1354
 9856TIP3    H250984   6.465   2.278   5.025  3.1387  0.4515 -2.0915
 9857TIP3   OH250985   0.067   2.115  15.683  0.5331  0.3744  0.7801
 9857TIP3    H150986   0.162   2.107  15.687  0.6646 -0.1074 -1.8650
 9857TIP3    H250987   0.051   2.209  15.693  1.4446  0.6906 -0.4896
 9858TIP3   OH250988   4.661   1.535   0.799 -0.1453  0.2261 -0.3702
 9858TIP3    H150989   4.590   1.481   0.833 -0.0575 -0.1954 -0.8304
 9858TIP3    H250990   4.741   1.490   0.828 -0.0701  0.4781 -0.1895
 9859TIP3   OH250991   1.584   6.531   1.955 -0.0697 -0.1825  0.0327
 9859TIP3    H150992   1.623   6.475   1.888 -2.5021  0.2138 -1.8415
 9859TIP3    H250993   1.638   6.610   1.955  0.9985 -0.8885 -0.1410
 9860TIP3   OH250994   4.203   1.946   2.095 -0.7337  0.0386 -0.0509
 9860TIP3    H150995   4.161   1.993   2.167  0.0258  0.3932  0.1689
 9860TIP3    H250996   4.166   1.858   2.099 -0.0181 -0.2273  1.3692
 9861TIP3   OH250997   5.573   2.215  12.339  0.3056 -0.7718 -0.2121
 9861TIP3    H150998   5.601   2.265  12.262 -0.0991  0.7761  0.6044
 9861TIP3    H250999   5.507   2.270  12.381  1.5562 -0.8559  2.0488
 9862TIP3   OH251000   0.183   1.900   6.078  0.3120 -0.3938 -0.1527
 9862TIP3    H151001   0.189   1.951   5.998 -0.1735 -0.7752 -0.4353
 9862TIP3    H251002   0.271   1.903   6.116  0.8405 -1.1800 -1.2867
 9863TIP3   OH251003   6.216   0.879  12.874 -0.0969  0.5422 -0.4340
 9863TIP3    H151004   6.238   0.972  12.871  0.2190  0.5625  1.1228
 9863TIP3    H251005   6.214   0.859  12.968  1.0056 -1.2763 -0.7435
 9864TIP3   OH251006   3.326   6.493  12.241  0.2530 -0.6696 -0.4680
 9864TIP3    H151007   3.278   6.511  12.160  0.6024  0.0912 -0.5089
 9864TIP3    H251008   3.326   6.397  12.247 -0.3658 -0.7115 -1.0084
 9865TIP3   OH251009   1.602   5.351  16.995 -0.4867  0.1758  0.9288
 9865TIP3    H151010   1.589   5.317  16.906  2.8976 -0.6647  0.6172
 9865TIP3    H251011   1.526   5.320  17.044 -1.6273 -0.7640 -1.2962
 9866TIP3   OH251012   6.541   4.373  12.171  0.2973 -0.6547  0.3882
 9866TIP3    H151013   6.462   4.415  12.206  0.3079 -0.3624  0.0704
 9866TIP3    H251014   6.599   4.364  12.246  0.2083 -0.2955  0.5006
 9867TIP3   OH251015   5.247   4.734   1.604  0.0573 -0.2592  0.3337
 9867TIP3    H151016   5.254   4.765   1.694 -0.8983 -0.7994  0.6113
 9867TIP3    H251017   5.161   4.693   1.599  0.3080 -0.7127 -0.6822
 9868TIP3   OH251018   3.816   6.220  13.372  0.3859  0.2711  0.0063
 9868TIP3    H151019   3.781   6.252  13.455  0.4946 -0.3539  0.2978
 9868TIP3    H251020   3.882   6.284  13.347  0.4063  0.4218  0.4428
 9869TIP3   OH251021   2.625   1.016   4.530 -0.1940 -0.3206 -0.5405
 9869TIP3    H151022   2.566   0.963   4.583 -1.0324 -0.0265 -1.1521
 9869TIP3    H251023   2.712   0.981   4.547 -0.3641  0.1526  1.4793
 9870TIP3   OH251024   5.539   5.157   2.280 -0.1021 -0.2554 -0.6130
 9870TIP3    H151025   5.449   5.177   2.253  0.1255 -1.3681 -2.3734
 9870TIP3    H251026   5.593   5.218   2.229  0.2252 -0.8963 -1.0434
 9871TIP3   OH251027   1.939   3.741  14.146  0.2016  0.0450  0.7226
 9871TIP3    H151028   1.937   3.749  14.241 -0.1963 -0.8058  0.7999
 9871TIP3    H251029   1.848   3.747  14.119  0.2007 -0.8010  0.5097
 9872TIP3   OH251030   1.881   0.722   2.940 -0.1222  0.1970 -0.4367
 9872TIP3    H151031   1.896   0.642   2.990  1.1402  0.2935 -0.6317
 9872TIP3    H251032   1.960   0.734   2.888  0.7230  2.7797  1.2355
 9873TIP3   OH251033   5.295   2.566   5.942 -0.0533 -0.2372 -0.6509
 9873TIP3    H151034   5.355   2.525   6.004 -0.3573 -0.5736 -0.5731
 9873TIP3    H251035   5.351   2.615   5.882  0.2480  0.0223 -0.1575
 9874TIP3   OH251036   0.295   1.580   6.163 -0.0384 -0.1423  0.3848
 9874TIP3    H151037   0.373   1.532   6.189  0.4718 -0.7778 -2.0609
 9874TIP3    H251038   0.326   1.669   6.145 -0.1659 -0.0072  0.8274
 9875TIP3   OH251039   5.771   1.643   3.344  0.5712 -0.1467  0.3869
 9875TIP3    H151040   5.862   1.674   3.350  0.1067  1.2398  0.7737
 9875TIP3    H251041   5.778   1.548   3.348  2.1536 -0.1844 -1.6074
 9876TIP3   OH251042   1.510   1.176   2.289 -0.0893 -0.7572  0.0671
 9876TIP3    H151043   1.455   1.250   2.315 -0.6152 -1.3769  0.8038
 9876TIP3    H251044   1.523   1.127   2.370 -0.0374 -1.6472 -0.4667
 9877TIP3   OH251045   4.084   6.644  12.490  0.3987  0.4809 -0.0467
 9877TIP3    H151046   3.999   6.683  12.471  0.3379 -0.0659 -0.9019
 9877TIP3    H251047   4.064   6.555  12.518  0.7252  0.1476 -0.8579
 9878TIP3   OH251048   0.059   2.218  16.563 -0.6740  0.4232  0.1708
 9878TIP3    H151049   0.152   2.227  16.585 -0.7341 -0.5362  0.9097
 9878TIP3    H251050   0.058   2.171  16.479 -0.4863 -0.2573  0.5406
 9879TIP3   OH251051   4.881   5.705   0.430  0.2204 -0.1792  0.3556
 9879TIP3    H151052   4.902   5.759   0.353  0.3776  0.8257  1.0783
 9879TIP3    H251053   4.950   5.639   0.431  0.0448 -0.3908 -0.5383
 9880TIP3   OH251054   4.684   4.055  13.219  0.3656  0.0403 -0.2387
 9880TIP3    H151055   4.765   4.004  13.213  0.6140  0.5444 -1.3321
 9880TIP3    H251056   4.614   3.990  13.212  0.6782 -0.2309 -0.9623
 9881TIP3   OH251057   5.512   3.264   2.561 -0.1719 -0.3658 -0.1888
 9881TIP3    H151058   5.505   3.360   2.563 -1.3406 -0.3933  3.0468
 9881TIP3    H251059   5.606   3.246   2.556  0.1110  0.9554  0.0778
 9882TIP3   OH251060   3.013   4.892   4.482  0.2535 -0.0841  0.5430
 9882TIP3    H151061   3.003   4.986   4.497  0.8869 -0.1851  1.7857
 9882TIP3    H251062   3.103   4.882   4.452  0.4523 -0.3628  1.2106
 9883TIP3   OH251063   2.861   1.334  13.938 -0.5508  0.0747 -0.2467
 9883TIP3    H151064   2.893   1.308  14.025  0.6288 -2.3855 -1.3069
 9883TIP3    H251065   2.938   1.365  13.891 -0.6517 -1.0059 -1.1827
 9884TIP3   OH251066   6.612   3.491  12.778  0.5643 -0.3985  0.1529
 9884TIP3    H151067   6.629   3.585  12.768 -2.9194  0.4131  0.6788
 9884TIP3    H251068   6.612   3.476  12.872  0.4218 -0.7798  0.0966
 9885TIP3   OH251069   5.924   1.855   5.168 -0.1418  0.4500 -0.2019
 9885TIP3    H151070   6.017   1.845   5.146  0.2576 -0.6982  1.7609
 9885TIP3    H251071   5.877   1.822   5.092  1.0097  1.7492 -1.5448
 9886TIP3   OH251072   6.130   6.318  16.226  0.4402  0.1663 -0.2887
 9886TIP3    H151073   6.095   6.231  16.204  0.6638 -0.0419  0.1735
 9886TIP3    H251074   6.155   6.356  16.142 -2.0292  0.8260 -0.8074
 9887TIP3   OH251075   0.342   3.877  15.048 -0.1582 -0.9160  0.2588
 9887TIP3    H151076   0.273   3.815  15.026  0.0459 -0.7041 -1.0142
 9887TIP3    H251077   0.412   3.859  14.986 -0.6971  1.5729 -1.2285
 9888TIP3   OH251078   2.539   3.610  14.594 -1.0046 -0.1038  0.5289
 9888TIP3    H151079   2.455   3.563  14.590 -0.0492 -1.9115  0.3000
 9888TIP3    H251080   2.596   3.551  14.644  0.7529 -0.0096 -1.2591
 9889TIP3   OH251081   1.190   3.453   2.485  0.6654  0.7273 -0.5833
 9889TIP3    H151082   1.094   3.454   2.481  0.6837  0.6560 -1.2411
 9889TIP3    H251083   1.212   3.520   2.549  0.1573  0.2011  0.1684
 9890TIP3   OH251084   4.920   0.638   4.156 -0.3079 -0.1265  0.2173
 9890TIP3    H151085   4.974   0.611   4.082 -0.7859  1.7327 -0.8693
 9890TIP3    H251086   4.982   0.681   4.216 -0.4132  1.4209 -0.7262
 9891TIP3   OH251087   5.895   0.189   3.050 -0.2738  0.2947  0.2527
 9891TIP3    H151088   5.986   0.187   3.080 -0.1014 -0.5964 -0.2943
 9891TIP3    H251089   5.846   0.143   3.118 -0.3553  0.9659  0.6543
 9892TIP3   OH251090   6.704   5.574   3.129 -0.6863 -0.0485 -0.0051
 9892TIP3    H151091   6.638   5.518   3.088  0.3282 -1.0648 -0.3171
 9892TIP3    H251092   6.664   5.602   3.212 -0.9249 -1.9333  0.5659
 9893TIP3   OH251093   3.912   6.488   2.931 -0.0233 -0.2588 -0.4427
 9893TIP3    H151094   4.007   6.487   2.941  0.1200  2.3126 -0.8085
 9893TIP3    H251095   3.879   6.451   3.013  1.2913  0.9877  0.7116
 9894TIP3   OH251096   4.554   1.337  15.520 -0.2214  0.1308 -0.0437
 9894TIP3    H151097   4.540   1.284  15.599 -0.3158  0.9303  0.4913
 9894TIP3    H251098   4.585   1.275  15.455 -0.4720 -0.6093  0.5238
 9895TIP3   OH251099   2.515   6.627   1.018  0.1744 -0.1563  0.1146
 9895TIP3    H151100   2.508   6.534   1.000  1.0575 -0.0057 -1.1433
 9895TIP3    H251101   2.556   6.664   0.940 -0.9076  1.4232  0.2343
 9896TIP3   OH251102   2.007   4.659  15.097  0.0255  0.1407 -1.0944
 9896TIP3    H151103   2.078   4.718  15.073  1.0085 -0.7409 -0.4153
 9896TIP3    H251104   2.047   4.572  15.097 -0.4256 -0.1544  1.5486
 9897TIP3   OH251105   0.335   6.099   2.033 -0.1487  0.5522  0.1283
 9897TIP3    H151106   0.263   6.134   2.086 -0.7170 -2.8430  1.8747
 9897TIP3    H251107   0.413   6.143   2.067 -0.9893  1.6464  0.7161
 9898TIP3   OH251108   2.184   0.483  17.145 -0.0573  0.0062 -0.0770
 9898TIP3    H151109   2.277   0.498  17.163  0.7988 -0.8477 -3.2300
 9898TIP3    H251110   2.151   0.568  17.115  0.6962 -0.4769 -2.4398
 9899TIP3   OH251111   0.951   0.230   5.485 -0.0324 -0.4528 -0.2639
 9899TIP3    H151112   0.880   0.240   5.549  1.1813  0.4569  0.9848
 9899TIP3    H251113   0.917   0.273   5.406 -0.5532  0.8053  0.5961
 9900TIP3   OH251114   4.366   5.191  13.891 -0.3928  0.4846  0.1237
 9900TIP3    H151115   4.459   5.170  13.880 -0.4065 -1.0656  2.3132
 9900TIP3    H251116   4.328   5.175  13.805  1.4347  1.8581 -1.0292
 9901TIP3   OH251117   5.390   5.337  16.366  0.3055 -0.0515 -0.0894
 9901TIP3    H151118   5.408   5.416  16.315  1.5489  0.0783  0.5117
 9901TIP3    H251119   5.369   5.370  16.453  0.6147 -0.3664  0.1055
 9902TIP3   OH251120   3.888   0.140   4.339  0.2157 -0.1560  0.1130
 9902TIP3    H151121   3.888   0.053   4.300  0.3769 -0.3753  0.5970
 9902TIP3    H251122   3.910   0.126   4.431  0.6142  0.4303  0.1181
 9903TIP3   OH251123   0.317   0.987   4.258  0.2781 -0.2483 -0.0103
 9903TIP3    H151124   0.256   1.029   4.198 -0.3984 -1.2131 -0.0114
 9903TIP3    H251125   0.384   1.054   4.274 -0.0663  0.3631 -1.0374
 9904TIP3   OH251126   1.070   6.425  15.825  0.4632  0.4916  0.4364
 9904TIP3    H151127   1.018   6.480  15.766  0.3995 -0.3571 -0.3259
 9904TIP3    H251128   1.120   6.487  15.878 -1.3933  1.3587  1.2787
 9905TIP3   OH251129   4.398   5.853  16.478 -0.3345  0.8419  0.0258
 9905TIP3    H151130   4.447   5.775  16.453  0.5171  1.7622 -1.3226
 9905TIP3    H251131   4.317   5.848  16.427 -1.1402 -0.0518  1.3256
 9906TIP3   OH251132   4.706   3.769  16.417  0.0529  0.4223 -0.1213
 9906TIP3    H151133   4.772   3.706  16.444  0.2102  1.0894  1.1357
 9906TIP3    H251134   4.623   3.721  16.423  0.1694  0.3227  0.8206
 9907TIP3   OH251135   6.602   6.245   2.995  0.1444  0.6658 -0.5144
 9907TIP3    H151136   6.680   6.200   2.963  1.0399  1.5655  0.3364
 9907TIP3    H251137   6.529   6.188   2.970  1.3106 -2.0193  1.7940
 9908TIP3   OH251138   2.928   4.386  15.678  0.0496 -0.5475 -0.2989
 9908TIP3    H151139   2.978   4.306  15.690  0.9623 -0.0064 -0.3766
 9908TIP3    H251140   2.942   4.436  15.759  0.7958  0.2067 -0.8657
 9909TIP3   OH251141   2.628   5.543  12.598 -0.3310 -0.1374  0.1656
 9909TIP3    H151142   2.670   5.619  12.637 -0.3104 -0.4891  0.8510
 9909TIP3    H251143   2.544   5.536  12.645 -1.0797  0.4362 -1.0345
 9910TIP3   OH251144   6.321   0.971   5.127  0.3028  0.0308 -0.1191
 9910TIP3    H151145   6.349   0.887   5.091 -0.5712 -0.7439  0.9171
 9910TIP3    H251146   6.314   0.955   5.221  1.3104  1.6232  0.2628
 9911TIP3   OH251147   3.865   1.300   4.074 -0.2558  0.7948 -0.5896
 9911TIP3    H151148   3.793   1.340   4.026 -1.1646 -0.6889 -0.5293
 9911TIP3    H251149   3.864   1.344   4.159 -1.0786  0.8144 -0.6007
 9912TIP3   OH251150   0.331   4.652  12.417 -0.3241  0.1703  0.0576
 9912TIP3    H151151   0.297   4.637  12.505 -0.4842  1.0971  0.1653
 9912TIP3    H251152   0.343   4.746  12.411 -0.6951  0.1709 -1.0518
 9913TIP3   OH251153   6.057   4.372   4.260  0.0640 -0.2331 -0.2598
 9913TIP3    H151154   6.106   4.454   4.261 -1.0135  0.4452 -1.0142
 9913TIP3    H251155   6.021   4.367   4.171  0.8940 -2.0092 -0.5532
 9914TIP3   OH251156   4.388   2.251   4.929 -0.0001 -0.5224  0.1733
 9914TIP3    H151157   4.295   2.239   4.909  0.2823 -0.9459 -0.9829
 9914TIP3    H251158   4.419   2.165   4.955 -0.0099 -0.2986  0.9446
 9915TIP3   OH251159   4.589   5.028  13.905 -0.0433 -0.4572  0.8309
 9915TIP3    H151160   4.609   4.940  13.937  0.4854 -0.1505  1.3822
 9915TIP3    H251161   4.674   5.064  13.881 -0.5345 -1.1730 -2.3858
 9916TIP3   OH251162   2.393   6.042   2.731  0.2681  0.4554  0.1454
 9916TIP3    H151163   2.399   6.066   2.823 -0.4906 -0.1370  0.3630
 9916TIP3    H251164   2.340   5.962   2.731 -0.4042  0.8791 -0.8652
 9917TIP3   OH251165   1.023   3.389   4.706 -0.4773  0.8335 -0.2909
 9917TIP3    H151166   1.036   3.444   4.784 -0.9393 -1.4983  1.5482
 9917TIP3    H251167   1.103   3.336   4.702 -0.9205  0.1998 -0.7628
 9918TIP3   OH251168   4.551   3.016   4.767 -0.4500 -0.7374  0.5179
 9918TIP3    H151169   4.584   3.024   4.857  0.3952  0.1065  0.1484
 9918TIP3    H251170   4.549   3.106   4.734  0.4587 -1.1536 -0.7219
 9919TIP3   OH251171   1.052   3.311  15.623 -0.2359  0.0313  0.4743
 9919TIP3    H151172   1.037   3.265  15.540 -0.1053  0.0554  0.4376
 9919TIP3    H251173   1.093   3.245  15.679  1.2608  0.4937 -0.0293
 9920TIP3   OH251174   6.359   0.960  12.088  0.3735 -0.3565  0.1851
 9920TIP3    H151175   6.270   0.935  12.114  0.2712 -1.8202 -1.3911
 9920TIP3    H251176   6.346   1.027  12.020  0.5060 -0.0319  0.4755
 9921TIP3   OH251177   1.064   6.563  12.397  0.2744  0.3496  0.4218
 9921TIP3    H151178   1.119   6.534  12.324 -2.1490 -2.0239 -0.6598
 9921TIP3    H251179   1.011   6.634  12.360 -1.0715 -0.9644 -0.2904
 9922TIP3   OH251180   0.924   6.727   3.102  0.4187  0.0483  0.3633
 9922TIP3    H151181   0.961   6.644   3.072 -2.4167 -0.6954 -1.4207
 9922TIP3    H251182   0.868   6.703   3.175  0.6177  0.6190  0.7117
 9923TIP3   OH251183   4.558   0.877  11.224  0.2656 -0.5893  0.2675
 9923TIP3    H151184   4.495   0.912  11.287  0.6684 -2.4449  1.8042
 9923TIP3    H251185   4.505   0.825  11.164  0.0162  0.2471 -0.2530
 9924TIP3   OH251186   3.116   6.455  16.940  0.1099 -0.3433  0.0719
 9924TIP3    H151187   3.148   6.368  16.963 -1.0683 -0.6907  0.5106
 9924TIP3    H251188   3.025   6.440  16.913  0.1013  0.6655 -0.5166
 9925TIP3   OH251189   0.696   6.120   1.536  0.5225  0.7277  0.0633
 9925TIP3    H151190   0.765   6.185   1.543 -0.1021  1.3949  0.1600
 9925TIP3    H251191   0.632   6.159   1.476 -0.8469  1.1206  1.7199
 9926TIP3   OH251192   2.584   1.905   5.339 -0.5792  0.3564  0.8304
 9926TIP3    H151193   2.567   1.827   5.285  0.6260 -0.1936  1.1946
 9926TIP3    H251194   2.579   1.978   5.278  0.9800 -0.2743 -0.1090
 9927TIP3   OH251195   4.185   4.310   5.260 -0.2629  0.5524  0.3406
 9927TIP3    H151196   4.132   4.288   5.183 -0.4879  0.8739  0.4011
 9927TIP3    H251197   4.244   4.235   5.271 -0.2537  0.4889 -0.1246
 9928TIP3   OH251198   2.980   1.086  15.976  0.0210  0.3777  0.1887
 9928TIP3    H151199   2.935   1.048  15.901  0.6907  0.1782 -0.1187
 9928TIP3    H251200   2.981   1.180  15.959 -0.2395  0.3803  0.1805
 9929TIP3   OH251201   5.530   1.117   1.090  0.4744 -0.2439  0.1273
 9929TIP3    H151202   5.557   1.209   1.092 -0.0183 -0.0719 -0.7082
 9929TIP3    H251203   5.608   1.070   1.063  0.3161  0.1121 -1.0002
 9930TIP3   OH251204   6.577   4.913   5.485  0.0626  0.3266  0.4595
 9930TIP3    H151205   6.578   5.001   5.524  0.2317 -0.3629  2.0434
 9930TIP3    H251206   6.564   4.854   5.558  2.5418 -1.1776 -0.2141
 9931TIP3   OH251207   4.221   4.232  12.281 -0.4652 -0.1923 -0.7571
 9931TIP3    H151208   4.227   4.139  12.262  0.1114 -0.2485 -0.3257
 9931TIP3    H251209   4.137   4.259  12.243 -0.7123 -0.9152 -0.7396
 9932TIP3   OH251210   4.318   3.081   3.769 -0.5083 -0.3627 -0.6426
 9932TIP3    H151211   4.321   3.068   3.674 -2.1524 -0.5816 -0.6946
 9932TIP3    H251212   4.259   3.157   3.781 -0.8858 -0.7758  0.2168
 9933TIP3   OH251213   1.068   6.357  16.747 -0.0532 -0.1101  0.2258
 9933TIP3    H151214   1.142   6.335  16.804 -0.8577 -1.9514  0.6413
 9933TIP3    H251215   1.094   6.325  16.660  0.7068  1.6738 -0.2362
 9934TIP3   OH251216   4.763   0.997  11.375  0.2131  0.4606 -0.3290
 9934TIP3    H151217   4.702   0.951  11.316  0.4514  0.6695 -0.7405
 9934TIP3    H251218   4.707   1.056  11.425 -0.0972 -0.2645  0.1970
 9935TIP3   OH251219   1.694   2.639   0.511 -0.2736 -0.4852  0.2829
 9935TIP3    H151220   1.624   2.638   0.575 -1.6691 -1.1876 -1.1909
 9935TIP3    H251221   1.702   2.731   0.485 -2.4565 -0.6939 -1.3755
 9936TIP3   OH251222   4.954   2.385  14.546 -0.0959  0.2011 -0.2266
 9936TIP3    H151223   4.988   2.299  14.571 -0.7888 -0.1641 -0.5275
 9936TIP3    H251224   4.863   2.370  14.522 -0.0991  0.9374 -0.7414
 9937TIP3   OH251225   2.767   5.168  12.896  0.0594  0.0311 -0.2043
 9937TIP3    H151226   2.771   5.264  12.893  0.9048  0.0292  0.6078
 9937TIP3    H251227   2.673   5.149  12.899 -0.1036  0.8814  0.7739
 9938TIP3   OH251228   6.380   0.361   1.799 -0.3684 -0.2193 -0.2016
 9938TIP3    H151229   6.422   0.382   1.716  1.4049 -0.2045  0.6507
 9938TIP3    H251230   6.450   0.328   1.855 -1.5793 -0.6190  1.1754
 9939TIP3   OH251231   5.613   5.144  14.428  0.2260  0.2296  0.1373
 9939TIP3    H151232   5.544   5.182  14.373 -0.6356 -0.0648  0.9817
 9939TIP3    H251233   5.626   5.056  14.392 -1.0291 -0.3278  0.9482
 9940TIP3   OH251234   5.044   1.432  11.059  0.1077 -0.2506  0.2525
 9940TIP3    H151235   5.086   1.410  10.976  0.5516  0.1580  0.3663
 9940TIP3    H251236   4.956   1.459  11.035  0.6281  1.1122 -0.2340
 9941TIP3   OH251237   2.674   2.980   6.610 -0.0291  0.3655  0.2182
 9941TIP3    H151238   2.593   2.998   6.657 -1.1601 -0.2986 -1.3778
 9941TIP3    H251239   2.678   3.048   6.542  0.0908 -0.3206 -0.4778
 9942TIP3   OH251240   4.550   5.542   0.130  0.6656 -0.4046 -0.0984
 9942TIP3    H151241   4.645   5.549   0.123  0.6719  1.7346  1.2818
 9942TIP3    H251242   4.516   5.602   0.063  0.3625  0.4616  0.8002
 9943TIP3   OH251243   6.295   6.446  16.014 -0.3043 -0.3259  0.2475
 9943TIP3    H151244   6.374   6.419  16.061  0.8683 -1.1129 -2.0525
 9943TIP3    H251245   6.276   6.534  16.048  1.6987 -0.0174  0.6783
 9944TIP3   OH251246   6.667   5.011  16.157 -0.4513  0.5060  0.3721
 9944TIP3    H151247   6.761   5.002  16.172 -0.6419 -2.2875  0.5101
 9944TIP3    H251248   6.629   5.009  16.244 -0.8227 -3.6607  0.3403
 9945TIP3   OH251249   5.051   6.012  14.699 -0.0607  0.2106 -0.0450
 9945TIP3    H151250   5.092   5.970  14.623 -2.1250  0.2515 -1.2567
 9945TIP3    H251251   5.079   6.104  14.694  0.9867 -0.0846  0.1249
 9946TIP3   OH251252   6.312   6.372  16.782 -0.6032  0.3998 -0.2697
 9946TIP3    H151253   6.405   6.369  16.760 -0.8089  1.9908 -1.5039
 9946TIP3    H251254   6.295   6.464  16.802 -2.2291  0.4363 -1.6221
 9947TIP3   OH251255   0.991   5.301   2.516  0.4546 -0.1065  0.0795
 9947TIP3    H151256   0.929   5.354   2.467  1.5533  0.2346 -1.0028
 9947TIP3    H251257   1.024   5.359   2.585  0.7515  0.2281 -0.3420
 9948TIP3   OH251258   4.484   6.159  11.199  0.1502  0.0349  0.2123
 9948TIP3    H151259   4.394   6.132  11.182  0.3858  0.4745 -2.2608
 9948TIP3    H251260   4.481   6.204  11.283 -1.9386 -0.0121  0.2069
 9949TIP3   OH251261   3.770   4.341  16.675  0.2098  0.6132 -0.5845
 9949TIP3    H151262   3.747   4.259  16.632  0.6741  0.1213  0.0859
 9949TIP3    H251263   3.773   4.319  16.768  1.3955  1.1241 -0.4836
 9950TIP3   OH251264   6.183   4.555  11.555  0.6882  0.0778  0.0581
 9950TIP3    H151265   6.131   4.604  11.619  1.6066  0.1073  0.8159
 9950TIP3    H251266   6.272   4.557  11.591  1.4701  1.1029 -1.8213
 9951TIP3   OH251267   3.240   2.193   2.638 -0.1911 -0.0863 -0.0172
 9951TIP3    H151268   3.279   2.163   2.556 -3.0719 -0.8262 -1.2091
 9951TIP3    H251269   3.249   2.288   2.636 -0.6638 -0.0568 -1.4283
 9952TIP3   OH251270   1.771   5.671  13.185 -0.3678  0.1346  0.0435
 9952TIP3    H151271   1.767   5.678  13.089  0.8273  1.7206  0.0785
 9952TIP3    H251272   1.681   5.653  13.211 -0.4651 -1.9958 -1.4592
 9953TIP3   OH251273   6.801   1.708  13.326 -0.6460 -0.0393  0.0175
 9953TIP3    H151274   6.738   1.707  13.398  0.0721  0.2263  0.6562
 9953TIP3    H251275   6.828   1.617  13.317 -1.9061 -0.3434 -0.9761
 9954TIP3   OH251276   2.596   2.502   4.117 -0.3549  0.1794  0.4543
 9954TIP3    H151277   2.596   2.457   4.033 -0.4553  1.1427 -0.0653
 9954TIP3    H251278   2.626   2.435   4.179  0.5749 -0.2997 -0.4705
 9955TIP3   OH251279   3.459   4.212  12.155 -0.9777 -0.5706  0.4110
 9955TIP3    H151280   3.375   4.214  12.110 -1.2634  0.8264  0.9324
 9955TIP3    H251281   3.442   4.253  12.240  0.2231 -0.2620  0.5348
 9956TIP3   OH251282   4.296   5.853  17.082  0.2487 -0.2028  0.2226
 9956TIP3    H151283   4.240   5.864  17.158  1.8042 -0.6997  1.4751
 9956TIP3    H251284   4.319   5.943  17.056  0.1082 -0.0451  0.6439
 9957TIP3   OH251285   0.587   3.105   5.417 -0.2419  0.0369  0.0940
 9957TIP3    H151286   0.595   3.054   5.336 -1.1698  1.0572 -0.6825
 9957TIP3    H251287   0.640   3.059   5.481 -0.8649 -1.7733 -0.6375
 9958TIP3   OH251288   6.267   4.730   4.685  0.5996 -0.0616 -0.1806
 9958TIP3    H151289   6.292   4.821   4.702 -1.3589  0.8067 -1.5799
 9958TIP3    H251290   6.343   4.679   4.713  1.8183  1.9958  0.5126
 9959TIP3   OH251291   5.127   6.299  16.267 -0.1921  0.4617  0.4107
 9959TIP3    H151292   5.038   6.302  16.302 -1.1862  1.2502 -1.9552
 9959TIP3    H251293   5.134   6.378  16.212  0.9211 -1.0117 -1.7198
 9960TIP3   OH251294   1.008   1.186  16.106 -0.1655 -0.5635 -0.4317
 9960TIP3    H151295   1.017   1.091  16.111  2.1631 -0.3742  0.5765
 9960TIP3    H251296   1.043   1.218  16.190  0.6158  1.2156 -1.3624
 9961TIP3   OH251297   4.646   2.571   4.147 -0.1691 -0.6714  0.3697
 9961TIP3    H151298   4.715   2.626   4.186 -0.6694 -1.8306  3.1329
 9961TIP3    H251299   4.594   2.632   4.095  2.4036  0.3945 -1.1129
 9962TIP3   OH251300   6.384   4.367   3.131  0.8510 -0.0011 -0.0259
 9962TIP3    H151301   6.353   4.320   3.054  1.2524  1.3586 -1.0560
 9962TIP3    H251302   6.326   4.442   3.139  1.0656  0.0889  0.7552
 9963TIP3   OH251303   6.504   1.224   3.354  0.3131  0.0522  0.0465
 9963TIP3    H151304   6.452   1.163   3.408 -1.5355  1.1325 -0.4118
 9963TIP3    H251305   6.573   1.169   3.316 -0.3020 -1.4103  0.9271
 9964TIP3   OH251306   5.078   6.260  13.823 -0.0628  0.0766 -0.3728
 9964TIP3    H151307   5.171   6.237  13.834 -0.6611 -2.5078 -0.1259
 9964TIP3    H251308   5.080   6.339  13.768  2.3101  1.0896  0.9814
 9965TIP3   OH251309   0.065   1.327  11.678  0.6475  0.3286 -0.3963
 9965TIP3    H151310   0.033   1.351  11.765 -0.1168 -0.2087 -0.5220
 9965TIP3    H251311   0.124   1.399  11.654  1.4011  0.1650  0.8315
 9966TIP3   OH251312   0.047   1.203  16.063 -0.2680 -0.4666 -0.0383
 9966TIP3    H151313   0.141   1.193  16.044 -0.5087 -0.9296 -1.0913
 9966TIP3    H251314   0.040   1.287  16.109  0.6735 -0.4824  0.1516
 9967TIP3   OH251315   0.467   5.187   3.885 -0.1013 -0.4389  0.2816
 9967TIP3    H151316   0.439   5.252   3.821  1.0177  0.5180  0.7262
 9967TIP3    H251317   0.490   5.239   3.962  0.0842 -1.4383  0.9092
 9968TIP3   OH251318   4.821   2.184  11.638  0.1482 -0.3509  0.1246
 9968TIP3    H151319   4.806   2.196  11.732 -0.6243 -0.8032  0.0568
 9968TIP3    H251320   4.885   2.113  11.633  1.1593  0.5153  0.3453
 9969TIP3   OH251321   5.720   1.947   5.960  0.1474 -0.2210  0.3835
 9969TIP3    H151322   5.658   2.002   5.913 -0.1454 -1.9223 -1.3476
 9969TIP3    H251323   5.804   1.992   5.950 -0.3972  0.8942  0.7037
 9970TIP3   OH251324   0.808   3.427   1.507 -0.0811 -0.3223  0.5456
 9970TIP3    H151325   0.857   3.389   1.579 -0.9435 -0.6197  0.9896
 9970TIP3    H251326   0.719   3.393   1.517 -1.0594  2.1833  1.3043
 9971TIP3   OH251327   2.795   6.278  13.231  0.1946 -0.0316 -0.3611
 9971TIP3    H151328   2.769   6.260  13.321  2.4055  0.4993  0.4547
 9971TIP3    H251329   2.713   6.281  13.182 -1.1265  0.3929  1.7598
 9972TIP3   OH251330   2.070   6.303   4.487 -0.0695 -0.3881 -0.1743
 9972TIP3    H151331   1.980   6.290   4.517  0.0499 -2.0759 -0.4755
 9972TIP3    H251332   2.116   6.224   4.513  1.8903  1.2687  1.8263
 9973TIP3   OH251333   0.719   1.913  12.602  0.3417 -0.1503  0.4603
 9973TIP3    H151334   0.762   1.894  12.519  2.2612 -0.0337  1.3875
 9973TIP3    H251335   0.730   2.007  12.615  1.0265 -0.3339  1.3407
 9974TIP3   OH251336   2.313   5.191   5.544  0.5123  0.0443  0.1587
 9974TIP3    H151337   2.312   5.257   5.614 -0.7517 -2.3007  2.5522
 9974TIP3    H251338   2.236   5.210   5.491  1.2989  1.6505 -0.4884
 9975TIP3   OH251339   1.203   2.094  14.443  0.1853 -0.4426  0.0133
 9975TIP3    H151340   1.124   2.075  14.393 -0.2362  1.5238 -0.1366
 9975TIP3    H251341   1.188   2.182  14.479  1.9345 -0.3970  0.7104
 9976TIP3   OH251342   4.770   1.016   3.611 -0.0983 -0.7888  0.1662
 9976TIP3    H151343   4.684   0.976   3.622 -1.0170  0.8715 -0.6354
 9976TIP3    H251344   4.753   1.109   3.600  1.7670 -0.4613 -0.4372
 9977TIP3   OH251345   5.224   0.226  12.960 -0.5322  0.2631  0.2339
 9977TIP3    H151346   5.147   0.259  13.007 -2.0159 -0.5717 -1.4537
 9977TIP3    H251347   5.235   0.286  12.887 -0.7685 -0.6741 -0.5922
 9978TIP3   OH251348   1.323   3.574  13.549 -0.3146 -0.1540 -0.1625
 9978TIP3    H151349   1.315   3.503  13.613 -2.1505 -1.2774 -1.5148
 9978TIP3    H251350   1.410   3.564  13.512 -0.2590 -1.2343  0.2250
 9979TIP3   OH251351   3.930   1.906  15.361 -0.1104 -0.1465  0.3488
 9979TIP3    H151352   3.950   1.843  15.292 -0.4968 -0.1369  0.2272
 9979TIP3    H251353   3.903   1.985  15.314  0.3848  0.1218  0.4994
 9980TIP3   OH251354   4.299   1.684  13.568 -0.3940 -0.0969  0.3854
 9980TIP3    H151355   4.320   1.611  13.627 -1.7153 -2.5862 -1.9924
 9980TIP3    H251356   4.381   1.700  13.522  0.0990  0.4594  1.4234
 9981TIP3   OH251357   0.472   6.711  12.511 -0.6373 -0.6498  0.1311
 9981TIP3    H151358   0.520   6.637  12.474  1.7107  1.3605 -1.0986
 9981TIP3    H251359   0.535   6.783  12.511 -3.1440  1.6870  0.2139
 9982TIP3   OH251360   1.514   0.856  11.886  0.1194  0.1604 -0.3844
 9982TIP3    H151361   1.433   0.903  11.909 -0.4390  0.4966 -2.7730
 9982TIP3    H251362   1.584   0.911  11.922 -0.6199  1.5067 -0.9343
 9983TIP3   OH251363   6.667   3.977   2.570 -0.2320 -0.4866 -0.0798
 9983TIP3    H151364   6.730   3.945   2.506 -0.1002 -1.3127  0.4477
 9983TIP3    H251365   6.682   3.923   2.648 -1.5338 -0.6484  0.0820
 9984TIP3   OH251366   4.484   2.590  15.674 -0.5831  0.3454  0.3133
 9984TIP3    H151367   4.497   2.599  15.580  0.6150 -0.3253  0.3914
 9984TIP3    H251368   4.397   2.626  15.690 -1.0950 -0.1779 -1.1471
 9985TIP3   OH251369   4.203   1.927   0.013 -0.1664  0.4760  0.4328
 9985TIP3    H151370   4.166   1.931  -0.075  0.0630  0.6241  0.3421
 9985TIP3    H251371   4.146   1.866   0.060 -0.7166  0.9436  0.3829
 9986TIP3   OH251372   3.610   5.306  15.818 -0.1643 -0.6950  0.0433
 9986TIP3    H151373   3.672   5.378  15.830  0.0460 -0.6307 -1.2742
 9986TIP3    H251374   3.524   5.348  15.825 -0.0430 -0.2090 -1.2213
 9987TIP3   OH251375   0.451   1.254   0.638 -0.0228  0.4527  0.1104
 9987TIP3    H151376   0.475   1.344   0.657  2.3671  0.1616 -1.1874
 9987TIP3    H251377   0.403   1.259   0.556 -0.0270  0.5567  0.1191
 9988TIP3   OH251378   0.776   5.197   1.394  0.0088 -0.1493 -0.0222
 9988TIP3    H151379   0.781   5.119   1.449 -1.2649 -0.1914  0.0681
 9988TIP3    H251380   0.761   5.269   1.455  1.6865  0.2636 -0.0587
 9989TIP3   OH251381   2.334   3.079   1.778 -0.0961  0.3183  0.3974
 9989TIP3    H151382   2.389   3.137   1.726 -0.7413  0.6570  0.0814
 9989TIP3    H251383   2.302   3.014   1.716  0.8235 -0.5431  0.7984
 9990TIP3   OH251384   6.364   2.813  15.358 -0.3743 -0.0955  0.0036
 9990TIP3    H151385   6.330   2.723  15.353 -1.1999  0.1569  0.8445
 9990TIP3    H251386   6.307   2.864  15.301 -1.8162  0.4296  1.8295
 9991TIP3   OH251387   2.658   3.317   2.417 -0.0371  0.2631  0.0290
 9991TIP3    H151388   2.721   3.350   2.353  2.2789  0.2716  2.1634
 9991TIP3    H251389   2.691   3.229   2.438 -0.1668  0.6326  1.8746
 9992TIP3   OH251390   2.516   2.183  12.240 -0.1710 -0.2653 -0.4775
 9992TIP3    H151391   2.546   2.273  12.257  0.5655 -0.8009  1.3371
 9992TIP3    H251392   2.484   2.152  12.325 -1.1529 -1.4700 -1.2508
 9993TIP3   OH251393   3.362   4.560   3.084  0.5656 -0.0993 -0.2153
 9993TIP3    H151394   3.368   4.471   3.051  1.4164 -0.8186  1.6821
 9993TIP3    H251395   3.270   4.573   3.105  0.3893 -0.4152 -0.8041
 9994TIP3   OH251396   6.088   6.789   0.988 -0.2345 -0.1655  0.0899
 9994TIP3    H151397   6.094   6.713   0.929  1.7309  0.2555 -0.3228
 9994TIP3    H251398   6.115   6.755   1.073  5.4641  0.7751 -0.9051
 9995TIP3   OH251399   3.726   6.365  11.599  0.6218 -0.0967  0.3750
 9995TIP3    H151400   3.794   6.359  11.531 -0.6832 -2.4156 -0.8612
 9995TIP3    H251401   3.668   6.435  11.569  0.6583 -0.3673 -0.3425
 9996TIP3   OH251402   4.348   1.528   0.902  0.3584 -0.4165 -0.0989
 9996TIP3    H151403   4.341   1.619   0.875 -2.4813 -0.9087 -1.3118
 9996TIP3    H251404   4.321   1.478   0.825 -2.9552 -2.0571  1.9135
 9997TIP3   OH251405   5.247   0.098   3.741 -0.4550  0.5071 -0.0291
 9997TIP3    H151406   5.181   0.122   3.676 -2.0906  0.2372  1.4441
 9997TIP3    H251407   5.224   0.008   3.766 -0.9391  1.1831  2.1135
 9998TIP3   OH251408   5.383   3.526   3.545  0.0257 -0.1945  0.0638
 9998TIP3    H151409   5.397   3.436   3.572  0.5449 -0.0926  0.1298
 9998TIP3    H251410   5.442   3.578   3.600 -0.6916  0.2473  0.4403
 9999TIP3   OH251411   2.822   1.766   3.853 -0.3582 -0.1761  0.5428
 9999TIP3    H151412   2.762   1.769   3.779  1.0052 -1.2426 -0.6812
 9999TIP3    H251413   2.813   1.677   3.888  2.6511 -1.5127 -1.6593
10000TIP3   OH251414   1.263   5.639  14.512  0.6813 -0.5661 -0.9540
10000TIP3    H151415   1.307   5.712  14.469 -0.8005  0.7456 -0.3067
10000TIP3    H251416   1.208   5.679  14.579 -0.8849 -2.1823 -1.1931
10001TIP3   OH251417   2.851   1.498   3.720 -0.6300 -0.9342 -0.0095
10001TIP3    H151418   2.905   1.561   3.672 -2.9362  2.5904  1.6055
10001TIP3    H251419   2.901   1.478   3.798 -0.4624  0.1698  0.1869
10002TIP3   OH251420   5.034   1.723  10.638  0.2660 -0.4276  0.2640
10002TIP3    H151421   5.055   1.797  10.695 -1.0890 -0.5692  0.9742
10002TIP3    H251422   5.064   1.646  10.686  0.1104 -0.4686  0.2962
10003TIP3   OH251423   0.048   1.743   4.832 -0.3802 -0.1259 -0.8477
10003TIP3    H151424  -0.029   1.689   4.848  1.1443 -2.3280 -0.5699
10003TIP3    H251425   0.088   1.706   4.754  1.5649 -0.5004  0.2474
10004TIP3   OH251426   6.107   3.948   1.769  0.4334  0.3074  0.0099
10004TIP3    H151427   6.103   3.865   1.721  0.0482 -0.4032  1.2263
10004TIP3    H251428   6.201   3.962   1.782  0.5153  0.2079 -0.4539
10005TIP3   OH251429   3.344   5.429   0.655 -0.6967  0.3561  0.0940
10005TIP3    H151430   3.367   5.413   0.564 -0.7977 -0.5081  0.2121
10005TIP3    H251431   3.409   5.381   0.706 -2.1492 -1.3811  0.4360
10006TIP3   OH251432   6.451   5.908  15.577  0.4588  0.5298  0.2785
10006TIP3    H151433   6.487   5.981  15.625  0.0504  1.4946 -0.8345
10006TIP3    H251434   6.411   5.947  15.499  0.2508 -0.8689 -0.3588
10007TIP3   OH251435   2.028   1.803   2.473  0.2911  0.5410  0.0793
10007TIP3    H151436   2.107   1.750   2.480  0.4595  0.4531 -1.9171
10007TIP3    H251437   1.997   1.789   2.384 -2.4111  0.0025  1.0076
10008TIP3   OH251438   0.541   5.676   4.674  0.3511 -0.3669 -0.4204
10008TIP3    H151439   0.582   5.699   4.758  1.3487 -2.5966 -0.2215
10008TIP3    H251440   0.495   5.755   4.647  2.1709  1.2453  0.9419
10009TIP3   OH251441   4.851   0.192   1.408  0.1024 -0.3661  0.6095
10009TIP3    H151442   4.825   0.277   1.444  0.2107  0.0860 -0.3408
10009TIP3    H251443   4.792   0.178   1.335  1.0552 -0.3868 -0.1736
10010TIP3   OH251444   2.057   2.395  13.877  0.5474 -0.2969  0.0307
10010TIP3    H151445   2.010   2.340  13.813 -1.2367 -1.1107  1.9144
10010TIP3    H251446   2.062   2.341  13.956  1.0693  1.3152  1.1476
10011TIP3   OH251447   5.672   4.711  16.208  0.0488  0.0124 -0.1242
10011TIP3    H151448   5.609   4.765  16.254 -0.0514 -0.0995 -0.1308
10011TIP3    H251449   5.647   4.621  16.228  0.0332 -0.0356 -0.3589
10012TIP3   OH251450   4.190   4.009  11.594  0.0455 -0.2632  0.2826
10012TIP3    H151451   4.227   4.082  11.545 -0.5259 -1.1617 -1.6244
10012TIP3    H251452   4.119   4.048  11.645  1.1827  0.8496  1.0691
10013TIP3   OH251453   4.468   3.099  16.095  0.3474 -0.0438 -0.1504
10013TIP3    H151454   4.375   3.109  16.076  0.2357 -1.6631 -0.5451
10013TIP3    H251455   4.472   3.081  16.189  0.2320 -0.3555 -0.2060
10014TIP3   OH251456   5.148   2.093   5.107  0.1304 -0.1295 -0.1416
10014TIP3    H151457   5.204   2.130   5.175  0.6802  2.5347 -1.8970
10014TIP3    H251458   5.070   2.064   5.154  0.3681  1.8377  1.6270
10015TIP3   OH251459   5.054   3.464  15.096  0.5156  0.3670 -0.4464
10015TIP3    H151460   5.098   3.449  15.181  0.1844 -1.5520 -0.5569
10015TIP3    H251461   5.051   3.377  15.056 -1.4462  0.8296 -1.4078
10016TIP3   OH251462   5.055   1.512  11.912  0.1840 -0.1405  0.1247
10016TIP3    H151463   4.966   1.485  11.890  0.6945 -1.8802  0.0395
10016TIP3    H251464   5.106   1.492  11.833  0.9434 -0.7418  0.7595
10017TIP3   OH251465   5.752   4.694   5.038  0.4186  0.1488  0.0802
10017TIP3    H151466   5.832   4.747   5.033 -0.1178  0.8893 -1.3484
10017TIP3    H251467   5.782   4.604   5.036  1.2546  0.4191  0.2115
10018TIP3   OH251468   3.655   2.213  13.963  0.2019 -0.2898 -0.6809
10018TIP3    H151469   3.700   2.270  13.900  0.0712  3.3241  2.1993
10018TIP3    H251470   3.721   2.193  14.029 -0.9678  0.5702  0.8054
10019TIP3   OH251471   0.083   5.073  12.365  0.5509  0.8570  0.2684
10019TIP3    H151472   0.140   5.065  12.442 -0.2280 -0.8143  0.7244
10019TIP3    H251473  -0.006   5.076  12.401  0.1225 -0.8375 -0.5559
10020TIP3   OH251474   0.398   5.603   6.351 -0.4246 -0.2026 -0.4787
10020TIP3    H151475   0.461   5.613   6.280  0.0073 -1.8970 -0.3684
10020TIP3    H251476   0.352   5.521   6.331 -1.2987  0.0417  0.4369
10021TIP3   OH251477   5.768   2.663   6.478 -0.6442 -0.0619  0.4356
10021TIP3    H151478   5.816   2.581   6.470 -1.2779 -0.3927  0.0208
10021TIP3    H251479   5.793   2.696   6.565 -0.9800 -1.0791  0.9423
10022TIP3   OH251480   4.357   0.297   2.780 -0.2965 -0.4563 -0.2363
10022TIP3    H151481   4.275   0.258   2.751  0.3891 -2.0606 -0.0963
10022TIP3    H251482   4.401   0.322   2.699  0.6833 -3.0072 -0.5745
10023TIP3   OH251483   0.685   3.820  11.140 -0.3711  0.2468  0.0273
10023TIP3    H151484   0.613   3.874  11.173 -0.6697 -1.1821  1.8834
10023TIP3    H251485   0.761   3.846  11.191 -0.3222 -0.4800  0.3351
10024TIP3   OH251486   4.277   3.349  11.212 -0.2044  0.7349  0.0988
10024TIP3    H151487   4.359   3.368  11.168  0.8841 -1.1732  1.2013
10024TIP3    H251488   4.254   3.431  11.256  0.8286  1.4341 -0.6194
10025TIP3   OH251489   3.723   4.125  16.449 -0.2375 -0.7269 -0.1310
10025TIP3    H151490   3.752   4.214  16.426  1.3802 -0.9421  0.9247
10025TIP3    H251491   3.751   4.071  16.375 -1.2462 -0.3711 -0.7871
10026TIP3   OH251492   5.298   4.620  11.537  0.1862  0.6119  0.6949
10026TIP3    H151493   5.236   4.633  11.466  0.8426  1.6487  0.2726
10026TIP3    H251494   5.368   4.684  11.519  0.9533  0.0585  1.6062
10027TIP3   OH251495   1.868   5.437  13.373  0.1486  0.6911 -0.0507
10027TIP3    H151496   1.823   5.428  13.456 -0.0721  0.0772 -0.2332
10027TIP3    H251497   1.826   5.513  13.331  0.8205  1.5274  0.7325
10028TIP3   OH251498   3.570   2.637  16.178  0.0261  0.1210  0.1541
10028TIP3    H151499   3.638   2.589  16.130 -0.1092 -0.5699  0.6308
10028TIP3    H251500   3.619   2.696  16.235  0.1839  1.0503 -0.9258
10029TIP3   OH251501   6.601   5.669   4.323  0.2199  0.5385  0.1315
10029TIP3    H151502   6.549   5.697   4.398  2.1404  0.3594  1.6024
10029TIP3    H251503   6.551   5.699   4.247 -1.7290  0.8326  1.4572
10030TIP3   OH251504   0.431   1.859  14.678 -0.5681 -0.0470  0.5349
10030TIP3    H151505   0.376   1.915  14.624 -0.3974  1.0939  1.5052
10030TIP3    H251506   0.401   1.873  14.768  0.2463 -0.6212  0.9205
10031TIP3   OH251507   2.673   6.448   3.576 -0.1169  0.5524  0.2378
10031TIP3    H151508   2.639   6.537   3.566 -1.1736  0.2234  0.8089
10031TIP3    H251509   2.768   6.460   3.584 -0.2015  1.5868 -0.1359
10032TIP3   OH251510   5.700   2.365  10.812  0.3441 -0.1738  0.1115
10032TIP3    H151511   5.739   2.365  10.724 -2.4004  0.6223 -1.2006
10032TIP3    H251512   5.686   2.458  10.832 -1.7390 -0.4522  0.0826
10033TIP3   OH251513   1.999   0.460  10.534 -0.2289 -0.2328  0.3846
10033TIP3    H151514   2.043   0.394  10.480 -0.1671 -1.8199  2.2722
10033TIP3    H251515   1.918   0.418  10.563 -1.1584  1.2630  0.0686
10034TIP3   OH251516   5.422   4.307   1.687  0.8275  0.1514  0.0003
10034TIP3    H151517   5.349   4.328   1.745  2.7157  1.4442  2.0993
10034TIP3    H251518   5.421   4.377   1.622 -1.1287 -1.1431 -1.4858
10035TIP3   OH251519   5.471   5.327  15.047  0.0258 -0.3328  0.9917
10035TIP3    H151520   5.560   5.293  15.059  0.8323  0.4610 -1.9792
10035TIP3    H251521   5.429   5.265  14.988  0.0377  1.3630 -0.9119
10036TIP3   OH251522   2.561   2.875  10.468  0.5578 -0.2278 -0.1462
10036TIP3    H151523   2.575   2.958  10.423 -0.5541  0.6444  1.0361
10036TIP3    H251524   2.603   2.810  10.412 -2.5924  0.4098 -3.6382
10037TIP3   OH251525   1.880   4.768   6.090  0.1028  0.2079  0.3099
10037TIP3    H151526   1.806   4.800   6.142 -0.8928 -0.5849 -0.5575
10037TIP3    H251527   1.950   4.753   6.154 -0.7583  0.2098  1.2785
10038TIP3   OH251528   6.525   5.235   2.876  0.5182  0.3390 -0.5269
10038TIP3    H151529   6.488   5.186   2.803  0.9644  1.4717 -1.5346
10038TIP3    H251530   6.588   5.175   2.916 -0.4569 -0.6531 -0.4119
10039TIP3   OH251531   1.892   1.247   2.305 -0.1928  0.1404  0.1756
10039TIP3    H151532   1.837   1.213   2.235  1.3389 -1.7501 -0.1929
10039TIP3    H251533   1.948   1.312   2.263 -1.0526  0.9545  0.2451
10040TIP3   OH251534   2.213   0.294  15.493 -0.0033 -0.3841  0.8779
10040TIP3    H151535   2.145   0.356  15.467 -0.3654 -0.0957  2.3910
10040TIP3    H251536   2.191   0.272  15.584  1.9906 -0.1889  1.4530
10041TIP3   OH251537   3.799   3.760  12.599  0.5375 -0.2896  0.1108
10041TIP3    H151538   3.824   3.702  12.671  0.1225  0.8102  1.1763
10041TIP3    H251539   3.706   3.742  12.585  0.6946 -0.7364 -0.3849
10042TIP3   OH251540   5.569   5.728  16.648 -0.3684 -0.3093 -0.3077
10042TIP3    H151541   5.631   5.658  16.627 -0.5359 -0.4306 -0.3984
10042TIP3    H251542   5.613   5.778  16.716 -1.1199 -1.7400  1.3120
10043TIP3   OH251543   2.925   4.705  14.879 -0.2347  0.1346 -0.1306
10043TIP3    H151544   2.858   4.770  14.859 -0.4005 -0.4578 -1.6135
10043TIP3    H251545   2.942   4.661  14.796  0.4307 -1.2014  0.6733
10044TIP3   OH251546   3.136   4.884  11.410  0.0415  0.2937 -0.0461
10044TIP3    H151547   3.142   4.979  11.423  0.8348  0.2542 -0.0417
10044TIP3    H251548   3.174   4.869  11.324 -1.3932  0.1163 -0.6726
10045TIP3   OH251549   2.940   6.787   3.101  0.0842 -0.3257  0.0184
10045TIP3    H151550   2.897   6.703   3.118 -0.4801 -0.0481  0.0077
10045TIP3    H251551   2.867   6.849   3.091  0.4904  0.4221  1.3304
10046TIP3   OH251552   4.457   6.769   3.010  0.1662 -0.6747  0.3578
10046TIP3    H151553   4.459   6.758   2.915  1.7565  0.0581  0.2614
10046TIP3    H251554   4.389   6.835   3.026  0.2476 -0.4252 -0.3248
10047TIP3   OH251555   0.646   0.091  16.721  0.4506 -0.0392  0.2697
10047TIP3    H151556   0.654   0.133  16.806 -0.9344  0.2132  0.2987
10047TIP3    H251557   0.681   0.156  16.659 -1.6985  1.2377  0.3077
10048TIP3   OH251558   4.416   1.838   5.586  0.5659 -0.1598  0.5421
10048TIP3    H151559   4.385   1.749   5.567  2.2097 -0.8581  0.9168
10048TIP3    H251560   4.388   1.854   5.676  2.7147 -1.5053  1.5306
10049TIP3   OH251561   3.971   5.142   1.802  0.3062  0.2836  0.1495
10049TIP3    H151562   4.029   5.123   1.876 -0.3186 -0.5964  0.4234
10049TIP3    H251563   3.999   5.082   1.733 -0.7781 -0.6998  0.5483
10050TIP3   OH251564   3.358   1.256  13.332 -0.1665 -0.2778 -0.4961
10050TIP3    H151565   3.439   1.230  13.287 -0.3843 -1.1411 -0.4152
10050TIP3    H251566   3.313   1.313  13.270  0.2627 -0.2143 -0.7537
10051TIP3   OH251567   5.996   4.944  12.105  0.3014 -0.0891 -0.2758
10051TIP3    H151568   5.931   4.941  12.035  0.9537  1.0242 -0.9668
10051TIP3    H251569   6.018   4.852  12.121 -0.9535 -0.4477 -0.4626
10052TIP3   OH251570   3.582   2.409   3.217 -0.0495  0.6523 -0.1388
10052TIP3    H151571   3.530   2.412   3.137 -1.3946  1.1878  0.7149
10052TIP3    H251572   3.661   2.360   3.193 -0.6054  0.4526 -1.6669
10053TIP3   OH251573   4.328   3.989  16.319 -0.2842  0.5381 -0.2986
10053TIP3    H151574   4.274   4.067  16.334 -1.5016 -0.5395  1.2282
10053TIP3    H251575   4.270   3.926  16.277  0.1922 -0.1167  0.0022
10054TIP3   OH251576   2.475   6.474   2.285 -0.2552  0.3499  0.0355
10054TIP3    H151577   2.406   6.449   2.347  2.3783 -2.2469  2.2660
10054TIP3    H251578   2.483   6.399   2.226 -1.4410  2.0110 -2.3885
10055TIP3   OH251579   2.851   6.683  12.596 -0.4786  0.0052 -0.0430
10055TIP3    H151580   2.833   6.613  12.659 -0.9970 -0.8171 -1.0700
10055TIP3    H251581   2.937   6.717  12.623 -0.5189 -0.5682  0.8762
10056TIP3   OH251582   0.392   5.172   5.084  0.8960  0.3370 -0.2387
10056TIP3    H151583   0.442   5.238   5.036  0.1432  1.0610 -0.0457
10056TIP3    H251584   0.364   5.110   5.016 -0.0978  1.3135 -0.7425
10057TIP3   OH251585   5.363   3.056  16.254 -0.1356 -0.1429  0.5035
10057TIP3    H151586   5.268   3.060  16.254 -0.2494 -2.0767  0.0889
10057TIP3    H251587   5.384   2.970  16.288  1.5446  0.8930  2.3247
10058TIP3   OH251588   1.307   1.374   2.307  0.0517  0.2397 -0.2432
10058TIP3    H151589   1.248   1.447   2.289 -0.4253  0.0078  0.3512
10058TIP3    H251590   1.303   1.362   2.402 -0.9948 -1.4752 -0.4482
10059TIP3   OH251591   2.091   0.746   3.305  0.1686  0.1430  0.4560
10059TIP3    H151592   2.143   0.727   3.383  2.2088  2.2649 -0.2759
10059TIP3    H251593   2.087   0.841   3.301 -1.5003  0.0754 -1.0680
10060TIP3   OH251594   4.348   5.722   4.810 -0.2235  0.1350 -0.4302
10060TIP3    H151595   4.257   5.711   4.782  0.1045 -0.8157 -1.2245
10060TIP3    H251596   4.374   5.807   4.774 -0.3638 -0.2587 -1.5193
10061TIP3   OH251597   6.608   5.488  15.625  0.2582  0.2767  0.5306
10061TIP3    H151598   6.564   5.449  15.549  0.8784  0.8210 -0.1287
10061TIP3    H251599   6.541   5.493  15.692 -0.0287 -1.1825  0.3650
10062TIP3   OH251600   4.525   0.091  17.146  0.2034 -0.1720 -0.6841
10062TIP3    H151601   4.567   0.020  17.097 -0.4217  0.1867 -1.7837
10062TIP3    H251602   4.561   0.171  17.110  3.7766  0.2425  3.0447
10063TIP3   OH251603   3.975   1.378  16.682  0.1111 -0.2473  0.0281
10063TIP3    H151604   3.919   1.324  16.738  0.8531 -0.7561  0.2994
10063TIP3    H251605   4.057   1.329  16.678  1.0852  1.2582  0.9428
10064TIP3   OH251606   1.482   2.503  12.053  1.1428  0.2661  0.0171
10064TIP3    H151607   1.578   2.507  12.051  1.0799  3.1836 -0.9172
10064TIP3    H251608   1.456   2.563  12.123 -0.0386 -0.8099  0.5487
10065TIP3   OH251609   6.671   5.708  15.932 -0.2916 -0.1353 -0.5071
10065TIP3    H151610   6.714   5.744  16.009 -1.1822 -0.8984  0.3744
10065TIP3    H251611   6.718   5.627  15.912 -0.8787 -0.6357  0.0698
10066TIP3   OH251612   0.292   6.600  10.908  0.1338  0.4415 -0.5122
10066TIP3    H151613   0.302   6.506  10.892 -1.5911  0.2308 -0.5808
10066TIP3    H251614   0.329   6.642  10.830  0.7286 -0.1857 -0.5732
10067TIP3   OH251615   4.572   1.827  12.668 -0.7607  0.2697 -0.4186
10067TIP3    H151616   4.483   1.853  12.644 -0.4384  1.1450 -0.7153
10067TIP3    H251617   4.583   1.855  12.758  0.2348  3.0459 -1.3130
10068TIP3   OH251618   5.544   6.655   3.056 -0.1540 -0.3144  0.1139
10068TIP3    H151619   5.525   6.737   3.101 -0.3972 -0.0961 -0.3782
10068TIP3    H251620   5.613   6.614   3.109 -0.3561 -0.0147  0.6182
10069TIP3   OH251621   0.600   0.824   5.664 -0.6683  0.4903 -0.1640
10069TIP3    H151622   0.532   0.848   5.600 -0.5158  1.6072  0.0753
10069TIP3    H251623   0.671   0.885   5.648 -0.1580  0.0352  0.3247
10070TIP3   OH251624   0.022   1.495   1.790  0.0961  0.4347  0.4486
10070TIP3    H151625  -0.063   1.458   1.764  0.2858 -1.4710  2.2732
10070TIP3    H251626   0.022   1.490   1.885  1.4404  2.4121  0.6103
10071TIP3   OH251627   6.074   2.393   1.019  0.0216  0.3514  0.2677
10071TIP3    H151628   5.992   2.389   1.067  0.0797  1.2115  0.4593
10071TIP3    H251629   6.048   2.404   0.928 -0.0952  1.6490  0.4334
10072TIP3   OH251630   3.805   3.359  12.810  0.1780 -0.6164 -0.0272
10072TIP3    H151631   3.806   3.398  12.723  2.0370 -2.3692 -0.8699
10072TIP3    H251632   3.748   3.282  12.801 -0.1216 -0.4608  0.4934
10073TIP3   OH251633   3.776   2.199  10.581 -0.4938 -0.4983  0.0564
10073TIP3    H151634   3.792   2.146  10.504 -1.4278  3.3936 -3.1622
10073TIP3    H251635   3.682   2.191  10.598 -0.6894  0.2512 -0.6123
10074TIP3   OH251636   6.122   6.745  12.746 -0.4827  1.2658 -0.4671
10074TIP3    H151637   6.084   6.699  12.671 -2.4381  1.3695  0.3808
10074TIP3    H251638   6.070   6.825  12.753 -0.8737  0.8971  1.4241
10075TIP3   OH251639   0.734   6.184   5.920 -0.1445  0.3065  0.5142
10075TIP3    H151640   0.685   6.160   5.999  2.0283  1.0520  2.2132
10075TIP3    H251641   0.788   6.259   5.947  1.7152 -0.2945 -1.2575
10076TIP3   OH251642   5.297   5.394   3.080 -0.2061 -0.1349  0.0567
10076TIP3    H151643   5.275   5.385   3.173 -0.1787  0.1977  0.0957
10076TIP3    H251644   5.364   5.462   3.077 -0.3836  0.0289 -0.2330
10077TIP3   OH251645   6.650   2.130  12.112 -0.0729  0.0813 -0.0794
10077TIP3    H151646   6.730   2.103  12.068 -0.0851  1.1849 -0.8023
10077TIP3    H251647   6.583   2.127  12.044 -0.5276 -0.2322  0.3733
10078TIP3   OH251648   3.638   1.251   2.167 -0.2083 -0.1120  0.2428
10078TIP3    H151649   3.718   1.303   2.164 -0.0690 -0.2871  0.7935
10078TIP3    H251650   3.606   1.251   2.077  0.1755  0.3234  0.1017
10079TIP3   OH251651   6.270   0.219  13.340  0.4682 -0.0743 -0.0948
10079TIP3    H151652   6.295   0.264  13.259  0.2272  0.1181 -0.0656
10079TIP3    H251653   6.202   0.276  13.379 -0.0986 -0.6386 -0.2375
10080TIP3   OH251654   2.294   2.529  13.869  0.7193 -0.1711  0.1527
10080TIP3    H151655   2.337   2.496  13.790  1.3481  1.9166 -0.4333
10080TIP3    H251656   2.215   2.475  13.878  1.2355 -1.2090 -1.2267
10081TIP3   OH251657   3.411   3.709   6.224  0.2318  0.0156 -0.3540
10081TIP3    H151658   3.375   3.760   6.296 -0.5377 -0.0816 -0.6676
10081TIP3    H251659   3.343   3.709   6.157 -0.3027 -2.4090  0.0909
10082TIP3   OH251660   2.430   2.021   1.435  0.2686 -0.0822  0.4549
10082TIP3    H151661   2.502   2.035   1.496 -0.4498  1.1756  1.0616
10082TIP3    H251662   2.362   1.978   1.486  0.2407 -0.4213  0.1348
10083TIP3   OH251663   1.820   5.858   1.979 -0.1290  0.1357  0.5371
10083TIP3    H151664   1.745   5.918   1.982 -0.5726 -0.4450  1.3442
10083TIP3    H251665   1.781   5.771   1.983  0.6288 -0.1623  2.0949
10084TIP3   OH251666   2.928   1.448  14.404  0.0135  0.1060  0.2204
10084TIP3    H151667   2.876   1.528  14.402  1.3998  1.2039  2.9992
10084TIP3    H251668   2.921   1.417  14.495  1.4938 -1.5382 -0.1699
10085TIP3   OH251669   1.460   3.772  10.965  0.7427 -0.3293  0.4707
10085TIP3    H151670   1.475   3.765  10.871  3.1316  0.5709  0.7231
10085TIP3    H251671   1.402   3.847  10.975 -0.0340 -0.8112 -0.2980
10086TIP3   OH251672   3.877   2.097   6.063 -0.4266  0.2972 -0.1870
10086TIP3    H151673   3.954   2.153   6.052  0.0085 -0.2645 -0.0423
10086TIP3    H251674   3.912   2.016   6.100 -1.1278  0.1446  0.1481
10087TIP3   OH251675   5.214   1.575   4.020  0.2756  0.0064 -0.7114
10087TIP3    H151676   5.288   1.517   4.005  0.7301  0.3217  0.2156
10087TIP3    H251677   5.142   1.536   3.970  0.7305 -1.0159 -0.5910
10088TIP3   OH251678   1.563   2.912   1.689  0.5306 -0.3370 -0.0189
10088TIP3    H151679   1.542   2.819   1.704 -1.6717  0.3706  1.7791
10088TIP3    H251680   1.536   2.928   1.599 -0.1727 -1.1518  0.0360
10089TIP3   OH251681   2.679   3.540  15.425 -0.5301  0.2520  0.0081
10089TIP3    H151682   2.654   3.596  15.351 -0.3528  1.0206  0.5200
10089TIP3    H251683   2.761   3.578  15.457 -1.9143  1.5567  2.2356
10090TIP3   OH251684   4.959   3.106  15.588  0.3163  0.6152 -0.4313
10090TIP3    H151685   4.971   3.041  15.519  1.6677 -0.4616  0.7449
10090TIP3    H251686   4.865   3.127  15.586  0.3800  0.8922 -2.7804
10091TIP3   OH251687   0.535   6.775  12.888 -0.5839  0.8956 -0.6206
10091TIP3    H151688   0.458   6.718  12.882 -1.1863  1.7221 -0.9347
10091TIP3    H251689   0.609   6.714  12.898 -1.2787  0.0927 -0.2041
10092TIP3   OH251690   2.822   3.361   1.927 -0.7533 -0.5167 -0.1398
10092TIP3    H151691   2.915   3.340   1.921 -0.5194  0.7086 -1.2614
10092TIP3    H251692   2.798   3.336   2.016  0.6520 -0.7913  0.1968
10093TIP3   OH251693   6.380   2.504   1.814 -0.1177 -0.0467 -0.1352
10093TIP3    H151694   6.427   2.527   1.734 -2.1904 -0.0062 -1.4132
10093TIP3    H251695   6.383   2.408   1.817  0.5881 -0.0237  0.1680
10094TIP3   OH251696   2.025   3.183  11.927  0.2152  0.3956 -0.9719
10094TIP3    H151697   2.011   3.119  11.996  0.4725  0.1750 -1.1208
10094TIP3    H251698   2.079   3.137  11.862  3.0130  1.6618  0.2967
10095TIP3   OH251699   1.454   0.673   1.002  0.2635 -0.8046  0.1220
10095TIP3    H151700   1.453   0.632   0.916  1.8395 -1.1034  0.2184
10095TIP3    H251701   1.421   0.761   0.988 -0.8191 -1.2992 -0.5244
10096TIP3   OH251702   4.415   2.381  12.574 -0.3684  0.1264 -0.0519
10096TIP3    H151703   4.480   2.393  12.644 -2.1079 -0.1537  1.6870
10096TIP3    H251704   4.349   2.324  12.612 -1.5475  0.2322 -1.8378
10097TIP3   OH251705   6.151   5.374  14.339 -0.2187  0.2443  0.0360
10097TIP3    H151706   6.147   5.283  14.309  2.1837  0.0648  0.0802
10097TIP3    H251707   6.071   5.386  14.391 -0.8251 -1.6724 -0.3856
10098TIP3   OH251708   5.251   1.134  10.810  0.4462  0.5660 -0.3169
10098TIP3    H151709   5.192   1.207  10.789  1.7306  2.4288  2.0457
10098TIP3    H251710   5.195   1.069  10.851 -0.5347  0.7085 -1.3734
10099TIP3   OH251711   3.810   1.483   1.647  0.2174  0.1185 -0.0027
10099TIP3    H151712   3.821   1.396   1.609  2.4026  0.0885  0.5596
10099TIP3    H251713   3.891   1.498   1.696 -0.0569  2.5196 -0.1688
10100TIP3   OH251714   6.120   2.439   3.169  0.2149 -0.2765  0.2353
10100TIP3    H151715   6.184   2.432   3.099 -0.5251 -1.6639 -0.3527
10100TIP3    H251716   6.038   2.462   3.125  0.0619  0.3497  0.8291
10101TIP3   OH251717   6.494   6.378  16.195  0.0425 -0.1405 -0.1659
10101TIP3    H151718   6.589   6.367  16.193  0.0666 -0.2874 -3.8234
10101TIP3    H251719   6.475   6.401  16.286  3.3282 -1.8472  1.1297
10102TIP3   OH251720   3.130   3.758   0.078  0.1023  0.2691  0.1428
10102TIP3    H151721   3.125   3.688   0.014 -0.9981  0.6249 -0.1825
10102TIP3    H251722   3.093   3.721   0.158  0.8791  0.0277  0.3976
10103TIP3   OH251723   2.198   3.124  15.497 -0.4923  0.2840 -0.2843
10103TIP3    H151724   2.157   3.134  15.411  1.6359  0.8234 -1.3008
10103TIP3    H251725   2.212   3.213  15.528  0.9183  0.1642 -0.5036
10104TIP3   OH251726   1.344   0.979   0.376 -0.1494 -0.2413  0.5058
10104TIP3    H151727   1.355   1.065   0.417 -1.6415 -0.1422  0.7465
10104TIP3    H251728   1.336   0.918   0.449 -2.0733 -0.1614  0.4001
10105TIP3   OH251729   6.617   1.955   6.655 -0.5212  0.0490  0.4596
10105TIP3    H151730   6.660   1.901   6.588 -0.5235  1.5227 -0.7851
10105TIP3    H251731   6.673   2.032   6.663 -0.9152  0.2307  1.6473
10106TIP3   OH251732   0.693   5.046  16.710 -0.1535  0.4394 -0.5270
10106TIP3    H151733   0.620   4.986  16.694 -0.2713  0.7240 -1.1119
10106TIP3    H251734   0.657   5.111  16.770 -0.0279 -0.0584  0.1021
10107TIP3   OH251735   0.040   4.400   4.719 -0.0613 -0.1653 -0.2328
10107TIP3    H151736  -0.028   4.340   4.689 -1.2599  0.2122  1.5748
10107TIP3    H251737   0.099   4.409   4.644 -1.3992 -1.3618 -1.4861
10108TIP3   OH251738   1.178   3.644   5.235  0.0846  0.4596 -0.1335
10108TIP3    H151739   1.157   3.553   5.214 -1.5283  0.9429 -0.7714
10108TIP3    H251740   1.266   3.657   5.198 -0.8505 -0.0205 -2.7949
10109TIP3   OH251741   3.496   2.681  11.911 -0.2391  0.2131  0.1689
10109TIP3    H151742   3.514   2.719  11.997 -2.2500  0.7558  0.3884
10109TIP3    H251743   3.538   2.740  11.849 -1.7574  1.8379  0.6145
10110TIP3   OH251744   2.504   2.385  10.704 -0.3823 -0.8942 -0.4845
10110TIP3    H151745   2.507   2.323  10.631 -0.5952 -0.5568 -0.7839
10110TIP3    H251746   2.411   2.392  10.725 -0.2535 -1.7470  0.4840
10111TIP3   OH251747   1.471   0.344   4.170 -0.5357 -0.3248  0.6077
10111TIP3    H151748   1.559   0.359   4.134 -0.7451 -1.1174 -0.2691
10111TIP3    H251749   1.487   0.325   4.262  0.3047 -1.3549  0.2673
10112TIP3   OH251750   2.349   2.874   2.047  0.1164  0.2461  0.1876
10112TIP3    H151751   2.315   2.857   2.135 -0.2636 -0.4004 -0.0777
10112TIP3    H251752   2.415   2.807   2.034 -0.0471  0.1468 -0.1376
10113TIP3   OH251753   1.792   3.824   4.724 -0.0926  0.2325  0.4066
10113TIP3    H151754   1.701   3.845   4.747  0.0085  1.7684 -0.4601
10113TIP3    H251755   1.845   3.879   4.782  0.3233 -1.2212  1.4411
10114TIP3   OH251756   2.293   2.764   4.446  0.0296  1.0929  0.5222
10114TIP3    H151757   2.333   2.739   4.363 -1.1178  2.5644 -0.5287
10114TIP3    H251758   2.366   2.795   4.499  0.5495  2.0302 -0.6868
10115TIP3   OH251759   1.711   4.887   1.966  0.2207 -0.1096 -0.2684
10115TIP3    H151760   1.802   4.874   1.940  0.6361  2.0408 -0.0251
10115TIP3    H251761   1.667   4.920   1.887  0.2964  1.4055  0.2885
10116TIP3   OH251762   5.948   0.641  11.560  0.0013 -0.0021 -0.5292
10116TIP3    H151763   5.902   0.725  11.562  1.6419  0.9538  1.7796
10116TIP3    H251764   6.026   0.657  11.507 -1.7837 -1.4387 -3.8875
10117TIP3   OH251765   0.956   2.887  15.561 -0.5535 -0.2498  0.2142
10117TIP3    H151766   1.009   2.967  15.558  1.0886 -1.2531  0.8630
10117TIP3    H251767   0.928   2.879  15.652  0.2908 -0.9812  0.4351
10118TIP3   OH251768   1.858   0.825   4.094 -0.7095 -0.7636 -0.1046
10118TIP3    H151769   1.833   0.861   4.180  0.0656 -0.7550  0.1205
10118TIP3    H251770   1.794   0.863   4.034 -1.0120 -0.4422  0.4030
10119TIP3   OH251771   2.403   5.437   4.442 -0.3847 -0.1440 -0.0287
10119TIP3    H151772   2.322   5.489   4.445 -0.8689 -0.9077  0.9049
10119TIP3    H251773   2.373   5.348   4.423  0.3470 -0.2551 -0.7033
10120TIP3   OH251774   1.468   1.493  16.024 -0.4291 -0.6493 -0.3264
10120TIP3    H151775   1.419   1.412  16.037 -0.9842 -0.5955 -1.8011
10120TIP3    H251776   1.503   1.485  15.935 -1.4503  1.1757 -0.9584
10121TIP3   OH251777   4.837   5.584  12.612 -0.5849  0.1198 -0.2802
10121TIP3    H151778   4.904   5.527  12.574 -0.1079  0.6305 -0.2216
10121TIP3    H251779   4.853   5.670  12.572 -0.1541  0.6384  0.9484
10122TIP3   OH251780   0.842   3.529   5.472  0.2588 -0.0646  0.0996
10122TIP3    H151781   0.807   3.482   5.396  0.4589 -0.6329  0.3550
10122TIP3    H251782   0.765   3.551   5.524 -0.1093  2.1612 -1.2651
10123TIP3   OH251783   3.631   1.311  11.510 -0.2245 -0.0951  0.5347
10123TIP3    H151784   3.640   1.216  11.505  2.4337  0.1176 -3.0451
10123TIP3    H251785   3.556   1.330  11.453 -0.3566 -0.0081  0.7371
10124TIP3   OH251786   0.558   5.033  15.848 -0.2870 -0.0111 -0.2150
10124TIP3    H151787   0.600   5.098  15.905 -0.7341 -1.4179  1.8179
10124TIP3    H251788   0.563   4.951  15.897 -0.4898 -1.3564 -2.3449
10125TIP3   OH251789   2.185   6.597   2.782  0.0775 -0.8155  0.6295
10125TIP3    H151790   2.132   6.523   2.750  0.1007 -0.2395 -0.8058
10125TIP3    H251791   2.126   6.672   2.777  0.9469 -0.1952 -0.8485
10126TIP3   OH251792   4.958   5.478  16.346 -0.1705  0.2583  0.5241
10126TIP3    H151793   5.007   5.523  16.278 -0.3224  0.1171  0.3192
10126TIP3    H251794   4.869   5.472  16.311  0.1265 -1.3512 -0.0144
10127TIP3   OH251795   4.661   4.302   1.650  0.5365  0.2959 -0.0551
10127TIP3    H151796   4.705   4.225   1.614  2.1141  0.1609  2.0067
10127TIP3    H251797   4.588   4.267   1.701 -0.4822  0.3908 -1.3622
10128TIP3   OH251798   2.211   1.555   2.761  0.3502  0.1916 -0.1711
10128TIP3    H151799   2.159   1.498   2.704  0.3689 -2.1932  2.0565
10128TIP3    H251800   2.169   1.550   2.846  2.6789  0.3049  1.0706
10129TIP3   OH251801   3.733   5.367   2.673  0.3820 -0.2848  0.5928
10129TIP3    H151802   3.798   5.297   2.676  0.3269 -0.3518  0.1591
10129TIP3    H251803   3.784   5.446   2.656  0.4819 -0.1665  1.3967
10130TIP3   OH251804   4.096   4.061   1.899 -0.5582  0.3780  0.4003
10130TIP3    H151805   4.128   4.062   1.809 -1.5576 -1.7690 -0.0261
10130TIP3    H251806   4.022   4.123   1.899  0.0928  1.1761  0.0400
10131TIP3   OH251807   6.227   4.617   2.663  0.2299  0.0444  0.6159
10131TIP3    H151808   6.321   4.634   2.666  0.0803  1.4227 -1.0550
10131TIP3    H251809   6.190   4.678   2.727  0.2074  2.1789 -1.3231
10132TIP3   OH251810   4.390   2.471   1.287 -0.5194  0.3767 -0.0364
10132TIP3    H151811   4.424   2.560   1.276 -0.6182  0.5307  0.8757
10132TIP3    H251812   4.458   2.416   1.249 -0.5464  0.8463 -0.7922
10133TIP3   OH251813   1.143   1.306  13.709 -0.4153  0.2387  0.0657
10133TIP3    H151814   1.099   1.268  13.785 -0.2936 -2.3213 -1.0267
10133TIP3    H251815   1.100   1.264  13.634  1.8672 -0.0785 -1.1400
10134TIP3   OH251816   2.306   2.385   4.346 -0.8195  0.0789  0.2457
10134TIP3    H151817   2.317   2.403   4.253 -1.2008 -0.3946  0.1045
10134TIP3    H251818   2.370   2.316   4.365 -0.7222  0.1947  0.3408
10135TIP3   OH251819   5.342   5.498   5.181 -0.1074  0.1321 -0.2126
10135TIP3    H151820   5.379   5.586   5.168 -0.8330  0.7538  1.5528
10135TIP3    H251821   5.247   5.512   5.179 -0.2577 -0.2561  1.8447
10136TIP3   OH251822   1.023   3.833  12.410 -0.2570  0.1344  0.5094
10136TIP3    H151823   1.111   3.866  12.395 -0.5079  0.1571 -1.0185
10136TIP3    H251824   1.032   3.773  12.483  1.4309 -1.4720 -0.9447
10137TIP3   OH251825   3.650   5.237  16.213  0.4575 -0.4733 -0.8194
10137TIP3    H151826   3.741   5.208  16.225  1.0541  1.6044  0.1965
10137TIP3    H251827   3.650   5.328  16.242 -2.4679 -1.0546  1.4271
10138TIP3   OH251828   2.177   0.171  11.410 -0.4026 -0.6172  0.0991
10138TIP3    H151829   2.112   0.205  11.472 -0.5233 -1.4957  0.4735
10138TIP3    H251830   2.161   0.076  11.409  0.1687 -0.7086 -0.6252
10139TIP3   OH251831   4.664   0.045   2.054 -0.0054 -0.2941 -0.0709
10139TIP3    H151832   4.626   0.003   1.977  0.4433  0.7985 -0.9064
10139TIP3    H251833   4.591   0.050   2.116 -0.7623  0.0588 -0.9508
10140TIP3   OH251834   0.820   1.988  14.084 -0.5085  0.0780 -0.4725
10140TIP3    H151835   0.798   1.922  14.019 -1.4983  1.8727 -2.0517
10140TIP3    H251836   0.888   2.041  14.043  0.0859  0.2196  0.6547
10141TIP3   OH251837   3.291   3.162  15.179  0.0590  0.0867  0.0795
10141TIP3    H151838   3.375   3.200  15.151 -0.2905  0.1762 -0.8794
10141TIP3    H251839   3.283   3.082  15.127 -0.3092 -0.0735  0.3852
10142TIP3   OH251840   2.089   5.625  12.378  0.3092 -0.2206  0.5024
10142TIP3    H151841   2.122   5.535  12.382  0.1029 -0.3540 -0.5325
10142TIP3    H251842   2.062   5.637  12.287 -1.2514  0.3302  1.0073
10143TIP3   OH251843   4.511   4.128   3.902 -0.3642 -0.5144  0.1656
10143TIP3    H151844   4.440   4.168   3.952 -0.8472  0.2586 -1.0755
10143TIP3    H251845   4.510   4.036   3.927 -0.4158 -0.1008  1.7444
10144TIP3   OH251846   5.789   4.741   1.220  0.0688 -0.3384 -0.2206
10144TIP3    H151847   5.779   4.647   1.208  1.6590 -0.4902 -0.5194
10144TIP3    H251848   5.714   4.779   1.174 -0.1308 -1.4125 -0.8166
10145TIP3   OH251849   4.579   6.518   3.089 -0.6977  0.6814  0.4258
10145TIP3    H151850   4.630   6.590   3.127 -0.7656  1.7832 -1.4313
10145TIP3    H251851   4.511   6.562   3.037 -1.7528 -0.7489  0.5323
10146TIP3   OH251852   4.985   2.848   0.337  0.2832  0.2097  0.1646
10146TIP3    H151853   4.905   2.900   0.336  0.4526  0.5160  1.1533
10146TIP3    H251854   4.983   2.802   0.422  1.1038  0.1574  0.1709
10147TIP3   OH251855   6.157   3.798  10.477 -0.4041 -0.5087 -0.0959
10147TIP3    H151856   6.224   3.792  10.408  0.5480 -0.1233  0.7754
10147TIP3    H251857   6.111   3.879  10.458  0.3052 -0.0493  0.0973
10148TIP3   OH251858   0.521   5.408   0.819 -0.1577 -0.0974  0.4485
10148TIP3    H151859   0.473   5.329   0.843  0.6927 -0.7903 -0.0940
10148TIP3    H251860   0.597   5.377   0.771  0.6855  0.9923  1.0148
10149TIP3   OH251861   0.726   4.744   4.007 -0.1541  0.3298  0.5549
10149TIP3    H151862   0.795   4.724   4.070 -0.1441 -0.6405  0.2487
10149TIP3    H251863   0.768   4.739   3.922 -0.9124 -1.8981  0.2504
10150TIP3   OH251864   0.412   5.030   3.662  0.1823 -0.0294 -0.1767
10150TIP3    H151865   0.442   5.103   3.715  1.5863 -0.0433 -0.9113
10150TIP3    H251866   0.384   5.069   3.579 -0.3015 -0.1892 -0.0912
10151TIP3   OH251867   0.156   3.759  17.095 -0.5495 -0.7640  0.7295
10151TIP3    H151868   0.143   3.664  17.086 -0.3269 -0.8259  1.0262
10151TIP3    H251869   0.241   3.775  17.053 -0.5043 -0.7255  0.8353
10152TIP3   OH251870   3.027   4.666   0.874  0.3790 -0.4117  0.0142
10152TIP3    H151871   3.039   4.629   0.787  0.8679 -1.1550  0.3829
10152TIP3    H251872   3.055   4.596   0.933 -1.4961 -0.5399  0.8284
10153TIP3   OH251873   2.283   0.279  14.064 -0.0636 -0.3732  0.0525
10153TIP3    H151874   2.232   0.226  14.002 -2.1718 -0.2151  1.5561
10153TIP3    H251875   2.220   0.342  14.099  1.5087  0.7074  1.0679
10154TIP3   OH251876   1.543   2.694  14.335  0.2609  0.3210  0.3013
10154TIP3    H151877   1.619   2.729  14.382  0.7512  0.6326 -0.7063
10154TIP3    H251878   1.535   2.604  14.367  0.6163  0.5091  0.9438
10155TIP3   OH251879   5.591   1.910   3.073 -0.2461 -0.0294  0.1749
10155TIP3    H151880   5.582   1.827   3.121 -1.3920  0.2099  0.3841
10155TIP3    H251881   5.521   1.965   3.108 -0.2225  0.6265 -0.8063
10156TIP3   OH251882   6.323   4.689  11.814  0.8309  0.3994  0.3172
10156TIP3    H151883   6.323   4.697  11.909  0.0999  1.4946  0.2440
10156TIP3    H251884   6.288   4.772  11.783  0.5454 -0.1515 -0.8966
10157TIP3   OH251885   1.924   4.289  14.430 -0.4258  0.6431  0.3117
10157TIP3    H151886   1.943   4.334  14.347  0.6789  1.5232  0.9991
10157TIP3    H251887   1.928   4.196  14.408  1.5162  0.8262 -0.3221
10158TIP3   OH251888   2.695   3.980  11.837  0.5595  0.4071 -0.1437
10158TIP3    H151889   2.697   4.074  11.818  1.8686  0.1947 -1.1659
10158TIP3    H251890   2.698   3.938  11.751  0.5063 -0.5844  0.3251
10159TIP3   OH251891   3.479   3.819   6.671  0.0551 -0.0654 -0.3482
10159TIP3    H151892   3.554   3.782   6.625  0.4425 -0.6201  0.6883
10159TIP3    H251893   3.410   3.825   6.605  0.5990 -0.8059 -0.9921
10160TIP3   OH251894   3.205   5.574   0.837 -0.4247  0.0342  0.0376
10160TIP3    H151895   3.195   5.530   0.921  0.2825  1.1383  0.7396
10160TIP3    H251896   3.242   5.508   0.779  0.6763 -0.2958  1.0757
10161TIP3   OH251897   5.232   2.920   2.297  0.0018  0.2053 -0.4698
10161TIP3    H151898   5.164   2.856   2.320 -2.3951  2.6105 -0.3989
10161TIP3    H251899   5.234   2.918   2.201  0.8693 -0.8182 -0.4527
10162TIP3   OH251900   2.709   6.558   4.330  0.0556  0.4951 -0.0173
10162TIP3    H151901   2.722   6.610   4.250  0.2716  3.3643  1.7695
10162TIP3    H251902   2.617   6.529   4.325 -0.3643  1.8670 -0.6215
10163TIP3   OH251903   5.263   1.956   5.595 -0.3867 -0.1920 -0.5512
10163TIP3    H151904   5.323   2.019   5.633 -1.7698 -0.2751  2.0350
10163TIP3    H251905   5.313   1.875   5.588  0.4944  0.3742 -0.8532
10164TIP3   OH251906   5.526   2.000   0.687 -0.4058 -0.0839 -0.1462
10164TIP3    H151907   5.456   1.979   0.626  0.2165 -2.2369 -0.1984
10164TIP3    H251908   5.568   2.077   0.650 -0.9456 -0.4811 -1.6490
10165TIP3   OH251909   1.470   4.551  15.171 -0.3356  0.3162 -0.4298
10165TIP3    H151910   1.551   4.535  15.123 -0.9506 -1.4244 -0.9624
10165TIP3    H251911   1.481   4.506  15.254 -0.7381  0.0996 -0.4893
10166TIP3   OH251912   3.689   6.092  14.410  0.2546  0.7594 -0.2303
10166TIP3    H151913   3.653   6.105  14.498  0.3979  2.0184 -0.3294
10166TIP3    H251914   3.621   6.124  14.351 -0.7177 -2.0326 -0.7308
10167TIP3   OH251915   5.970   4.650   3.460 -0.1759  0.1172 -0.3993
10167TIP3    H151916   5.942   4.559   3.450 -1.2434  0.3392  0.3769
10167TIP3    H251917   5.895   4.694   3.500  1.1408  0.8235  1.4500
10168TIP3   OH251918   6.527   4.350   2.541  0.4015  0.1703  0.2092
10168TIP3    H151919   6.612   4.312   2.564  0.5361  0.7119  0.6495
10168TIP3    H251920   6.512   4.323   2.451  1.2415  0.4157 -0.0141
10169TIP3   OH251921   2.387   0.857  14.166 -0.2889  0.3772  0.0594
10169TIP3    H151922   2.395   0.762  14.179  0.8811  0.6776  1.8737
10169TIP3    H251923   2.449   0.878  14.097 -1.5542 -0.3253 -1.3552
10170TIP3   OH251924   0.527   0.264  13.941 -0.0722  0.1057 -0.0306
10170TIP3    H151925   0.595   0.330  13.955  0.1822 -0.5166  1.9135
10170TIP3    H251926   0.484   0.291  13.860  1.7122  1.1743 -0.6788
10171TIP3   OH251927   5.194   5.806  13.736  0.4153  0.0962 -0.2781
10171TIP3    H151928   5.122   5.860  13.770  0.2113 -2.1631  3.4746
10171TIP3    H251929   5.150   5.738  13.685 -0.2243 -1.0843  1.7266
10172TIP3   OH251930   1.316   5.216  16.665 -0.0996 -0.4535 -0.0697
10172TIP3    H151931   1.248   5.282  16.677  0.0223 -0.5079  1.0154
10172TIP3    H251932   1.268   5.135  16.648 -0.2961 -0.4278  0.3623
10173TIP3   OH251933   0.422   2.846  11.906 -0.8102 -0.0335 -0.0080
10173TIP3    H151934   0.492   2.901  11.869 -0.1504 -0.8641 -0.0342
10173TIP3    H251935   0.372   2.905  11.961 -0.3383  0.6808 -0.3251
10174TIP3   OH251936   3.999   1.284   2.720  0.2727  0.1576  0.0606
10174TIP3    H151937   4.090   1.294   2.691  0.4850 -0.6716  0.3936
10174TIP3    H251938   4.001   1.208   2.778 -0.3747  1.0200  1.2425
10175TIP3   OH251939   4.855   5.910  16.359  0.6394  0.2169 -0.4815
10175TIP3    H151940   4.914   5.834  16.364 -0.1780 -0.4341 -0.5953
10175TIP3    H251941   4.838   5.932  16.451  2.0133  1.1819 -0.4257
10176TIP3   OH251942   5.516   1.212  14.930 -0.0244  0.2472  0.9436
10176TIP3    H151943   5.475   1.270  14.994  1.3387 -0.0054  2.0799
10176TIP3    H251944   5.442   1.165  14.890 -1.0609  1.9159  0.7923
10177TIP3   OH251945   3.673   5.056   3.845  0.4545  0.3268  0.3745
10177TIP3    H151946   3.752   5.095   3.808  0.3702 -0.1202 -0.3117
10177TIP3    H251947   3.618   5.038   3.768  0.5446 -1.2394  0.6334
10178TIP3   OH251948   2.042   3.892   1.802  0.0121 -0.7249 -0.0116
10178TIP3    H151949   1.986   3.950   1.749 -0.6624 -2.6982 -1.6035
10178TIP3    H251950   2.131   3.911   1.772 -0.1635 -0.3044 -0.2823
10179TIP3   OH251951   3.853   0.762   4.266 -0.3736  0.5221  0.0800
10179TIP3    H151952   3.788   0.829   4.245 -0.5226 -0.2964 -2.3434
10179TIP3    H251953   3.865   0.770   4.361 -3.4129  1.2278  0.5192
10180TIP3   OH251954   5.997   1.792  17.002  0.4327 -0.8140  0.1973
10180TIP3    H151955   6.089   1.811  17.021  0.1484  1.0825 -0.1089
10180TIP3    H251956   5.956   1.785  17.088  0.3124  1.5786  0.4259
10181TIP3   OH251957   2.181   1.673   6.107 -0.2599  0.5830 -0.2716
10181TIP3    H151958   2.161   1.759   6.144 -0.8316  0.6905 -0.8214
10181TIP3    H251959   2.277   1.670   6.104 -0.2136  0.7831  0.7099
10182TIP3   OH251960   4.233   0.083   1.992  0.2134 -0.3704 -0.6723
10182TIP3    H151961   4.175   0.007   2.003  1.8876 -1.3831  2.1116
10182TIP3    H251962   4.181   0.146   1.942 -1.9128 -2.6059 -1.4720
10183TIP3   OH251963   0.210   3.039   0.955  0.1900 -0.7001  0.6491
10183TIP3    H151964   0.273   3.058   1.025 -0.6441  0.4074  1.1163
10183TIP3    H251965   0.157   3.118   0.947  0.0511 -0.9298 -1.0289
10184TIP3   OH251966   6.475   5.742  16.750  0.3649  0.2718  0.2273
10184TIP3    H151967   6.474   5.774  16.840  0.2388  3.3403 -0.7246
10184TIP3    H251968   6.512   5.654  16.755 -0.1616  0.1226  3.2937
10185TIP3   OH251969   4.054   4.819   1.861  0.0622  0.1052 -0.0584
10185TIP3    H151970   4.021   4.846   1.776 -0.4646 -0.7421 -0.1337
10185TIP3    H251971   4.003   4.741   1.883  0.5057  0.0526  0.8253
10186TIP3   OH251972   6.799   3.781  11.067  0.0812 -0.2459  0.1058
10186TIP3    H151973   6.828   3.864  11.029  0.6659 -0.2510  0.5148
10186TIP3    H251974   6.720   3.804  11.117 -0.9598 -0.3306 -1.4563
10187TIP3   OH251975   6.289   4.248  17.089 -0.4553  0.3887  0.1164
10187TIP3    H151976   6.224   4.279  17.026 -1.1997  0.4610  0.8930
10187TIP3    H251977   6.238   4.194  17.151  0.4496 -0.6486 -0.0102
10188TIP3   OH251978   0.608   3.644   1.679  0.6051  0.4569  0.1167
10188TIP3    H151979   0.650   3.608   1.601 -0.2551 -1.2167  0.3968
10188TIP3    H251980   0.538   3.700   1.645  1.2740  1.0504 -0.3087
10189TIP3   OH251981   6.218   1.640   1.032  0.1909 -0.7277 -0.4272
10189TIP3    H151982   6.151   1.699   1.065 -0.5875  0.1558 -3.2491
10189TIP3    H251983   6.299   1.692   1.032  0.1707 -0.6967 -0.0667
10190TIP3   OH251984   0.066   6.324   0.392  0.3488  0.2659 -0.1469
10190TIP3    H151985   0.071   6.257   0.461  1.5070  0.5740  0.0874
10190TIP3    H251986  -0.004   6.293   0.335  0.2692 -0.6963  0.4361
10191TIP3   OH251987   5.669   2.202  12.628  0.2836 -0.2025 -0.0748
10191TIP3    H151988   5.597   2.143  12.605  1.4797 -1.8341  0.1805
10191TIP3    H251989   5.692   2.245  12.545 -0.3207 -0.4043 -0.3550
10192TIP3   OH251990   3.278   3.688   2.875 -0.0779 -0.2107  0.1382
10192TIP3    H151991   3.348   3.625   2.889 -0.8776 -0.5647  3.1934
10192TIP3    H251992   3.324   3.769   2.850  1.5896 -0.2323  2.7215
10193TIP3   OH251993   2.223   6.066   2.501  0.0304 -0.1468 -0.4114
10193TIP3    H151994   2.165   5.992   2.483  0.5434 -0.7077  0.1659
10193TIP3    H251995   2.307   6.025   2.524  1.0845  0.6505 -2.5593
10194TIP3   OH251996   5.000   3.535   5.963 -1.0996  0.2007 -0.3920
10194TIP3    H151997   4.909   3.546   5.934 -1.3656  0.5745  0.5621
10194TIP3    H251998   5.008   3.592   6.039  0.1882  0.8256 -0.9660
10195TIP3   OH251999   2.233   1.124  14.486  0.3447 -0.2256 -0.8645
10195TIP3    H152000   2.305   1.155  14.542  0.1118 -0.0256 -0.6670
10195TIP3    H252001   2.171   1.197  14.486 -0.4729 -0.8853  0.0559
10196TIP3   OH252002   0.089   0.167  16.633 -0.3689 -0.6248  0.1363
10196TIP3    H152003   0.025   0.194  16.699  0.1037  0.7739  0.0612
10196TIP3    H252004   0.163   0.134  16.684  0.0153  0.4989  0.3480
10197TIP3   OH252005   6.124   6.115   4.612 -0.6095 -0.1909 -0.3556
10197TIP3    H152006   6.052   6.061   4.644  0.6631 -1.8106 -0.0851
10197TIP3    H252007   6.190   6.052   4.581  0.6109  1.2232 -0.7670
10198TIP3   OH252008   4.432   1.059   5.352  0.0225 -0.2488  0.1164
10198TIP3    H152009   4.346   1.021   5.371 -0.3635 -0.0794 -1.1785
10198TIP3    H252010   4.421   1.152   5.371 -0.0560 -0.2441  0.0509
10199TIP3   OH252011   0.231   5.132   2.390 -0.6737  0.4271 -0.3022
10199TIP3    H152012   0.278   5.066   2.440 -3.3363 -0.9414  0.5787
10199TIP3    H252013   0.186   5.185   2.456 -0.9735  1.2311 -1.1226
10200TIP3   OH252014   4.585   1.008   0.471 -0.2435  0.2136 -0.1138
10200TIP3    H152015   4.546   0.963   0.396 -0.7978 -0.5416  0.6164
10200TIP3    H252016   4.551   0.963   0.548  2.6104 -0.9816  0.5899
10201TIP3   OH252017   5.830   4.961   4.604 -0.2569  0.2044 -0.0260
10201TIP3    H152018   5.903   4.996   4.656 -1.1492  1.2200  0.5763
10201TIP3    H252019   5.821   5.021   4.530  0.1697 -0.5081 -0.6723
10202TIP3   OH252020   2.864   1.978  13.511  0.4436 -0.2993 -0.3131
10202TIP3    H152021   2.784   1.992  13.461  0.1601  0.2329  0.2760
10202TIP3    H252022   2.894   2.066  13.534  0.2984 -0.5376  0.8622
10203TIP3   OH252023   0.323   0.376  16.645  0.1945  0.3247  0.4886
10203TIP3    H152024   0.370   0.391  16.563  0.5907 -0.2552  0.5998
10203TIP3    H252025   0.275   0.295  16.631  0.1253  0.3164  0.7679
10204TIP3   OH252026   5.768   1.725   4.923  0.3092 -1.0552 -0.0090
10204TIP3    H152027   5.724   1.672   4.857 -1.3814 -0.2113  0.3859
10204TIP3    H252028   5.750   1.680   5.006 -1.5859  0.3306  0.3919
10205TIP3   OH252029   1.488   5.791   2.444 -0.0143 -0.3091 -0.5530
10205TIP3    H152030   1.527   5.878   2.445  0.2580 -0.4195  0.9147
10205TIP3    H252031   1.553   5.736   2.400 -0.0549  0.1739 -1.2134
10206TIP3   OH252032   6.044   3.551   3.873  0.0230 -0.7864 -0.0891
10206TIP3    H152033   6.054   3.476   3.815 -2.7298 -0.5560 -0.9807
10206TIP3    H252034   6.035   3.512   3.960 -1.6015 -1.5636 -0.5694
10207TIP3   OH252035   4.748   4.688  14.851 -0.6676 -0.6298  0.1300
10207TIP3    H152036   4.805   4.760  14.823 -0.2133 -0.6095  1.0825
10207TIP3    H252037   4.783   4.611  14.805 -0.3531 -0.4822  0.1213
10208TIP3   OH252038   0.813   2.440  10.698  0.2107  0.2794 -0.3542
10208TIP3    H152039   0.815   2.468  10.789 -4.0500  1.8640 -0.5198
10208TIP3    H252040   0.816   2.522  10.648  1.5283 -0.5118 -1.6681
10209TIP3   OH252041   6.382   2.134   5.849 -0.0057  0.3054  0.0989
10209TIP3    H152042   6.346   2.222   5.864 -0.9827  0.0037 -0.4753
10209TIP3    H252043   6.434   2.117   5.928 -1.0412  0.7859  0.9171
10210TIP3   OH252044   6.409   4.993   3.214  0.0785 -0.1397  0.3596
10210TIP3    H152045   6.445   5.076   3.184  0.1139  0.1469  1.1562
10210TIP3    H252046   6.484   4.945   3.248  0.7259 -2.0341 -3.2693
10211TIP3   OH252047   5.997   2.436  15.167 -0.3504  0.3115 -0.5625
10211TIP3    H152048   6.069   2.383  15.133 -1.4570 -1.6613 -0.0063
10211TIP3    H252049   5.958   2.476  15.089  0.5457  0.3496 -0.9962
10212TIP3   OH252050   2.474   2.195   1.214  1.1748  0.2996  0.4618
10212TIP3    H152051   2.480   2.133   1.287  0.3184  0.2218  0.4714
10212TIP3    H252052   2.555   2.180   1.164  1.7158  0.2739  1.3231
10213TIP3   OH252053   2.937   1.554  11.726  0.1124  0.9527 -0.2719
10213TIP3    H152054   2.981   1.563  11.811 -0.0670  1.7121 -0.2476
10213TIP3    H252055   2.861   1.499  11.745 -0.5072  1.9588  0.3037
10214TIP3   OH252056   6.370   1.329   4.312 -0.6486 -0.0977  0.6027
10214TIP3    H152057   6.430   1.310   4.384 -0.1453 -1.1498 -0.0558
10214TIP3    H252058   6.311   1.396   4.346  1.3999  1.6006  1.0308
10215TIP3   OH252059   3.658   3.557   4.244  0.5576  0.6830 -0.0055
10215TIP3    H152060   3.662   3.522   4.154  0.4510  1.2842 -0.2491
10215TIP3    H252061   3.719   3.502   4.293 -0.0791 -0.2523 -0.2334
10216TIP3   OH252062   4.104   1.577   0.737 -0.3912 -0.6976  0.3586
10216TIP3    H152063   4.015   1.611   0.745  0.1740  0.3683  2.5561
10216TIP3    H252064   4.102   1.495   0.786 -0.3216 -1.0807 -0.2591
10217TIP3   OH252065   6.248   3.685   4.257 -0.6517  0.4535  0.0791
10217TIP3    H152066   6.229   3.750   4.189 -2.8458 -0.0133  0.1781
10217TIP3    H252067   6.162   3.654   4.285  0.2731 -0.6821  1.8101
10218TIP3   OH252068   5.796   0.298  14.871 -0.2421 -0.2047  0.0435
10218TIP3    H152069   5.717   0.287  14.924  0.1454  2.2001  1.2602
10218TIP3    H252070   5.862   0.328  14.933  0.6676  1.1725 -1.5208
10219TIP3   OH252071   3.007   0.371   0.663 -0.1581  0.0715  0.3610
10219TIP3    H152072   2.999   0.374   0.568 -2.5576 -1.1490  0.4495
10219TIP3    H252073   3.024   0.279   0.684 -2.3241 -0.2276  1.1641
10220TIP3   OH252074   5.923   2.071   3.463 -0.0685  0.3752  0.1956
10220TIP3    H152075   5.992   2.099   3.402 -0.5792 -0.2341 -0.6849
10220TIP3    H252076   5.960   1.996   3.509  0.0258  0.3219  0.0340
10221TIP3   OH252077   1.606   3.045   0.113  0.2498  0.2337 -0.1793
10221TIP3    H152078   1.688   3.093   0.126  0.8935 -0.9891  0.4674
10221TIP3    H252079   1.566   3.086   0.037  1.4448  0.8769 -0.4872
10222TIP3   OH252080   5.296   5.988   1.321 -0.3615  0.4764 -0.0336
10222TIP3    H152081   5.337   5.984   1.234  0.0692 -0.8660  0.2137
10222TIP3    H252082   5.279   6.081   1.335 -0.5693  0.7049 -1.6184
10223TIP3   OH252083   5.094   1.915   0.185  0.4220  0.4703 -0.2590
10223TIP3    H152084   5.190   1.914   0.182  0.4113  0.9348 -0.7336
10223TIP3    H252085   5.074   1.968   0.262  0.5378  0.9655 -0.5706
10224TIP3   OH252086   2.175   5.822  16.746 -0.2242  0.2355  0.0778
10224TIP3    H152087   2.172   5.746  16.687 -0.2357  0.2474  0.0633
10224TIP3    H252088   2.111   5.802  16.814  1.7475 -1.0381  1.6510
10225TIP3   OH252089   4.998   5.791   4.185 -0.0948 -0.2615 -0.7670
10225TIP3    H152090   4.951   5.815   4.106 -0.9787 -1.5626 -0.6695
10225TIP3    H252091   4.930   5.762   4.246  0.6423 -0.0729  0.1755
10226TIP3   OH252092   4.127   4.514   4.996  0.2918 -0.2687  0.1898
10226TIP3    H152093   4.127   4.418   5.004  0.1706 -0.2660  0.2379
10226TIP3    H252094   4.218   4.537   4.977  0.1900 -0.4511 -0.5328
10227TIP3   OH252095   1.326   6.094  17.031 -0.8813 -0.6309 -0.8173
10227TIP3    H152096   1.395   6.048  16.983 -2.1517 -1.8733 -1.5174
10227TIP3    H252097   1.335   6.063  17.121 -0.7367 -1.0390 -0.9711
10228TIP3   OH252098   6.761   3.760   0.937  0.5154 -0.1016 -0.0150
10228TIP3    H152099   6.833   3.747   0.999  1.1478 -0.1435 -0.7435
10228TIP3    H252100   6.804   3.792   0.858 -0.4745  1.8360  0.1770
10229TIP3   OH252101   0.537   0.918  11.757 -0.4734 -0.3671  0.0361
10229TIP3    H152102   0.541   0.984  11.826  0.4814  0.2013 -0.5478
10229TIP3    H252103   0.489   0.845  11.797 -0.2942  0.1071  1.1607
10230TIP3   OH252104   5.212   0.304   3.363  0.0022  0.4379  0.1894
10230TIP3    H152105   5.163   0.301   3.445 -2.0990  2.3787 -0.8908
10230TIP3    H252106   5.195   0.219   3.322 -0.6903  0.2639  0.8115
10231TIP3   OH252107   5.343   1.968   4.148 -0.2232  0.0109  0.5455
10231TIP3    H152108   5.318   1.911   4.221 -0.4353 -0.0553  0.4220
10231TIP3    H252109   5.336   1.912   4.071 -0.1598  0.1266  0.4566
10232TIP3   OH252110   0.315   6.214  17.027 -0.0740  0.3861 -0.0873
10232TIP3    H152111   0.350   6.303  17.039 -1.4169  1.0914 -1.1187
10232TIP3    H252112   0.340   6.168  17.107  0.9306  1.5886  0.3355
10233TIP3   OH252113   6.547   2.643   0.027 -0.2852 -0.2627 -0.5806
10233TIP3    H152114   6.495   2.575   0.071 -1.3311  0.4304 -0.7072
10233TIP3    H252115   6.502   2.658  -0.056 -0.8212  1.4540 -0.0216
10234TIP3   OH252116   0.903   0.170  16.191  0.1702 -0.4507  0.3070
10234TIP3    H152117   0.884   0.080  16.215  0.1571 -0.8178 -0.9834
10234TIP3    H252118   0.907   0.169  16.095  1.7482  0.5862  0.3171
10235TIP3   OH252119   5.808   1.385  14.478 -0.4439  0.0364 -0.3729
10235TIP3    H152120   5.892   1.424  14.458 -1.0248  3.0687  2.3091
10235TIP3    H252121   5.750   1.415  14.408 -0.4402  2.6431  0.6465
10236TIP3   OH252122   4.624   5.834  16.224 -0.6422 -0.2098  0.3888
10236TIP3    H152123   4.536   5.852  16.190 -0.6332 -0.2761  0.3324
10236TIP3    H252124   4.625   5.878  16.309  0.3624  2.5878 -0.9465
10237TIP3   OH252125   3.226   0.441   0.268  0.0952  0.2164  0.2158
10237TIP3    H152126   3.140   0.412   0.300  0.0659  0.6640  0.5567
10237TIP3    H252127   3.277   0.361   0.261 -0.5486 -0.1309 -0.6081
10238TIP3   OH252128   4.806   4.038   2.635  0.0471 -0.2152  0.0483
10238TIP3    H152129   4.798   4.129   2.666 -0.4254 -0.3905  0.4618
10238TIP3    H252130   4.725   4.022   2.586  1.4121  0.5289 -2.6243
10239TIP3   OH252131   1.637   1.392   1.535  0.1221  0.1979 -0.5097
10239TIP3    H152132   1.662   1.477   1.572  1.5777 -0.2532 -0.4001
10239TIP3    H252133   1.700   1.376   1.465 -0.8032 -0.3158 -1.2498
10240TIP3   OH252134   4.661   3.514  15.417  0.2675  0.6234 -0.2253
10240TIP3    H152135   4.636   3.491  15.327 -4.1396  0.2418  0.8932
10240TIP3    H252136   4.606   3.588  15.439  0.2131 -0.1625  2.6180
10241TIP3   OH252137   6.437   3.278   4.763 -0.2527  0.5303  0.3411
10241TIP3    H152138   6.385   3.197   4.754 -0.8283  0.8966  0.3221
10241TIP3    H252139   6.472   3.293   4.675  0.5428 -0.1425  0.5255
10242TIP3   OH252140   0.646   6.167   4.800  0.1199  0.0308 -0.9937
10242TIP3    H152141   0.711   6.097   4.804 -0.5550 -0.5896  2.9923
10242TIP3    H252142   0.569   6.132   4.844 -1.0646  2.5367 -0.8583
10243TIP3   OH252143   6.443   3.220  13.736  0.2595  0.0057  0.1349
10243TIP3    H152144   6.488   3.168  13.802  0.7185 -1.6773 -1.4208
10243TIP3    H252145   6.444   3.309  13.771  0.9539 -0.7252  2.1178
10244TIP3   OH252146   0.180   2.397  14.395  0.5585 -0.0253  0.1419
10244TIP3    H152147   0.116   2.467  14.413  1.4608  0.9058 -0.1972
10244TIP3    H252148   0.127   2.325  14.361 -0.2808  0.8484 -0.4553
10245TIP3   OH252149   3.540   0.624   4.834 -0.8785 -0.4299  0.1921
10245TIP3    H152150   3.447   0.644   4.836 -1.0806 -1.3242  0.3649
10245TIP3    H252151   3.567   0.620   4.926 -0.3668  1.0642  0.1398
10246TIP3   OH252152   2.855   5.690   3.553 -0.9114 -0.0518 -0.1696
10246TIP3    H152153   2.813   5.754   3.610  1.0439  0.6790  0.5251
10246TIP3    H252154   2.909   5.638   3.611  0.2991  0.0104 -1.1972
10247TIP3   OH252155   2.654   4.732   0.224  0.1583 -0.5103  0.7106
10247TIP3    H152156   2.626   4.667   0.161  0.8757  0.9593 -1.2189
10247TIP3    H252157   2.749   4.738   0.212  0.0416  1.2993  0.3817
10248TIP3   OH252158   1.224   6.622  17.128 -0.3767 -0.2970  0.9317
10248TIP3    H152159   1.133   6.650  17.116  0.1358  2.2897  2.3917
10248TIP3    H252160   1.263   6.630  17.040 -0.9044  1.3519  0.8068
10249TIP3   OH252161   3.437   2.934   1.366 -0.4819  0.1561 -0.3321
10249TIP3    H152162   3.426   2.890   1.450  0.9827  0.5033  0.0746
10249TIP3    H252163   3.420   3.026   1.385 -0.6226  0.1701 -0.5260
10250TIP3   OH252164   0.382   5.508   0.577  0.5154  0.7255 -0.1783
10250TIP3    H152165   0.399   5.478   0.666  0.5923  0.7805 -0.1749
10250TIP3    H252166   0.417   5.439   0.521  1.0953  1.0184 -0.1789
10251TIP3   OH252167   2.405   0.151  11.201 -0.4777  0.0519  0.0110
10251TIP3    H152168   2.408   0.181  11.110  1.4628 -0.3725 -0.0955
10251TIP3    H252169   2.314   0.168  11.228 -0.7987  1.2319 -1.6304
10252TIP3   OH252170   4.887   1.172  15.795  0.1265 -0.2273 -0.4222
10252TIP3    H152171   4.898   1.123  15.877  2.3321 -1.5144 -1.3790
10252TIP3    H252172   4.865   1.261  15.822 -4.0833 -1.5735  1.4219
10253TIP3   OH252173   2.862   0.622   5.908  0.0898 -0.2366  0.1484
10253TIP3    H152174   2.946   0.655   5.874  0.1615 -1.6988 -1.2061
10253TIP3    H252175   2.883   0.588   5.995  0.5801  0.7372  0.4242
10254TIP3   OH252176   0.519   0.324   1.866 -0.3599  0.1765 -0.0228
10254TIP3    H152177   0.457   0.382   1.911 -1.1976 -1.5306  1.1310
10254TIP3    H252178   0.520   0.355   1.775 -4.3850 -0.7780 -0.5871
10255TIP3   OH252179   5.870   3.290   2.842  0.8775  0.9344 -0.4417
10255TIP3    H152180   5.897   3.204   2.875 -1.4998  0.7706  1.3402
10255TIP3    H252181   5.905   3.293   2.753 -1.9356 -3.5627 -2.0863
10256TIP3   OH252182   3.144   0.651   0.560  0.0293 -0.7318  0.3898
10256TIP3    H152183   3.114   0.561   0.548  1.1975 -1.0370 -0.4397
10256TIP3    H252184   3.195   0.670   0.481 -0.3704  0.7327  0.4478
10257TIP3   OH252185   1.821   0.345   5.675  0.0188 -0.1407 -0.2817
10257TIP3    H152186   1.795   0.255   5.657 -1.8659  0.3538 -0.1954
10257TIP3    H252187   1.802   0.392   5.593  0.8682  0.2241 -0.2827
10258TIP3   OH252188   2.426   5.829  14.851 -0.0109 -0.5053 -0.4803
10258TIP3    H152189   2.364   5.897  14.878 -0.6294 -1.7143  1.3361
10258TIP3    H252190   2.512   5.869  14.862 -0.3993  0.4181 -0.7176
10259TIP3   OH252191   5.792   4.007  12.978 -0.1593  0.0853  0.3483
10259TIP3    H152192   5.885   3.993  12.994 -0.3619 -0.7345  0.8437
10259TIP3    H252193   5.749   3.970  13.055 -1.0300 -1.7507 -0.9532
10260TIP3   OH252194   2.891   4.583   3.741 -0.2369 -0.3111  0.5563
10260TIP3    H152195   2.948   4.528   3.688 -0.4327 -1.5042  1.5311
10260TIP3    H252196   2.922   4.672   3.726  0.6685 -0.7638 -0.3631
10261TIP3   OH252197   0.326   0.452   2.020  0.2641  0.2835  0.0601
10261TIP3    H152198   0.350   0.426   2.109 -1.8222  0.2198  0.6674
10261TIP3    H252199   0.311   0.547   2.026  2.0205  0.6480 -0.7291
10262TIP3   OH252200   6.128   4.983   1.118 -0.1082  0.1223  0.3808
10262TIP3    H152201   6.081   5.066   1.125  0.8253  0.5933  1.1149
10262TIP3    H252202   6.220   5.006   1.117  0.1477 -0.8251 -0.7544
10263TIP3   OH252203   1.639   3.116  16.086 -0.8992  0.3507  1.2737
10263TIP3    H152204   1.639   3.045  16.151  0.5139 -0.2556  0.6432
10263TIP3    H252205   1.705   3.177  16.118  0.5055 -0.4137 -0.0331
10264TIP3   OH252206   4.875   6.006  14.984  0.3434 -0.0963 -0.2682
10264TIP3    H152207   4.858   5.945  15.056 -1.1270  1.5566  0.8654
10264TIP3    H252208   4.834   5.966  14.907  0.4557 -1.0842  0.1840
10265TIP3   OH252209   2.567   2.984   5.202  0.1442 -0.1007 -0.1969
10265TIP3    H152210   2.528   3.072   5.193  1.1068  0.2816 -0.8643
10265TIP3    H252211   2.507   2.927   5.153  0.1017  0.3730 -0.7115
10266TIP3   OH252212   2.219   2.854  12.597 -0.3421 -0.1440 -0.1106
10266TIP3    H152213   2.214   2.940  12.555 -0.2427 -0.1231 -0.0818
10266TIP3    H252214   2.297   2.813  12.558 -0.8281 -0.5310 -0.6942
10267TIP3   OH252215   5.023   4.668  11.453  0.2102  0.7213  0.6759
10267TIP3    H152216   5.046   4.740  11.511 -0.1139  0.0467  1.6778
10267TIP3    H252217   4.971   4.708  11.384 -1.3184  1.2398  2.0626
10268TIP3   OH252218   5.218   0.648   0.053 -0.5654  0.8725 -0.0553
10268TIP3    H152219   5.255   0.616  -0.030 -2.9134 -0.1408 -0.8162
10268TIP3    H252220   5.186   0.736   0.032  1.2980  1.7382  0.5940
10269TIP3   OH252221   4.827   1.248  11.765 -0.0583  0.1707  0.0832
10269TIP3    H152222   4.764   1.281  11.829  1.2190  1.9142  0.5294
10269TIP3    H252223   4.867   1.171  11.807 -1.5562 -0.7176 -0.0540
10270TIP3   OH252224   1.173   1.313   0.683  0.6281  0.3849 -0.2341
10270TIP3    H152225   1.208   1.361   0.758 -1.2853  0.2347  0.8021
10270TIP3    H252226   1.135   1.381   0.627 -0.8731  0.2561  0.5760
10271TIP3   OH252227   6.703   5.008  11.153  0.0169  0.1488  0.1857
10271TIP3    H152228   6.769   5.033  11.088 -0.2554 -1.3652 -0.7409
10271TIP3    H252229   6.752   4.959  11.219  0.2348  1.3632  0.9358
10272TIP3   OH252230   5.167   0.852  14.648 -0.3158 -0.5133  0.2701
10272TIP3    H152231   5.091   0.820  14.698 -1.9152 -0.5908 -2.0411
10272TIP3    H252232   5.138   0.935  14.611  0.9121 -0.3120 -0.2905
10273TIP3   OH252233   2.003   6.804  11.772  0.4751 -0.8319 -0.1226
10273TIP3    H152234   1.946   6.775  11.701  0.3969  0.2433 -0.5195
10273TIP3    H252235   2.070   6.858  11.728 -0.4105  1.0701  0.7453
10274TIP3   OH252236   5.838   4.080  15.960 -0.5105  0.9969 -0.0272
10274TIP3    H152237   5.903   4.066  15.891 -0.6189 -0.7215  0.1851
10274TIP3    H252238   5.756   4.047  15.923 -0.3826 -0.8408  1.2377
10275TIP3   OH252239   6.545   6.115  15.716 -0.1260 -0.2547  0.2718
10275TIP3    H152240   6.527   6.207  15.733  1.5147  0.4946 -1.6814
10275TIP3    H252241   6.605   6.089  15.787  0.6739  0.6574 -0.0488
10276TIP3   OH252242   3.388   0.742  13.939  0.7078 -0.8928  0.4733
10276TIP3    H152243   3.320   0.689  13.897  0.9575  0.0241 -1.2309
10276TIP3    H252244   3.346   0.827  13.952  1.0415 -0.7938  0.9061
10277TIP3   OH252245   4.193   4.015   5.986 -0.0848  0.2033 -0.6656
10277TIP3    H152246   4.162   4.105   5.978  0.4957  0.4601 -0.0759
10277TIP3    H252247   4.177   3.992   6.077 -0.0563 -0.2283 -0.7675
10278TIP3   OH252248   5.396   0.882   2.257 -0.4153 -0.5000  0.1635
10278TIP3    H152249   5.353   0.910   2.338 -0.5887 -0.6078  0.1108
10278TIP3    H252250   5.406   0.962   2.206  0.7380 -0.2373  0.7686
10279TIP3   OH252251   4.359   1.497   0.355 -0.0120  0.1754  0.3097
10279TIP3    H152252   4.357   1.534   0.267 -0.9265 -0.9126 -0.1594
10279TIP3    H252253   4.375   1.403   0.342  1.5444  0.2432  1.4144
10280TIP3   OH252254   1.776   2.690   0.835 -0.8393  0.0376  0.6126
10280TIP3    H152255   1.687   2.686   0.799 -0.4126 -1.1633 -0.3769
10280TIP3    H252256   1.828   2.634   0.778  1.1307  2.6300 -0.3852
10281TIP3   OH252257   4.782   5.048   4.994 -0.7603 -0.6836 -0.3934
10281TIP3    H152258   4.787   5.144   5.000  0.0518 -0.7606  0.2664
10281TIP3    H252259   4.798   5.029   4.901  4.8504 -0.4625  0.2285
10282TIP3   OH252260   4.423   5.333   2.763  0.2266  0.5948 -0.1239
10282TIP3    H152261   4.355   5.323   2.829  0.4604  0.3788  0.0845
10282TIP3    H252262   4.442   5.427   2.763  3.0861  0.2004  3.0458
10283TIP3   OH252263   4.784   2.013  13.991 -0.3697  0.5379  0.6993
10283TIP3    H152264   4.797   2.085  13.928  1.1716 -0.0126  0.3541
10283TIP3    H252265   4.742   2.055  14.066 -0.2908  1.6328  0.1547
10284TIP3   OH252266   6.170   5.524   4.706 -0.0828 -0.5624 -0.1184
10284TIP3    H152267   6.118   5.558   4.634 -0.8913 -2.4914 -0.5024
10284TIP3    H252268   6.246   5.583   4.711 -2.2564  2.4491  0.5425
10285TIP3   OH252269   4.738   2.126  15.880 -0.0195  0.0162  0.1643
10285TIP3    H152270   4.709   2.208  15.841 -1.8792 -1.6664 -2.3250
10285TIP3    H252271   4.696   2.124  15.966 -1.5663  0.8461 -0.5310
10286TIP3   OH252272   2.158   2.629   2.421  0.3945  0.1008  0.3449
10286TIP3    H152273   2.105   2.699   2.382  1.6959  2.2085  2.1028
10286TIP3    H252274   2.205   2.672   2.493  1.9268 -2.4250  0.9829
10287TIP3   OH252275   0.755   0.031   4.455 -0.8423  0.1372 -0.5469
10287TIP3    H152276   0.803   0.021   4.373  1.2004  0.3167  0.5446
10287TIP3    H252277   0.766   0.123   4.478  3.8952 -0.8569  2.7561
10288TIP3   OH252278   1.565   2.063  12.868 -0.1997 -0.0791 -0.3128
10288TIP3    H152279   1.638   2.003  12.887 -0.3202 -0.3866 -0.7997
10288TIP3    H252280   1.597   2.149  12.898  0.3617 -0.2108 -0.5060
10289TIP3   OH252281   5.126   5.282  11.312  0.5229 -0.0864  0.1589
10289TIP3    H152282   5.108   5.271  11.218 -2.1342  0.3371  0.5296
10289TIP3    H252283   5.093   5.201  11.352  1.9998 -0.4389  0.7326
10290TIP3   OH252284   2.168   4.799  13.545  0.6010  0.1996  0.1484
10290TIP3    H152285   2.164   4.873  13.605  0.1500  0.2680  0.0323
10290TIP3    H252286   2.258   4.801  13.512  0.9240  0.0066  1.0079
10291TIP3   OH252287   0.330   0.784  11.042  0.4304 -0.5432  0.2590
10291TIP3    H152288   0.366   0.860  11.088 -1.3706 -1.0089  2.5570
10291TIP3    H252289   0.400   0.759  10.980  2.3591  1.0015  1.6822
10292TIP3   OH252290   3.197   0.572  15.707  0.2997  0.7628  0.0871
10292TIP3    H152291   3.115   0.611  15.675  0.2260  0.4160 -0.1484
10292TIP3    H252292   3.261   0.595  15.640  0.1859  0.1986 -0.2181
10293TIP3   OH252293   2.271   5.213   4.375 -0.3638 -0.7916 -0.0006
10293TIP3    H152294   2.279   5.129   4.329  0.1914 -0.5222 -0.4055
10293TIP3    H252295   2.177   5.230   4.376 -0.3178  0.1868 -2.9025
10294TIP3   OH252296   6.694   3.063  10.483 -0.1686  0.7839  0.1783
10294TIP3    H152297   6.768   3.121  10.465 -0.6910  2.0958  1.8730
10294TIP3    H252298   6.643   3.111  10.550 -3.4449  0.7428 -2.0600
10295TIP3   OH252299   6.683   1.354  12.798 -0.3053 -0.1218  0.1734
10295TIP3    H152300   6.667   1.264  12.827  0.5207 -0.0643  0.8520
10295TIP3    H252301   6.655   1.355  12.707 -1.9398 -0.6016  0.6420
10296TIP3   OH252302   3.325   4.890   4.710  0.1742 -0.3716 -0.2742
10296TIP3    H152303   3.306   4.895   4.616 -0.2063  1.8483 -0.1317
10296TIP3    H252304   3.383   4.815   4.718 -2.5981 -2.8957 -1.7716
10297TIP3   OH252305   0.795   3.176  12.569  0.6474  0.4884 -0.1826
10297TIP3    H152306   0.857   3.247  12.584  0.3812  0.5777  0.5560
10297TIP3    H252307   0.772   3.147  12.657  1.8906 -1.5163 -0.4546
10298TIP3   OH252308   6.139   2.515  13.032  0.1016 -0.4174 -0.0266
10298TIP3    H152309   6.070   2.448  13.030 -0.7886  0.4636  0.5723
10298TIP3    H252310   6.148   2.543  12.941  0.7209 -1.5728 -0.3402
10299TIP3   OH252311   3.183   6.175  16.987 -0.5365  0.1431 -1.1372
10299TIP3    H152312   3.216   6.170  17.077 -1.0200  0.6991 -0.9235
10299TIP3    H252313   3.239   6.116  16.938 -0.4855 -0.4347 -0.4025
10300TIP3   OH252314   2.591   0.473   3.848  0.4357  0.2690  0.1430
10300TIP3    H152315   2.500   0.496   3.867  0.5706  1.4719 -0.5830
10300TIP3    H252316   2.593   0.377   3.850 -0.7000  0.2500  0.7954
10301TIP3   OH252317   5.807   2.294   4.402 -0.3341  0.1024  0.2520
10301TIP3    H152318   5.745   2.264   4.468 -1.1518  0.4962 -0.3119
10301TIP3    H252319   5.816   2.220   4.341  1.0206 -0.5463  1.1959
10302TIP3   OH252320   0.660   1.384   3.568  0.0461 -0.0873 -0.6257
10302TIP3    H152321   0.733   1.347   3.518  0.6732 -0.4105  0.4938
10302TIP3    H252322   0.661   1.477   3.547  0.1968 -0.2409 -1.3337
10303TIP3   OH252323   1.781   0.107   3.292 -0.2018  0.4956 -0.4758
10303TIP3    H152324   1.741   0.049   3.357 -0.7022 -1.3349 -2.2800
10303TIP3    H252325   1.724   0.183   3.289 -0.9433 -0.0105  0.2727
10304TIP3   OH252326   2.976   2.881  16.147 -0.4190 -0.1342  0.4303
10304TIP3    H152327   2.911   2.820  16.182 -1.2878  0.8519  0.6165
10304TIP3    H252328   2.924   2.940  16.091  0.8329 -1.3927 -2.2605
10305TIP3   OH252329   6.197   6.429   2.956  0.1995  0.1214 -0.1554
10305TIP3    H152330   6.259   6.371   2.912  1.8494  0.7542  1.2470
10305TIP3    H252331   6.233   6.517   2.946 -3.0825  1.3573 -3.7081
10306TIP3   OH252332   1.962   5.696   5.196  0.1739  0.3235 -0.5179
10306TIP3    H152333   1.879   5.653   5.215 -0.2745  2.1599  2.4573
10306TIP3    H252334   1.969   5.764   5.263  4.0289  0.3512 -0.7214
10307TIP3   OH252335   4.093   3.642   2.271  0.2747  0.3745  0.3680
10307TIP3    H152336   4.042   3.671   2.347  0.7848 -1.3266  1.4127
10307TIP3    H252337   4.099   3.720   2.216 -0.8500  1.4354  1.6555
10308TIP3   OH252338   4.382   2.436   3.909 -0.4631 -0.2165  0.5308
10308TIP3    H152339   4.349   2.372   3.847 -1.6388 -0.4320  1.3450
10308TIP3    H252340   4.449   2.485   3.861 -2.0062  0.2779 -1.2211
10309TIP3   OH252341   1.483   1.758   3.532 -0.3828  0.0668 -0.2018
10309TIP3    H152342   1.536   1.806   3.468 -1.3129 -0.9610 -1.8154
10309TIP3    H252343   1.395   1.757   3.495 -0.7898 -1.2302  0.7141
10310TIP3   OH252344   6.336   6.808   0.621  0.2290 -0.1655  0.2478
10310TIP3    H152345   6.378   6.885   0.582 -0.6874  0.5363  0.6330
10310TIP3    H252346   6.286   6.842   0.695 -0.7484 -1.0365  0.0134
10311TIP3   OH252347   0.521   1.661  11.905 -0.1933  0.1810 -0.0392
10311TIP3    H152348   0.612   1.654  11.934 -0.1073 -0.4222 -0.4278
10311TIP3    H252349   0.473   1.597  11.958 -0.0239 -0.9724 -1.1940
10312TIP3   OH252350   5.661   5.140   0.165  0.3090  0.1050 -0.2519
10312TIP3    H152351   5.626   5.220   0.206  0.4190 -0.4855  1.0421
10312TIP3    H252352   5.673   5.079   0.238  2.0730 -0.4322 -0.9475
10313TIP3   OH252353   3.825   3.161  11.941  0.0043 -0.3550  0.0155
10313TIP3    H152354   3.776   3.236  11.977 -0.5559 -0.9133  0.4361
10313TIP3    H252355   3.780   3.141  11.859  1.0409  0.6693 -0.8309
10314TIP3   OH252356   5.929   4.824  14.038 -0.1670  0.7982  0.0002
10314TIP3    H152357   5.881   4.879  13.976 -0.0629  0.8106 -0.0680
10314TIP3    H252358   5.900   4.735  14.018 -1.8165  0.9735  1.3653
10315TIP3   OH252359   6.626   5.779  14.133 -0.0123  0.5620  0.0493
10315TIP3    H152360   6.544   5.827  14.118 -1.8924 -2.2673  0.3849
10315TIP3    H252361   6.678   5.795  14.054 -0.7293  2.6747 -0.0528
10316TIP3   OH252362   2.250   4.363   3.802  0.3600  0.3547  0.1699
10316TIP3    H152363   2.333   4.365   3.849 -0.1995  0.8316  1.1628
10316TIP3    H252364   2.204   4.286   3.837  0.0640  0.5385  0.1924
10317TIP3   OH252365   6.761   5.226  16.753  0.0180  0.0381 -0.5143
10317TIP3    H152366   6.746   5.132  16.767 -1.0390  0.3449  0.6328
10317TIP3    H252367   6.791   5.258  16.839  4.7387  0.0373 -1.8953
10318TIP3   OH252368   6.744   3.855   5.653  0.0453  0.3181  0.1852
10318TIP3    H152369   6.670   3.909   5.681  2.7133  2.9848  2.8698
10318TIP3    H252370   6.728   3.770   5.694 -0.9307  1.2465  1.8509
10319TIP3   OH252371   2.995   4.621  14.091  0.4803  0.1350  0.0996
10319TIP3    H152372   3.083   4.593  14.068  0.6694  1.1166 -0.4440
10319TIP3    H252373   3.001   4.652  14.181  0.5766 -0.2577  0.2282
10320TIP3   OH252374   5.589   5.361   5.211  0.4103 -0.0713 -0.6987
10320TIP3    H152375   5.499   5.383   5.235  0.3099 -0.0629 -1.0763
10320TIP3    H252376   5.599   5.396   5.122 -0.2984 -2.9717 -2.0239
10321TIP3   OH252377   1.463   4.094   3.652  0.2892 -0.3586  0.7941
10321TIP3    H152378   1.475   4.044   3.571  0.6086  1.2640 -0.2006
10321TIP3    H252379   1.552   4.111   3.682  0.1713 -0.9126  1.4884
10322TIP3   OH252380   2.661   3.990  12.194 -0.2511  0.3534  0.3023
10322TIP3    H152381   2.649   3.928  12.266 -1.9068 -0.0267 -0.2790
10322TIP3    H252382   2.650   4.076  12.234 -0.4395  0.1711  0.6449
10323TIP3   OH252383   2.801   4.591   0.593 -0.2627 -0.1925 -0.2713
10323TIP3    H152384   2.762   4.505   0.581 -0.5889  0.0446 -0.9658
10323TIP3    H252385   2.895   4.575   0.593 -0.3207 -0.8076  1.7282
10324TIP3   OH252386   5.686   2.510   2.653 -0.6805  0.2219 -0.0848
10324TIP3    H152387   5.629   2.509   2.730 -0.7807 -0.1578 -0.1618
10324TIP3    H252388   5.626   2.519   2.579 -0.6044  0.2820 -0.1392
10325TIP3   OH252389   4.068   0.068  11.992  0.3815 -0.0850  0.1256
10325TIP3    H152390   4.145   0.092  12.044 -0.3937  1.0081  0.8060
10325TIP3    H252391   4.090   0.095  11.903  0.0707  2.0420  0.6407
10326TIP3   OH252392   1.183   2.399   2.823 -0.0889  0.2450 -0.1051
10326TIP3    H152393   1.169   2.492   2.803 -1.8354  0.1805  0.6139
10326TIP3    H252394   1.267   2.397   2.868 -0.6839  1.7280  1.1799
10327TIP3   OH252395   5.712   3.307  14.523 -0.0719 -0.5166 -0.2549
10327TIP3    H152396   5.758   3.391  14.526 -0.4187 -0.3357  2.2712
10327TIP3    H252397   5.745   3.259  14.599 -1.6039 -1.7231 -0.3001
10328TIP3   OH252398   5.907   0.261   1.884  0.4371  0.2148 -0.0949
10328TIP3    H152399   5.880   0.352   1.896  2.7738  0.8298  1.1053
10328TIP3    H252400   5.888   0.219   1.968 -2.4134 -0.9969 -1.2313
10329TIP3   OH252401   6.804   6.038  15.468  0.1200 -0.4354  0.1629
10329TIP3    H152402   6.763   5.981  15.533  0.4621 -0.9624 -0.0769
10329TIP3    H252403   6.731   6.086  15.429 -0.2084 -0.9175  0.1688
10330TIP3   OH252404   3.829   0.510  16.409 -0.4923  0.4948 -0.2237
10330TIP3    H152405   3.767   0.493  16.338  0.3187  1.4184 -1.1903
10330TIP3    H252406   3.909   0.466  16.382  0.0885  1.5791 -0.3331
10331TIP3   OH252407   6.470   2.071  10.366  0.1948 -0.5189 -0.1001
10331TIP3    H152408   6.483   2.143  10.427  0.6873  0.1190 -0.9314
10331TIP3    H252409   6.389   2.029  10.395 -0.6049  0.9275 -0.1185
10332TIP3   OH252410   1.560   5.749   0.444 -0.1503 -0.4758  0.4722
10332TIP3    H152411   1.505   5.770   0.520  2.1614 -0.2295  2.2190
10332TIP3    H252412   1.639   5.802   0.457  0.7490 -1.2026 -1.6088
10333TIP3   OH252413   0.099   1.988  14.062 -0.3063 -0.2192 -0.2167
10333TIP3    H152414   0.066   2.051  13.998 -0.0054  0.2983  0.1376
10333TIP3    H252415   0.020   1.945  14.095 -0.5069 -0.0939 -0.5196
10334TIP3   OH252416   3.382   3.481   5.401  0.2634  0.1521 -0.0577
10334TIP3    H152417   3.312   3.415   5.404 -0.4247  0.7911 -1.1253
10334TIP3    H252418   3.362   3.541   5.473 -1.7696  1.6973 -1.7616
10335TIP3   OH252419   0.210   4.734   2.040 -0.0769 -0.3376 -0.5748
10335TIP3    H152420   0.146   4.755   1.972  0.8888  1.0975 -1.0837
10335TIP3    H252421   0.158   4.725   2.120 -0.8347  2.0008 -0.7295
10336TIP3   OH252422   6.375   6.173   5.440 -0.5878 -0.2487 -0.4459
10336TIP3    H152423   6.388   6.161   5.346 -0.2548 -0.3418 -0.3871
10336TIP3    H252424   6.362   6.267   5.451 -2.6931 -0.4440 -0.8439
10337TIP3   OH252425   1.678   6.057   3.953 -0.2110 -0.4092 -0.5550
10337TIP3    H152426   1.680   6.122   3.883  0.9233 -0.0549 -0.2128
10337TIP3    H252427   1.659   6.108   4.032  0.2963 -0.5391 -0.3452
10338TIP3   OH252428   5.916   3.782   0.071 -0.1781 -0.0233  0.1732
10338TIP3    H152429   5.950   3.831  -0.004  3.4990 -0.0689  1.6209
10338TIP3    H252430   5.884   3.700   0.034  2.0200 -0.2672 -1.3748
10339TIP3   OH252431   0.774   4.505  11.906  0.3170 -0.2044  0.0590
10339TIP3    H152432   0.827   4.508  11.826 -1.3733  3.2970 -1.1260
10339TIP3    H252433   0.702   4.566  11.890 -1.4252 -1.1346  3.4090
10340TIP3   OH252434   6.641   2.012  12.605 -0.6469 -0.2846 -0.2715
10340TIP3    H152435   6.565   2.038  12.657  0.2686 -0.3028  1.1184
10340TIP3    H252436   6.667   2.091  12.559  1.1928  1.0458  2.7434
10341TIP3   OH252437   0.973   3.323   0.674 -0.4377 -0.1999 -0.1332
10341TIP3    H152438   1.037   3.310   0.744  1.0760 -1.9062 -1.7081
10341TIP3    H252439   0.902   3.262   0.695 -0.5965  0.2240  0.5740
10342TIP3   OH252440   2.751   1.258  13.330  0.0149 -0.4086  0.3739
10342TIP3    H152441   2.702   1.221  13.403 -0.9254 -0.0315 -0.0553
10342TIP3    H252442   2.805   1.327  13.369  0.5650 -1.1267  0.9180
10343TIP3   OH252443   2.027   4.556   3.955  0.6626  0.2170 -0.0558
10343TIP3    H152444   2.062   4.475   3.993 -0.3024  0.3826  1.2371
10343TIP3    H252445   2.104   4.612   3.946  1.0951 -0.2508  0.5907
10344TIP3   OH252446   5.744   5.207   5.794  1.1092  0.6534  0.1968
10344TIP3    H152447   5.712   5.243   5.711 -0.0212  2.0386  1.1745
10344TIP3    H252448   5.831   5.246   5.804  1.9492 -0.7721 -1.0430
10345TIP3   OH252449   3.992   5.346  16.843 -0.1460  0.5071  0.0690
10345TIP3    H152450   4.075   5.306  16.866 -1.1864 -1.7976  0.0824
10345TIP3    H252451   3.956   5.290  16.774 -1.7887  1.2781  0.2432
10346TIP3   OH252452   6.585   1.525   3.500  0.7578 -0.3867 -0.2925
10346TIP3    H152453   6.625   1.506   3.415 -0.8375 -0.8602 -0.9732
10346TIP3    H252454   6.552   1.615   3.492  1.5649 -0.0253  0.2405
10347TIP3   OH252455   5.288   5.654  15.815  0.2264 -0.0115  0.1100
10347TIP3    H152456   5.354   5.644  15.747  0.8659  1.5709  0.4658
10347TIP3    H252457   5.206   5.629  15.772  0.9639 -1.6208 -0.4445
10348TIP3   OH252458   6.302   5.144   0.679  0.0016  0.0188  0.7056
10348TIP3    H152459   6.312   5.053   0.653  1.5457  0.0121  1.2457
10348TIP3    H252460   6.289   5.191   0.597  2.0282 -0.3499  0.1241
10349TIP3   OH252461   1.882   1.886   5.478 -0.1334  0.3618 -0.3307
10349TIP3    H152462   1.907   1.957   5.538 -0.2127  0.5252 -0.4881
10349TIP3    H252463   1.803   1.918   5.435 -0.3033  0.0756 -0.2319
10350TIP3   OH252464   0.317   3.516  12.404  0.1380  0.0285 -0.2119
10350TIP3    H152465   0.321   3.612  12.403 -0.1602  0.0430 -0.7947
10350TIP3    H252466   0.310   3.492  12.312 -1.3439 -0.4681 -0.0052
10351TIP3   OH252467   5.782   5.820  10.977  0.1468  0.0928  0.1804
10351TIP3    H152468   5.853   5.772  11.021  0.2824 -0.6843 -0.8309
10351TIP3    H252469   5.809   5.822  10.885 -0.3146  1.3309  0.0579
10352TIP3   OH252470   0.384   1.124  12.774 -0.2155 -0.3744  0.8387
10352TIP3    H152471   0.421   1.151  12.858 -2.1632  1.0224  1.3237
10352TIP3    H252472   0.428   1.179  12.709  0.5458 -0.7185  1.0573
10353TIP3   OH252473   5.006   4.768   1.903  0.4895 -0.4787  0.6170
10353TIP3    H152474   5.083   4.823   1.917  0.2117  0.5157 -1.3495
10353TIP3    H252475   5.029   4.713   1.828 -0.8843  0.3000 -0.4384
10354TIP3   OH252476   2.494   1.266   0.157 -0.3321 -0.0430 -0.0009
10354TIP3    H152477   2.468   1.323   0.229 -2.1104 -0.3248 -0.3769
10354TIP3    H252478   2.436   1.189   0.165  0.6994 -0.9139 -0.6406
10355TIP3   OH252479   5.643   1.558  12.689  0.9050 -0.0327  0.0744
10355TIP3    H152480   5.604   1.473  12.668  2.4069 -0.5201 -0.8766
10355TIP3    H252481   5.641   1.562  12.785 -2.9243  0.7102  0.1251
10356TIP3   OH252482   5.293   4.842  15.612 -0.3345 -0.0800 -0.1684
10356TIP3    H152483   5.241   4.808  15.686 -1.6537  0.5545 -0.7761
10356TIP3    H252484   5.238   4.826  15.535 -0.4359  2.1949 -0.6367
10357TIP3   OH252485   4.646   3.935   4.964  0.4124  0.4999  0.9548
10357TIP3    H152486   4.604   3.993   4.900  0.2779 -0.7693 -0.1532
10357TIP3    H252487   4.704   3.879   4.912  0.4698 -0.4201  1.9658
10358TIP3   OH252488   6.559   4.806   4.658  0.4601  0.6315  0.1024
10358TIP3    H152489   6.492   4.853   4.707 -0.0388 -0.2146  0.2444
10358TIP3    H252490   6.512   4.737   4.612  0.8919  1.4648 -1.6994
10359TIP3   OH252491   0.465   2.038  15.339 -0.1658 -0.0842 -0.1065
10359TIP3    H152492   0.517   1.965  15.306 -1.0703 -1.3147  1.0738
10359TIP3    H252493   0.500   2.115  15.294  0.4126 -1.3086 -1.8401
10360TIP3   OH252494   6.375   0.598   1.982  1.0295  0.0215  0.3710
10360TIP3    H152495   6.290   0.582   2.022  1.5012 -1.9824  0.6566
10360TIP3    H252496   6.400   0.514   1.943  2.7102  0.6670 -0.0401
10361TIP3   OH252497   0.072   2.675  15.236 -0.1037 -0.2269  0.4666
10361TIP3    H152498   0.016   2.740  15.279  0.4788 -1.7131  3.7758
10361TIP3    H252499   0.011   2.625  15.181 -0.6659  2.5636 -1.6547
10362TIP3   OH252500   0.230   6.348   4.494  0.0325 -1.0362 -0.4312
10362TIP3    H152501   0.313   6.302   4.477  0.1714 -1.5229  1.3536
10362TIP3    H252502   0.212   6.330   4.586  0.0836  2.4983  0.3737
10363TIP3   OH252503   5.911   2.987  12.946  0.3059  0.6709 -0.3823
10363TIP3    H152504   5.966   2.989  12.867  0.3478 -0.5385 -0.3984
10363TIP3    H252505   5.840   2.927  12.924 -0.9764  2.1100 -0.3030
10364TIP3   OH252506   1.428   3.758  10.466  0.1935 -0.4409  0.1180
10364TIP3    H152507   1.351   3.813  10.476 -0.2063 -1.1465  1.0886
10364TIP3    H252508   1.394   3.671  10.448  0.8351 -0.2199 -2.5947
10365TIP3   OH252509   6.151   6.211   0.538 -0.2764 -0.1205 -0.2928
10365TIP3    H152510   6.236   6.173   0.562  0.6977  1.4876 -1.0178
10365TIP3    H252511   6.158   6.226   0.444 -1.6766 -0.6275 -0.4993
10366TIP3   OH252512   2.120   0.823   4.849  0.0011  0.2572  0.6060
10366TIP3    H152513   2.123   0.899   4.790 -0.2181  0.2179  0.5453
10366TIP3    H252514   2.097   0.860   4.934  1.6201  0.5050  0.9816
10367TIP3   OH252515   2.545   0.413   4.712 -0.2279 -0.5975 -0.4941
10367TIP3    H152516   2.500   0.362   4.645 -0.2279  0.5776 -1.4281
10367TIP3    H252517   2.638   0.400   4.693 -0.1756 -1.8380  0.5178
10368TIP3   OH252518   3.257   5.145  10.953  0.3833 -0.1721 -0.2864
10368TIP3    H152519   3.311   5.102  10.887 -1.2596 -1.8927 -0.6101
10368TIP3    H252520   3.207   5.211  10.904 -0.8154 -1.4287 -0.8263
10369TIP3   OH252521   4.858   6.383  14.716  0.1888  0.8596  0.8044
10369TIP3    H152522   4.770   6.418  14.704  0.3218  0.8667 -0.2378
10369TIP3    H252523   4.895   6.380  14.627  0.7081 -0.5167  1.0487
10370TIP3   OH252524   1.542   3.395   3.274  0.3213  0.1870  0.3640
10370TIP3    H152525   1.526   3.489   3.278  1.5425  0.4017  0.3873
10370TIP3    H252526   1.541   3.375   3.180  0.1147  0.2252  0.3570
10371TIP3   OH252527   6.533   0.869   0.455 -0.1420 -0.2407  0.5817
10371TIP3    H152528   6.548   0.951   0.503  0.8036 -1.1901  1.9941
10371TIP3    H252529   6.449   0.837   0.488 -1.0805  0.6936 -0.8152
10372TIP3   OH252530   2.758   1.154   4.053 -0.4158 -0.8392 -0.1030
10372TIP3    H152531   2.821   1.105   4.106 -2.1000 -0.7719  2.1309
10372TIP3    H252532   2.808   1.227   4.017  0.4341  0.5450  3.4680
10373TIP3   OH252533   4.495   1.264   0.817  0.0673 -0.4958 -0.6526
10373TIP3    H152534   4.418   1.254   0.874  0.0493  1.7351 -0.2158
10373TIP3    H252535   4.520   1.174   0.795 -1.4037 -1.3348  0.8925
10374TIP3   OH252536   4.929   4.910   1.615 -0.5012 -0.3032  0.3043
10374TIP3    H152537   4.833   4.918   1.609 -0.6063 -0.8568  1.1628
10374TIP3    H252538   4.956   4.988   1.664 -0.8616 -1.6771  2.8545
10375TIP3   OH252539   6.605   0.398  10.786  0.5262 -0.0677  0.1754
10375TIP3    H152540   6.595   0.491  10.764  2.1289 -0.4030 -2.2527
10375TIP3    H252541   6.521   0.359  10.762 -0.1148  0.6721  1.0915
10376TIP3   OH252542   3.580   3.577   2.594  0.0120 -0.0683 -0.0082
10376TIP3    H152543   3.527   3.655   2.609 -0.3414 -0.2809 -0.1385
10376TIP3    H252544   3.629   3.595   2.514  1.6269  0.9249  1.1270
10377TIP3   OH252545   2.402   2.672  11.584  0.3832 -0.7372 -0.0260
10377TIP3    H152546   2.359   2.589  11.564  1.4237 -1.1819 -0.5165
10377TIP3    H252547   2.383   2.728  11.509 -0.0542 -0.6291  0.1604
10378TIP3   OH252548   0.478   5.324  11.213 -0.3323  0.5547 -0.3083
10378TIP3    H152549   0.409   5.352  11.274  0.3556  0.7189  0.4132
10378TIP3    H252550   0.548   5.389  11.223  0.5276 -0.3946  0.0549
10379TIP3   OH252551   0.993   6.217  13.138  0.4274 -0.3065  0.5642
10379TIP3    H152552   0.979   6.305  13.102 -0.5726 -0.2344  1.0851
10379TIP3    H252553   0.955   6.220  13.226 -0.5751 -1.5469  0.2107
10380TIP3   OH252554   0.566   2.058   3.147  0.1951 -0.0048 -0.3186
10380TIP3    H152555   0.489   2.012   3.115 -0.0539 -0.3698  0.7542
10380TIP3    H252556   0.560   2.052   3.243  2.4647 -1.6009 -0.1844
10381TIP3   OH252557   4.035   0.036   3.014 -0.3791  0.4589 -0.1437
10381TIP3    H152558   4.095  -0.036   2.994 -0.3402  0.3146  0.4584
10381TIP3    H252559   4.063   0.108   2.958  0.8082  0.6177  0.6270
10382TIP3   OH252560   3.337   2.400  12.577  0.1240 -0.2134 -0.1143
10382TIP3    H152561   3.409   2.353  12.537  1.4129  1.6617 -0.1202
10382TIP3    H252562   3.269   2.402  12.510  1.0455  0.1688 -1.0659
10383TIP3   OH252563   0.643   6.430  14.921  0.3644  0.2282 -0.7420
10383TIP3    H152564   0.550   6.415  14.903  0.5652 -1.2975 -0.6184
10383TIP3    H252565   0.665   6.365  14.988  1.5470  0.4892 -0.8590
10384TIP3   OH252566   4.012   2.799   1.352 -0.2210 -0.6492 -0.2041
10384TIP3    H152567   3.923   2.833   1.344 -0.0405 -0.5063 -2.2873
10384TIP3    H252568   4.021   2.738   1.278  1.4264 -0.6059 -0.0775
10385TIP3   OH252569   6.409   3.078   0.343  0.1604  0.0483  0.2427
10385TIP3    H152570   6.418   2.984   0.353 -1.9691 -0.2016  0.4019
10385TIP3    H252571   6.365   3.089   0.258 -0.1615  0.8367  0.4944
10386TIP3   OH252572   1.469   1.567   4.394  0.1161 -0.2935  0.6355
10386TIP3    H152573   1.469   1.517   4.312  1.4039 -0.4059  0.6930
10386TIP3    H252574   1.524   1.643   4.376  0.6627 -0.4727  1.4906
10387TIP3   OH252575   0.738   3.777  14.523 -0.4724 -0.4530 -0.4485
10387TIP3    H152576   0.737   3.748  14.613 -0.2937  0.8094 -0.0094
10387TIP3    H252577   0.680   3.854  14.521  1.3437  0.9868 -0.8433
10388TIP3   OH252578   3.885   6.182  16.647  0.5250  0.5200  0.5961
10388TIP3    H152579   3.828   6.183  16.724  0.6837 -1.5984  0.7754
10388TIP3    H252580   3.974   6.179  16.682  0.6350  0.5762  0.3262
10389TIP3   OH252581   3.527   2.528  10.912 -0.1848 -0.3728  0.1076
10389TIP3    H152582   3.566   2.453  10.958 -1.9404 -0.5315  1.4409
10389TIP3    H252583   3.600   2.570  10.868  1.7839  0.1590  3.5665
10390TIP3   OH252584   4.071   3.190  11.242 -0.1518 -0.0561  0.5062
10390TIP3    H152585   4.048   3.241  11.164 -0.6472 -0.2487  0.5177
10390TIP3    H252586   4.162   3.212  11.260  0.1532 -0.4867 -0.4938
10391TIP3   OH252587   6.717   6.071  10.746  0.3197  0.2779 -0.4045
10391TIP3    H152588   6.672   5.999  10.790  0.5146 -0.0327 -0.7119
10391TIP3    H252589   6.650   6.138  10.734  0.0811  0.0500 -0.3333
10392TIP3   OH252590   3.886   6.526   5.199  0.7882 -0.1999  0.2211
10392TIP3    H152591   3.939   6.596   5.161  0.3691 -0.4887 -0.9215
10392TIP3    H252592   3.932   6.503   5.280  0.8435  1.4960  0.7100
10393TIP3   OH252593   3.150   6.031  14.069 -0.2137 -0.2837  0.3373
10393TIP3    H152594   3.164   6.015  13.976 -3.7982 -0.7678 -0.2775
10393TIP3    H252595   3.155   5.945  14.109  2.9193  0.0908  0.9931
10394TIP3   OH252596   3.808   1.105  15.721  0.2192 -0.2407 -0.3167
10394TIP3    H152597   3.898   1.129  15.741  0.2377 -0.4268 -0.1681
10394TIP3    H252598   3.800   1.015  15.754 -0.0492 -0.1885 -0.2374
10395TIP3   OH252599   6.324   1.541   0.547 -0.4361  0.2810  0.2239
10395TIP3    H152600   6.242   1.557   0.593 -0.1822  0.0799  0.7618
10395TIP3    H252601   6.299   1.530   0.455 -1.0152  0.1330  0.3965
10396TIP3   OH252602   2.312   2.815  17.095 -0.2493  0.0748 -0.3309
10396TIP3    H152603   2.377   2.779  17.034 -0.9275 -0.8803 -0.5109
10396TIP3    H252604   2.348   2.795  17.181 -0.4913 -0.8433 -0.4289
10397TIP3   OH252605   6.223   1.637  12.535  0.1767 -0.1752 -0.2256
10397TIP3    H152606   6.169   1.716  12.541  0.3472  0.0069 -0.9732
10397TIP3    H252607   6.313   1.671  12.533  0.2160 -0.2896 -1.7844
10398TIP3   OH252608   2.320   3.091  17.109  0.3175 -0.5959 -0.3720
10398TIP3    H152609   2.400   3.125  17.149 -1.0963  0.7514  1.4665
10398TIP3    H252610   2.324   2.996  17.123 -0.0988 -0.2116  3.1420
10399TIP3   OH252611   5.178   0.664  16.638 -0.4985  0.0160 -0.1753
10399TIP3    H152612   5.091   0.675  16.677 -0.2748 -1.8225  0.9823
10399TIP3    H252613   5.215   0.588  16.683  2.0902  1.2890  0.0335
10400TIP3   OH252614   6.113   0.675  10.531  0.2575 -0.5270  0.0086
10400TIP3    H152615   6.020   0.671  10.550  0.1352  2.0198  0.2346
10400TIP3    H252616   6.118   0.676  10.435  0.0223 -0.1017  0.0002
10401TIP3   OH252617   2.580   2.666  11.283  0.4265  0.1539  0.8859
10401TIP3    H152618   2.580   2.748  11.233  1.5518 -1.1967 -1.5344
10401TIP3    H252619   2.615   2.690  11.369  0.6951  2.2045  0.2635
10402TIP3   OH252620   2.625   3.785  12.348  0.1097 -0.4074 -0.1515
10402TIP3    H152621   2.602   3.797  12.440  2.0581  0.2071  0.3089
10402TIP3    H252622   2.541   3.783  12.302 -0.8961 -0.5041  1.5963
10403TIP3   OH252623   4.259   3.863   1.696  0.2512  0.4773  0.2396
10403TIP3    H152624   4.189   3.906   1.647 -0.4335  0.8355  1.4934
10403TIP3    H252625   4.224   3.776   1.717  1.3099 -0.4384 -1.5665
10404TIP3   OH252626   2.300   5.709   1.722  0.2542  0.5340 -0.0803
10404TIP3    H152627   2.263   5.795   1.699 -0.9004 -0.3075 -1.5929
10404TIP3    H252628   2.374   5.698   1.663 -0.5478 -0.1267 -1.0057
10405TIP3   OH252629   4.083   0.553  14.430  0.2002  0.1603  0.3260
10405TIP3    H152630   4.171   0.522  14.409  1.2432  3.0321 -0.0483
10405TIP3    H252631   4.045   0.576  14.346 -1.0514 -1.2294  0.4672
10406TIP3   OH252632   2.883   2.912  13.016  0.1295  0.1022  0.1488
10406TIP3    H152633   2.977   2.920  13.032  0.0730  0.3748  0.3584
10406TIP3    H252634   2.846   2.995  13.047 -0.1194  0.2012 -0.3994
10407TIP3   OH252635   6.569   1.316  15.901 -0.1070 -0.0395  0.0513
10407TIP3    H152636   6.584   1.294  15.993  0.5623 -0.6093 -0.1885
10407TIP3    H252637   6.534   1.236  15.862 -0.7737  0.3192 -0.1111
10408TIP3   OH252638   2.125   4.696   1.565  0.0577 -0.7958  0.0163
10408TIP3    H152639   2.087   4.741   1.490 -0.1306  0.9518  1.1127
10408TIP3    H252640   2.207   4.742   1.582 -0.7003 -0.0712  1.8751
10409TIP3   OH252641   1.470   6.419   4.535 -0.2439  0.4287  0.3615
10409TIP3    H152642   1.377   6.396   4.544 -0.0086 -0.7093  0.0251
10409TIP3    H252643   1.515   6.334   4.531  0.8996  0.9603  1.3592
10410TIP3   OH252644   3.313   1.484   6.548  0.4365  0.6295 -0.2737
10410TIP3    H152645   3.318   1.403   6.497  2.7713 -0.1753  1.1017
10410TIP3    H252646   3.221   1.490   6.575 -0.1085 -0.6986 -1.6874
10411TIP3   OH252647   4.362   6.728  11.838 -0.0742 -0.7328  0.0080
10411TIP3    H152648   4.329   6.691  11.919  0.3137  0.8134  0.9156
10411TIP3    H252649   4.457   6.723  11.846  0.0106  0.7728  0.3606
10412TIP3   OH252650   4.715   3.271  14.823 -0.9517 -1.0585 -0.6051
10412TIP3    H152651   4.763   3.333  14.769 -0.6892  1.1184  1.9132
10412TIP3    H252652   4.625   3.277  14.792 -0.2535 -2.8370 -3.2869
10413TIP3   OH252653   3.902   0.441  12.796  0.1377  0.2878  0.0190
10413TIP3    H152654   3.843   0.501  12.840 -0.1577 -2.5883  4.1055
10413TIP3    H252655   3.850   0.362  12.782  1.8883 -0.9049 -0.0888
10414TIP3   OH252656   3.188   2.839   2.726 -0.3352 -0.1950  0.0152
10414TIP3    H152657   3.200   2.776   2.797 -1.5703  2.1377  2.4698
10414TIP3    H252658   3.277   2.869   2.706  0.3890 -3.1037 -1.7791
10415TIP3   OH252659   5.300   5.989  15.238 -0.4717  0.7679 -0.7470
10415TIP3    H152660   5.277   5.939  15.159 -1.2879 -1.2515  0.6833
10415TIP3    H252661   5.367   5.937  15.281 -1.5405  0.7197  0.9457
10416TIP3   OH252662   6.728   4.653  16.991  0.6488 -0.1300 -0.7614
10416TIP3    H152663   6.743   4.577  16.934  0.9980  0.3156 -1.2694
10416TIP3    H252664   6.795   4.646  17.058 -0.5175 -1.3440  0.3497
10417TIP3   OH252665   6.332   3.177   5.182 -0.1951 -0.4965 -0.1027
10417TIP3    H152666   6.315   3.152   5.273 -0.7497  1.2494  0.3161
10417TIP3    H252667   6.245   3.192   5.145  0.0194 -1.2570 -0.9703
10418TIP3   OH252668   2.366   3.838  12.269 -0.0178 -0.0186  0.3205
10418TIP3    H152669   2.368   3.931  12.293 -0.7606  0.4513 -1.3216
10418TIP3    H252670   2.308   3.833  12.193 -0.5366 -1.9424  0.7691
10419TIP3   OH252671   0.845   2.553  14.194  1.0271 -0.2896  0.0619
10419TIP3    H152672   0.805   2.561  14.280  0.3997  1.2068 -0.3298
10419TIP3    H252673   0.939   2.555  14.211  1.0386 -3.2312  0.9423
10420TIP3   OH252674   2.654   4.370   6.954 -0.0900  0.1571 -0.3392
10420TIP3    H152675   2.647   4.377   6.859 -1.3924 -1.8856 -0.4498
10420TIP3    H252676   2.741   4.406   6.974  0.2793  0.4819 -2.2990
10421TIP3   OH252677   1.077   2.511   1.900  0.7063 -0.0078  0.4236
10421TIP3    H152678   1.107   2.421   1.908  0.5826  0.0334  1.4669
10421TIP3    H252679   1.003   2.518   1.961  0.0657  0.5276 -0.3836
10422TIP3   OH252680   4.498   0.406  16.862  0.2088  0.4465  0.4008
10422TIP3    H152681   4.537   0.455  16.789  0.6086  0.4885  0.6422
10422TIP3    H252682   4.551   0.327  16.870 -1.0410 -0.5611 -0.6490
10423TIP3   OH252683   1.263   6.618  10.795 -0.3560 -0.7034 -0.0297
10423TIP3    H152684   1.267   6.549  10.728 -0.7357 -0.1318 -0.6547
10423TIP3    H252685   1.355   6.635  10.817 -0.2804 -1.9104  0.6740
10424TIP3   OH252686   5.853   0.992  15.460  0.2086  0.1563  0.4490
10424TIP3    H152687   5.826   0.991  15.552  1.3195 -1.2301  0.7889
10424TIP3    H252688   5.847   1.084  15.435  0.1170  0.6006  1.9801
10425TIP3   OH252689   0.406   3.873  17.081  0.0116  0.5122  0.1058
10425TIP3    H152690   0.490   3.835  17.106 -0.7720 -1.6288 -0.3127
10425TIP3    H252691   0.427   3.939  17.015  1.3571 -0.0941 -0.0932
10426TIP3   OH252692   6.384   2.861   1.686  0.0112 -0.6040  0.2645
10426TIP3    H152693   6.297   2.850   1.724 -0.7064  0.7669 -0.8521
10426TIP3    H252694   6.416   2.772   1.674 -1.8959 -1.2260 -0.6897
10427TIP3   OH252695   4.316   0.899   5.033  0.6977  0.7978 -0.2185
10427TIP3    H152696   4.320   0.995   5.027  0.8063  0.7967 -0.1616
10427TIP3    H252697   4.263   0.873   4.958 -0.0231  0.9597  0.2273
10428TIP3   OH252698   2.930   4.518  15.916  0.3033  0.0677  0.4387
10428TIP3    H152699   2.949   4.604  15.952  3.2723  1.5351 -3.7666
10428TIP3    H252700   2.999   4.461  15.952  2.4000  1.1857 -1.5313
10429TIP3   OH252701   1.712   4.761   0.800 -0.7887 -0.0773  0.2331
10429TIP3    H152702   1.759   4.824   0.746 -0.7395 -1.1216 -0.9928
10429TIP3    H252703   1.633   4.807   0.827 -1.3859  0.1320 -1.7054
10430TIP3   OH252704   3.800   5.757   4.554 -0.2429 -0.2740  0.5920
10430TIP3    H152705   3.760   5.694   4.494 -0.8426  0.9869 -0.3808
10430TIP3    H252706   3.791   5.717   4.641 -1.7939 -0.9399  0.1570
10431TIP3   OH252707   3.867   4.596  16.743  0.3340 -0.1351 -0.0143
10431TIP3    H152708   3.794   4.638  16.699  0.1826  0.0822  0.4361
10431TIP3    H252709   3.852   4.502  16.733  0.2656 -0.0869 -0.3622
10432TIP3   OH252710   4.400   5.167   0.157  0.1553 -0.1988  0.2000
10432TIP3    H152711   4.378   5.253   0.194  1.4616 -0.1857  1.0250
10432TIP3    H252712   4.335   5.153   0.088  0.9015  2.2130 -1.1254
10433TIP3   OH252713   3.633   5.526   0.474  0.1454  0.2992  0.6043
10433TIP3    H152714   3.684   5.461   0.523 -1.4132 -0.1736  1.6513
10433TIP3    H252715   3.577   5.567   0.539 -0.9394  0.6872 -0.5438
10434TIP3   OH252716   0.228   6.491   2.727  0.5891 -0.5544  0.0392
10434TIP3    H152717   0.192   6.522   2.810  0.1135  0.3807 -0.4996
10434TIP3    H252718   0.311   6.538   2.718 -0.5200  1.3359 -1.1797
10435TIP3   OH252719   2.073   2.015  11.185 -0.0395 -0.4995 -0.1659
10435TIP3    H152720   2.133   2.004  11.259 -0.9962 -2.0799  0.4330
10435TIP3    H252721   1.988   1.986  11.219 -0.7103 -0.2598 -1.5872
10436TIP3   OH252722   0.794   1.342   3.167  0.5132  0.0879  0.0975
10436TIP3    H152723   0.864   1.388   3.119 -0.4591  1.5479 -0.0021
10436TIP3    H252724   0.715   1.393   3.148 -0.4892 -1.2090  0.6482
10437TIP3   OH252725   1.202   5.621  12.963  0.1219 -0.0604 -0.7614
10437TIP3    H152726   1.125   5.569  12.938  0.5900 -0.9223 -0.4595
10437TIP3    H252727   1.166   5.690  13.019 -0.7104  0.8741 -2.3729
10438TIP3   OH252728   5.239   0.720   3.281  0.7293  0.0169 -0.9795
10438TIP3    H152729   5.252   0.651   3.215  1.0117  0.9286 -1.9007
10438TIP3    H252730   5.313   0.710   3.341 -0.0547 -1.4547 -0.1919
10439TIP3   OH252731   6.347   3.034   4.660  0.0626  0.3529 -0.3620
10439TIP3    H152732   6.340   2.945   4.695  0.5420  0.8349  0.9879
10439TIP3    H252733   6.329   3.023   4.566 -6.4776 -0.3464  0.4788
10440TIP3   OH252734   3.985   4.000   3.933  0.2017 -0.1845 -0.6897
10440TIP3    H152735   4.040   4.028   3.859 -0.2203 -0.0346 -0.9454
10440TIP3    H252736   3.967   3.907   3.916 -0.1063 -0.0850 -0.9063
10441TIP3   OH252737   6.391   0.275  10.618 -0.5215 -0.3607  0.2859
10441TIP3    H152738   6.318   0.233  10.664 -0.0924 -0.9587  0.4311
10441TIP3    H252739   6.420   0.210  10.555  1.1584 -0.9160  1.5698
10442TIP3   OH252740   5.095   0.146   0.654 -0.3497 -0.3325 -0.4001
10442TIP3    H152741   5.058   0.218   0.704 -1.1852 -0.2079 -1.1716
10442TIP3    H252742   5.049   0.149   0.570  0.5652 -0.9263 -0.9392
10443TIP3   OH252743   2.957   4.654   2.488  0.5465 -0.0636  0.2756
10443TIP3    H152744   2.896   4.658   2.561 -1.1998 -2.5977 -0.8982
10443TIP3    H252745   3.025   4.717   2.510 -1.6442  1.7235  2.4243
10444TIP3   OH252746   5.867   5.322   4.938 -0.1916  0.2853  0.1748
10444TIP3    H152747   5.847   5.284   4.853  0.5226  2.1848 -0.9013
10444TIP3    H252748   5.782   5.353   4.971 -0.1960  1.3923 -0.8187
10445TIP3   OH252749   0.184   5.448   1.543  1.0011  0.1109  0.0955
10445TIP3    H152750   0.176   5.397   1.624  0.6029  0.5375  0.3306
10445TIP3    H252751   0.275   5.475   1.541  1.2442 -0.6922 -0.0837
10446TIP3   OH252752   1.696   0.595  15.252  0.0583  0.2500  0.2556
10446TIP3    H152753   1.777   0.620  15.296  1.0195  0.4309 -1.5539
10446TIP3    H252754   1.634   0.664  15.276  0.1654 -0.2924  2.2748
10447TIP3   OH252755   0.864   0.668   6.023 -0.3166 -0.1799 -0.2349
10447TIP3    H152756   0.873   0.733   6.092 -1.4877  0.4710 -0.6828
10447TIP3    H252757   0.954   0.656   5.990  0.1367  0.0562  0.8704
10448TIP3   OH252758   0.123   1.434   3.961 -0.0466 -0.4857 -0.2739
10448TIP3    H152759   0.124   1.474   4.048 -1.0381 -0.7305 -0.1280
10448TIP3    H252760   0.045   1.470   3.919  0.7258  0.0590 -1.2883
10449TIP3   OH252761   5.283   6.283   3.155 -0.6192  0.2418  0.1647
10449TIP3    H152762   5.341   6.352   3.188 -1.3290  1.4370 -0.9866
10449TIP3    H252763   5.339   6.229   3.100  0.1986 -0.8012  1.9630
10450TIP3   OH252764   6.674   0.010   0.761  0.1086 -0.7210 -0.4699
10450TIP3    H152765   6.607   0.007   0.829  1.3426 -1.5085  0.7581
10450TIP3    H252766   6.633   0.058   0.689 -1.6677 -0.9557  0.3362
10451TIP3   OH252767   5.722   4.305   2.431  0.5024 -0.5216  0.0996
10451TIP3    H152768   5.809   4.342   2.449  1.0672 -2.0976  0.8301
10451TIP3    H252769   5.727   4.216   2.464 -1.5599 -0.5197  0.5361
10452TIP3   OH252770   4.421   0.043   2.189  0.6858 -0.5443  0.4248
10452TIP3    H152771   4.383  -0.011   2.258 -0.7205 -0.5373 -0.3138
10452TIP3    H252772   4.349   0.057   2.127  2.3396 -2.1185 -2.0304
10453TIP3   OH252773   2.380   1.436   2.129  0.1725 -0.4267  0.0731
10453TIP3    H152774   2.442   1.503   2.102 -0.1600 -0.1818 -0.0901
10453TIP3    H252775   2.373   1.377   2.054 -0.7391  0.2446 -0.3951
10454TIP3   OH252776   6.319   4.311  13.596  0.2249  0.4240  0.0685
10454TIP3    H152777   6.351   4.224  13.571 -2.2576 -0.2158 -1.1588
10454TIP3    H252778   6.307   4.306  13.690 -0.5370 -0.8414 -0.0686
10455TIP3   OH252779   0.303   3.373  13.149 -1.2094 -0.2491  0.1320
10455TIP3    H152780   0.351   3.322  13.214 -0.1724  0.9399  0.3285
10455TIP3    H252781   0.341   3.347  13.065 -1.5333 -0.6859  0.1133
10456TIP3   OH252782   1.185   2.048  11.731  0.4634 -0.2736  0.2027
10456TIP3    H152783   1.130   1.982  11.689 -1.2058  0.4674  1.1262
10456TIP3    H252784   1.272   2.009  11.732 -0.1446 -1.7655 -0.7327
10457TIP3   OH252785   4.304   1.632   2.050  0.7907  0.2712  0.1631
10457TIP3    H152786   4.367   1.690   2.092 -0.6666  1.2541  1.0874
10457TIP3    H252787   4.264   1.685   1.981  0.3124 -0.0214  0.2086
10458TIP3   OH252788   1.296   5.537  15.721  0.6496 -0.4429 -0.0416
10458TIP3    H152789   1.293   5.503  15.632 -0.2300  0.2473 -0.2920
10458TIP3    H252790   1.209   5.575  15.735  1.3403  1.0256  0.4748
10459TIP3   OH252791   0.296   3.417  15.770 -0.2887 -0.2866 -0.4531
10459TIP3    H152792   0.306   3.493  15.712  2.0158  0.4088  0.7383
10459TIP3    H252793   0.237   3.446  15.839  0.8815  0.6228  0.2066
10460TIP3   OH252794   2.267   5.890   6.121  0.4841  0.1124 -0.5477
10460TIP3    H152795   2.190   5.926   6.164 -1.5899  0.6143 -4.2473
10460TIP3    H252796   2.336   5.956   6.133 -1.1326  1.9983 -1.1669
10461TIP3   OH252797   3.734   2.551   2.218 -0.1040 -0.0475  0.1835
10461TIP3    H152798   3.759   2.497   2.143 -1.5101  0.4810 -0.6995
10461TIP3    H252799   3.810   2.548   2.276  1.9748  1.4089 -2.2708
10462TIP3   OH252800   5.225   1.131   3.602  0.3043 -0.2831 -0.5263
10462TIP3    H152801   5.210   1.049   3.651 -1.2027 -0.2883 -0.9270
10462TIP3    H252802   5.174   1.120   3.521  2.2516 -0.0201 -1.8434
10463TIP3   OH252803   5.981   4.833   2.628 -0.7329 -0.2427  0.1375
10463TIP3    H152804   6.009   4.784   2.551 -0.4599 -1.1584  0.8081
10463TIP3    H252805   5.960   4.920   2.594  0.3989 -0.3123 -0.8106
10464TIP3   OH252806   4.958   0.243  12.548 -0.7137  0.1827  0.3206
10464TIP3    H152807   5.005   0.202  12.476 -1.4258 -0.0857 -0.0074
10464TIP3    H252808   5.002   0.211  12.627  1.8225  2.6193  0.0079
10465TIP3   OH252809   6.222   3.279   6.027 -1.3529  0.1649 -0.2502
10465TIP3    H152810   6.287   3.340   6.061 -0.4250 -0.1864 -1.3383
10465TIP3    H252811   6.221   3.207   6.090  0.9498 -0.8737 -1.2998
10466TIP3   OH252812   0.642   2.100   1.056  0.4511  0.3209 -0.0184
10466TIP3    H152813   0.692   2.095   1.138  1.1666  0.6478 -0.4270
10466TIP3    H252814   0.672   2.024   1.006  0.0984  0.1885 -0.0318
10467TIP3   OH252815   0.309   5.695   0.982  0.7531 -0.2109  0.4629
10467TIP3    H152816   0.230   5.650   0.954 -1.1264  2.7777  0.4916
10467TIP3    H252817   0.371   5.683   0.910 -0.8198 -0.1399 -0.9470
10468TIP3   OH252818   5.211   2.812   1.499  0.0499 -0.0579  0.6621
10468TIP3    H152819   5.267   2.889   1.504 -0.2708  0.1100  3.2396
10468TIP3    H252820   5.136   2.839   1.446  0.9951  0.6599 -0.3358
10469TIP3   OH252821   4.485   5.158   3.056  0.4005  0.4944 -0.6439
10469TIP3    H152822   4.414   5.096   3.041 -0.3715  1.6390 -2.1032
10469TIP3    H252823   4.441   5.243   3.066  1.2650  0.6511  3.2948
10470TIP3   OH252824   5.279   5.465   3.336 -0.5089  0.6822 -0.5753
10470TIP3    H152825   5.290   5.444   3.429  0.1079 -0.6954 -0.9352
10470TIP3    H252826   5.223   5.542   3.335 -0.0614  1.0506  0.9637
10471TIP3   OH252827   2.961   5.376  12.283 -0.0808 -0.1433  0.1474
10471TIP3    H152828   2.901   5.384  12.357 -0.6811 -2.2606 -0.0341
10471TIP3    H252829   2.992   5.285  12.287  1.4169  0.2747 -1.0455
10472TIP3   OH252830   2.988   3.028   0.915 -0.2714  0.0568  0.4501
10472TIP3    H152831   2.942   2.984   0.986 -1.2055 -0.0078 -0.1759
10472TIP3    H252832   3.042   2.960   0.875 -1.0249 -0.3151  0.0497
10473TIP3   OH252833   3.154   3.549  13.858  0.0412  0.1943  0.0672
10473TIP3    H152834   3.086   3.515  13.799 -0.4629  0.9708  0.1871
10473TIP3    H252835   3.127   3.639  13.876  1.0615  0.4829  0.1938
10474TIP3   OH252836   0.939   3.259   3.381  0.5689  0.1359 -0.4827
10474TIP3    H152837   0.984   3.175   3.386 -0.3834 -0.3380  0.8851
10474TIP3    H252838   0.983   3.314   3.446 -0.5777 -0.2430  0.6678
10475TIP3   OH252839   3.017   0.962   6.021  0.5713  0.0438  0.2173
10475TIP3    H152840   2.999   1.001   6.107 -0.7164 -0.0675  0.0284
10475TIP3    H252841   2.982   0.873   6.028 -1.2839  0.6097 -0.9632
10476TIP3   OH252842   3.594   0.153   4.348  0.7402 -0.0154  0.1486
10476TIP3    H152843   3.586   0.072   4.397 -0.5833 -1.3873 -2.1507
10476TIP3    H252844   3.686   0.156   4.322  1.1198 -0.0078  1.4377
10477TIP3   OH252845   0.090   4.386   4.276  0.5590 -0.0601 -0.2316
10477TIP3    H152846   0.079   4.386   4.372  0.7148 -1.4987 -0.1945
10477TIP3    H252847   0.181   4.363   4.262  0.5638  0.2475 -0.7399
10478TIP3   OH252848   4.403   1.971  16.827 -0.6133  0.2844  0.0306
10478TIP3    H152849   4.331   1.910  16.842 -1.8595  1.6289 -0.3083
10478TIP3    H252850   4.412   2.018  16.910 -0.4290  0.4360 -0.0752
10479TIP3   OH252851   0.188   0.754  12.859  0.1439  0.1080 -0.5550
10479TIP3    H152852   0.133   0.732  12.934  0.4067 -0.8045 -0.6198
10479TIP3    H252853   0.220   0.842  12.878  0.5161 -0.2627  0.5932
10480TIP3   OH252854   6.272   5.765   3.498 -0.0455  0.1038  0.4403
10480TIP3    H152855   6.322   5.700   3.548  0.0973  0.5882  0.9399
10480TIP3    H252856   6.316   5.848   3.517 -0.6704  0.4485  0.3913
10481TIP3   OH252857   4.224   1.497   1.229  0.6386 -0.7124 -0.4798
10481TIP3    H152858   4.274   1.467   1.306  0.4142  0.6200  0.2199
10481TIP3    H252859   4.261   1.583   1.209 -0.2432 -0.4479 -1.0146
10482TIP3   OH252860   3.930   6.550  12.765  0.8284 -0.4263 -0.0163
10482TIP3    H152861   3.976   6.518  12.687  0.8403  0.8473 -0.5486
10482TIP3    H252862   3.923   6.644  12.752  0.7490 -0.1985  1.4913
10483TIP3   OH252863   1.708   2.682   4.083 -0.0800 -0.0128 -0.4805
10483TIP3    H152864   1.639   2.745   4.104  0.1317  0.9679 -2.5036
10483TIP3    H252865   1.678   2.600   4.123 -1.0689  0.9952  0.9799
10484TIP3   OH252866   4.818   3.027   4.065 -0.1757  0.6619 -0.0786
10484TIP3    H152867   4.846   3.098   4.122  1.0804  1.2440 -1.3559
10484TIP3    H252868   4.770   2.968   4.123  0.8038  1.3513  1.5307
10485TIP3   OH252869   5.026   3.066  13.355  0.1572 -0.7421 -0.2911
10485TIP3    H152870   5.085   3.053  13.429  0.4258 -0.8072 -0.5172
10485TIP3    H252871   5.025   2.982  13.309 -2.2395 -1.6574  1.2296
10486TIP3   OH252872   5.786   3.535  13.018  0.3331 -0.1765 -0.3453
10486TIP3    H152873   5.808   3.447  12.987 -0.1805 -0.5876  0.4142
10486TIP3    H252874   5.802   3.592  12.943  0.9852 -0.8721 -0.7450
10487TIP3   OH252875   1.928   5.335  12.325 -0.0740  0.4651 -0.3815
10487TIP3    H152876   1.916   5.241  12.313 -0.4365  0.6940 -2.0532
10487TIP3    H252877   2.000   5.342  12.387  0.1739 -0.9250 -0.4824
10488TIP3   OH252878   3.188   0.526  15.971  0.0577 -0.2550 -0.0042
10488TIP3    H152879   3.182   0.571  15.886  1.3518 -0.4646 -0.2247
10488TIP3    H252880   3.154   0.589  16.034  0.1606  0.3481 -0.5391
10489TIP3   OH252881   6.114   5.271   2.519 -0.4362  0.2421  0.0264
10489TIP3    H152882   6.195   5.224   2.499 -0.6720  0.2163 -0.9246
10489TIP3    H252883   6.047   5.202   2.520 -0.5354  0.3426  0.1935
10490TIP3   OH252884   1.108   6.434  11.227 -0.2691  0.3274 -0.0183
10490TIP3    H152885   1.029   6.383  11.244 -0.1484  0.2202  0.2199
10490TIP3    H252886   1.127   6.477  11.310  1.2613 -1.4753  0.6322
10491TIP3   OH252887   5.004   4.425   0.420  1.1997 -0.0612  0.3005
10491TIP3    H152888   4.981   4.484   0.348  2.1867  1.3703  1.1154
10491TIP3    H252889   5.024   4.342   0.377  0.1206  0.2581 -0.9087
10492TIP3   OH252890   4.959   6.502  16.188 -0.4368  0.4689  0.2533
10492TIP3    H152891   4.945   6.479  16.097  0.9863 -3.3883  0.8427
10492TIP3    H252892   4.872   6.527  16.220 -1.3158  0.0428 -1.6690
10493TIP3   OH252893   1.366   1.321  15.707  0.5012  0.2572 -0.0239
10493TIP3    H152894   1.336   1.321  15.616  1.9211 -1.2325 -0.5326
10493TIP3    H252895   1.404   1.408  15.720 -0.0619  0.6187 -0.7213
10494TIP3   OH252896   0.110   3.547  14.610 -0.4239  0.2724 -0.0590
10494TIP3    H152897   0.042   3.591  14.661  0.0890  1.7966 -0.6270
10494TIP3    H252898   0.099   3.581  14.521 -1.7600 -2.8620 -1.2112
10495TIP3   OH252899   6.101   0.119  12.061 -0.1081 -0.1327 -0.2899
10495TIP3    H152900   6.040   0.185  12.028  0.8320  0.0439 -1.7429
10495TIP3    H252901   6.062   0.091  12.144 -1.6952  0.6074 -0.7344
10496TIP3   OH252902   2.777   1.901  11.359  0.0100  0.1945 -0.8270
10496TIP3    H152903   2.840   1.965  11.390  1.3473 -1.3930 -0.0838
10496TIP3    H252904   2.813   1.816  11.386 -1.4379 -0.9196 -2.1512
10497TIP3   OH252905   4.976   0.406   2.954  0.0947 -0.2006 -0.6763
10497TIP3    H152906   4.909   0.364   3.007  2.1010 -0.4869  1.8300
10497TIP3    H252907   4.953   0.499   2.954 -0.1844 -0.2590  0.3818
10498TIP3   OH252908   5.385   0.815  15.693  0.2976  0.6746  0.4902
10498TIP3    H152909   5.323   0.845  15.759 -0.7301  1.3016 -0.7272
10498TIP3    H252910   5.441   0.890  15.677 -1.4034  1.5840 -1.5505
10499TIP3   OH252911   6.732   3.103  13.893 -0.0828  1.0400  0.0260
10499TIP3    H152912   6.652   3.060  13.923  0.0947  0.7720  0.1213
10499TIP3    H252913   6.769   3.043  13.829  0.5054  0.7402  0.6290
10500TIP3   OH252914   1.026   3.004   2.326 -0.1902  0.1421  0.2866
10500TIP3    H152915   1.074   3.076   2.285  1.1355 -0.6463  0.3907
10500TIP3    H252916   0.992   3.040   2.408 -1.2986  1.2084 -0.5965
10501TIP3   OH252917   6.107   2.116  13.767  0.2736 -0.0045 -0.3216
10501TIP3    H152918   6.128   2.167  13.845 -0.8192  0.3789 -0.2620
10501TIP3    H252919   6.129   2.026  13.791 -1.9121 -0.2249  1.2002
10502TIP3   OH252920   0.323   1.522  12.310 -1.1064 -0.1936  0.3504
10502TIP3    H152921   0.235   1.524  12.349 -1.8829  1.0420 -1.3372
10502TIP3    H252922   0.307   1.532  12.216  0.8862  1.4713  0.1170
10503TIP3   OH252923   6.769   2.575  11.597  0.3845  0.3768 -0.5664
10503TIP3    H152924   6.845   2.620  11.562 -0.8333  0.6908 -3.0452
10503TIP3    H252925   6.713   2.645  11.632  0.2739  0.3839 -0.7541
10504TIP3   OH252926   6.455   1.316  13.624  0.3225  0.7374  0.1683
10504TIP3    H152927   6.500   1.309  13.709 -1.9806 -2.8074  1.3434
10504TIP3    H252928   6.525   1.319  13.560  2.1853  0.5197  2.0758
10505TIP3   OH252929   6.257   0.915   4.474 -0.0742 -0.2978  0.1597
10505TIP3    H152930   6.265   0.909   4.569  0.0306 -2.7880  0.0489
10505TIP3    H252931   6.273   0.826   4.442 -2.6763 -0.1280 -2.0015
10506TIP3   OH252932   1.579   5.191  12.352  0.2452 -0.0969 -0.2411
10506TIP3    H152933   1.493   5.205  12.312  0.3737 -1.9461 -1.3054
10506TIP3    H252934   1.614   5.279  12.366 -1.4399  0.6747 -0.6265
10507TIP3   OH252935   5.298   3.182   2.391  0.0268  0.1345  0.3810
10507TIP3    H152936   5.378   3.188   2.444 -0.3854  1.8603  0.8511
10507TIP3    H252937   5.301   3.093   2.354  2.4457  0.3509 -0.0987
10508TIP3   OH252938   3.890   3.698  13.391 -0.0694  0.2331  0.3332
10508TIP3    H152939   3.884   3.770  13.329 -2.0083 -0.8914 -0.8680
10508TIP3    H252940   3.802   3.662  13.395  0.7273 -1.7663  1.2697
10509TIP3   OH252941   4.773   6.221  11.174 -0.0191  0.0297 -0.0239
10509TIP3    H152942   4.763   6.316  11.183 -0.4258 -0.0616  0.5091
10509TIP3    H252943   4.692   6.185  11.209  0.2915 -0.5327  0.1199
10510TIP3   OH252944   1.259   0.356   0.308 -0.0622  0.1460  0.1305
10510TIP3    H152945   1.196   0.413   0.265 -0.6151 -0.6227 -0.0769
10510TIP3    H252946   1.344   0.387   0.276 -0.2443  1.7863  1.1195
10511TIP3   OH252947   1.316   3.031  11.766  0.2580 -0.2828 -0.2647
10511TIP3    H152948   1.248   3.003  11.705  0.5471  1.7904 -1.6437
10511TIP3    H252949   1.283   3.005  11.852 -1.5646 -0.6821 -1.0399
10512TIP3   OH252950   6.383   1.357  15.010 -0.0981  0.3728 -0.0084
10512TIP3    H152951   6.413   1.278  14.965 -0.0361 -0.0470  0.7687
10512TIP3    H252952   6.288   1.357  14.999 -0.1568 -0.1316  0.5251
10513TIP3   OH252953   2.020   3.163  12.898  0.1939  0.0669 -0.3085
10513TIP3    H152954   2.070   3.086  12.922  0.4067  1.0176  2.8224
10513TIP3    H252955   1.955   3.132  12.835  3.1423 -1.6524 -2.7061
10514TIP3   OH252956   4.207   4.492  13.391  0.6890 -0.5955  0.4881
10514TIP3    H152957   4.224   4.572  13.441  2.1669 -0.4437 -0.1823
10514TIP3    H252958   4.135   4.515  13.333  2.1383  0.8214 -0.8451
10515TIP3   OH252959   5.314   2.777  15.839  0.1358 -0.2271 -0.3149
10515TIP3    H152960   5.299   2.773  15.745 -1.0175  1.0397 -0.2203
10515TIP3    H252961   5.342   2.688  15.863 -0.4110 -0.7993 -1.6927
10516TIP3   OH252962   1.250   2.902  12.232 -0.0649  0.7507  0.4854
10516TIP3    H152963   1.196   2.942  12.163 -2.3088 -0.5547  1.3712
10516TIP3    H252964   1.293   2.976  12.275 -0.3908  1.7655 -0.8706
10517TIP3   OH252965   1.003   3.007   4.808  0.2816  0.0092 -0.1262
10517TIP3    H152966   0.921   3.005   4.858 -0.6705  1.7473 -1.5091
10517TIP3    H252967   1.064   3.053   4.864  0.1322 -0.6763  0.6273
10518TIP3   OH252968   6.343   0.154  15.146 -0.2462  0.2086 -0.3222
10518TIP3    H152969   6.401   0.078  15.156 -2.3473 -1.5201 -0.5548
10518TIP3    H252970   6.370   0.194  15.063  0.4633 -0.6745 -0.5377
10519TIP3   OH252971   0.746   4.611  15.946  0.3208 -0.5580 -0.1177
10519TIP3    H152972   0.767   4.607  15.853  2.5471  0.0744  0.2859
10519TIP3    H252973   0.675   4.548  15.958  0.0132 -0.6685 -2.2181
10520TIP3   OH252974   2.777   6.095  11.262 -0.0431 -0.3991 -0.3884
10520TIP3    H152975   2.689   6.083  11.226  0.8916  1.1068 -3.6197
10520TIP3    H252976   2.776   6.184  11.299 -0.3039 -1.0250  1.1693
10521TIP3   OH252977   1.363   2.806  13.872  0.1220 -0.0892 -0.1007
10521TIP3    H152978   1.328   2.894  13.887 -1.4063 -0.2692 -2.1459
10521TIP3    H252979   1.426   2.817  13.801  0.2711 -0.5643 -0.0427
10522TIP3   OH252980   6.520   6.624   3.631 -0.3490 -0.2169 -0.1568
10522TIP3    H152981   6.500   6.695   3.570 -1.7243  0.1437  0.6880
10522TIP3    H252982   6.526   6.546   3.575 -0.6631  0.2497 -0.8593
10523TIP3   OH252983   0.775   3.574   3.386  0.4339 -0.0202 -0.5122
10523TIP3    H152984   0.728   3.657   3.402  1.1369  0.3646 -0.4166
10523TIP3    H252985   0.844   3.572   3.452 -1.1559 -1.9514  1.2058
10524TIP3   OH252986   3.549   1.866   5.371 -0.8291  0.6269  0.4324
10524TIP3    H152987   3.636   1.887   5.406  0.0906 -1.3527 -0.4905
10524TIP3    H252988   3.531   1.778   5.405  0.0048 -1.3187 -3.6159
10525TIP3   OH252989   1.331   1.539  14.440 -0.4923  0.3248 -0.3944
10525TIP3    H152990   1.330   1.594  14.519 -1.6784  2.0991 -1.5651
10525TIP3    H252991   1.247   1.557  14.398 -0.3797 -1.4889 -1.4902
10526TIP3   OH252992   3.396   6.214   5.614  0.6619  0.1816  0.3617
10526TIP3    H152993   3.361   6.293   5.653 -1.7966  0.2647 -1.7801
10526TIP3    H252994   3.334   6.145   5.639  1.8044 -0.7747  0.7087
10527TIP3   OH252995   6.091   1.644   0.712  0.1031 -0.2787 -0.4365
10527TIP3    H152996   6.066   1.581   0.780 -0.2855 -0.0104 -0.3244
10527TIP3    H252997   6.136   1.714   0.760 -1.7595  0.8135 -0.1622
10528TIP3   OH252998   1.623   2.589   3.764 -0.0635 -0.1006 -0.5204
10528TIP3    H152999   1.544   2.591   3.818  1.5424  2.8607  1.9969
10528TIP3    H253000   1.613   2.663   3.704  0.5881 -0.0058 -0.5155
10529TIP3   OH253001   0.557   1.536   5.111 -0.6673 -0.4768  0.0828
10529TIP3    H153002   0.556   1.447   5.076  0.9879  0.1728 -1.8567
10529TIP3    H253003   0.505   1.586   5.049 -1.1565  0.0140  0.8756
10530TIP3   OH253004   0.652   3.033  12.224 -0.1349 -0.2647 -0.1115
10530TIP3    H153005   0.603   3.048  12.143 -3.4300 -0.8229  1.5990
10530TIP3    H253006   0.658   3.120  12.264  0.1564 -0.2163 -0.2608
10531TIP3   OH253007   2.940   0.234  16.784  0.2188 -0.1459  0.4223
10531TIP3    H153008   2.915   0.192  16.866  2.1839  0.1731  1.2372
10531TIP3    H253009   2.864   0.221  16.727 -0.9063 -1.0254  2.0244
10532TIP3   OH253010   4.244   5.287  11.888  0.1902  0.0476 -0.3925
10532TIP3    H153011   4.173   5.223  11.892  0.1875  0.0597 -0.2448
10532TIP3    H253012   4.245   5.316  11.797 -0.7112  0.8550 -0.1552
10533TIP3   OH253013   2.732   6.784   0.211  0.1703  0.5012  0.4307
10533TIP3    H153014   2.800   6.759   0.274 -0.3212  0.0692  0.7921
10533TIP3    H253015   2.758   6.740   0.130  0.0349 -0.1107  0.7126
10534TIP3   OH253016   0.899   3.343  14.083  0.0498 -0.0728  0.0323
10534TIP3    H153017   0.829   3.356  14.020 -1.4753  3.0669  2.0786
10534TIP3    H253018   0.865   3.277  14.144 -0.8934  0.8881  0.5874
10535TIP3   OH253019   3.590   3.991  13.421  0.9700  0.8848  0.1404
10535TIP3    H153020   3.509   4.042  13.412  0.2123 -0.3148 -0.1198
10535TIP3    H253021   3.639   4.011  13.342 -0.1779 -0.2181 -0.8963
10536TIP3   OH253022   2.022   3.984  12.209  0.5580  0.6592 -0.9183
10536TIP3    H153023   2.009   4.060  12.152 -0.6644 -0.2292 -1.8630
10536TIP3    H253024   2.081   3.927  12.160  1.5685  1.0254 -0.1600
10537TIP3   OH253025   4.820   3.100   1.020 -0.7538 -0.4164  0.5764
10537TIP3    H153026   4.881   3.143   1.080  0.8178 -0.7268 -0.7294
10537TIP3    H253027   4.766   3.045   1.076  0.0512 -0.0084  1.7919
10538TIP3   OH253028   0.296   1.677   5.664  0.0990 -0.3528  0.0219
10538TIP3    H153029   0.208   1.653   5.635 -1.0768 -1.4975  3.8944
10538TIP3    H253030   0.292   1.772   5.678  0.3732  0.0372 -2.1038
10539TIP3   OH253031   3.156   3.357   5.439  0.1835 -0.9708  0.0130
10539TIP3    H153032   3.155   3.270   5.399  1.3439 -0.6486 -0.7596
10539TIP3    H253033   3.124   3.415   5.370  1.0991 -0.5614 -0.0832
10540TIP3   OH253034   3.530   1.959  12.471  0.2077 -0.0224  0.2268
10540TIP3    H153035   3.514   1.946  12.377  1.4137 -0.2279  0.0379
10540TIP3    H253036   3.447   1.934  12.512 -0.4045  0.2667 -0.7925
10541TIP3   OH253037   6.747   6.287  10.926 -0.8200 -0.2010 -0.1662
10541TIP3    H153038   6.722   6.264  10.837 -2.0365  1.3513 -0.2670
10541TIP3    H253039   6.827   6.337  10.917 -1.1858  0.3453 -0.4471
10542TIP3   OH253040   5.651   1.373  16.504 -0.4840 -0.2147  0.3087
10542TIP3    H153041   5.611   1.383  16.417 -0.6731  0.7007  0.4825
10542TIP3    H253042   5.738   1.338  16.487 -0.6054 -0.2612 -0.2393
10543TIP3   OH253043   2.356   3.786  13.884 -0.3779  0.0506  0.7512
10543TIP3    H153044   2.405   3.723  13.830 -2.6201 -0.7726 -0.4481
10543TIP3    H253045   2.407   3.867  13.878  0.6650 -0.6668 -0.7110
10544TIP3   OH253046   2.777   6.120   3.392 -0.6836  0.2164 -0.2161
10544TIP3    H153047   2.718   6.056   3.351  0.7891 -1.9438  0.8237
10544TIP3    H253048   2.802   6.079   3.475 -2.7250  3.9320  2.5449
10545TIP3   OH253049   2.700   5.745   4.056 -0.2614 -0.2501 -0.2738
10545TIP3    H153050   2.679   5.651   4.050 -2.2356  0.0297  1.1917
10545TIP3    H253051   2.615   5.789   4.057  0.5333  1.3912  1.0339
10546TIP3   OH253052   5.618   6.093  15.205  0.1120  0.0110  0.3411
10546TIP3    H153053   5.648   6.035  15.136  1.4576  1.8639 -0.7355
10546TIP3    H253054   5.538   6.053  15.238  0.9169 -2.3545 -0.3772
10547TIP3   OH253055   0.309   3.354   2.848 -0.1079 -0.2172  0.5245
10547TIP3    H153056   0.389   3.404   2.864 -1.2081  2.1001 -0.7675
10547TIP3    H253057   0.290   3.368   2.755 -1.8184 -1.0239  0.7155
10548TIP3   OH253058   0.544   3.828  16.364 -0.0480 -0.0239  0.2164
10548TIP3    H153059   0.591   3.769  16.422  0.6942  1.6670  1.3945
10548TIP3    H253060   0.601   3.836  16.287  1.4692  1.6840  1.4511
10549TIP3   OH253061   6.484   6.272   4.653 -0.4353 -0.1606 -0.9340
10549TIP3    H153062   6.537   6.351   4.658 -1.7383  0.6623  0.7452
10549TIP3    H253063   6.496   6.229   4.737 -1.3124 -0.6865 -1.0553
10550TIP3   OH253064   0.641   5.511  16.170  0.0595  0.0513  0.4007
10550TIP3    H153065   0.573   5.544  16.228 -1.4311 -1.0577 -0.6328
10550TIP3    H253066   0.704   5.468  16.228 -0.3055  0.7627  1.3422
10551TIP3   OH253067   0.625   4.060  16.594  0.1643 -0.5103 -0.3350
10551TIP3    H153068   0.636   3.975  16.551 -0.8973 -0.1912 -1.2902
10551TIP3    H253069   0.613   4.122  16.522 -1.5599  0.0534  0.3880
10552TIP3   OH253070   1.642   4.078   2.826 -0.6068  0.2159  0.1244
10552TIP3    H153071   1.560   4.084   2.873 -0.6871 -3.7738  0.7999
10552TIP3    H253072   1.624   4.019   2.753  1.6407 -1.0383  0.4785
10553TIP3   OH253073   4.341   0.665   0.384  0.1353 -0.1644  0.1778
10553TIP3    H153074   4.274   0.622   0.331  0.9170 -0.5723 -0.4994
10553TIP3    H253075   4.348   0.609   0.462  0.9531 -1.1694 -0.5762
10554TIP3   OH253076   2.458   5.904  11.719  0.4747 -0.3369  1.3216
10554TIP3    H153077   2.473   5.975  11.781  4.0903  1.2793 -1.0568
10554TIP3    H253078   2.482   5.825  11.766  2.7024  0.7877  2.2148
10555TIP3   OH253079   6.481   6.091  13.120  0.2198  0.7200 -0.2449
10555TIP3    H153080   6.431   6.173  13.115 -0.3624  0.5447  1.7842
10555TIP3    H253081   6.420   6.029  13.160  1.9675  0.4754  2.2249
10556TIP3   OH253082   6.685   0.421   1.365  0.0248 -0.2694 -0.1152
10556TIP3    H153083   6.728   0.474   1.432 -1.0442  1.3755 -0.6763
10556TIP3    H253084   6.757   0.375   1.322  0.8312 -0.5434  1.4355
10557TIP3   OH253085   6.095   1.820   2.722 -0.1078  0.2142 -0.5356
10557TIP3    H153086   6.023   1.809   2.659 -1.7897 -1.2439  1.4993
10557TIP3    H253087   6.149   1.742   2.709 -0.3922 -0.0302 -0.2734
10558TIP3   OH253088   3.055   6.197   1.982  1.0619  0.2330 -0.4039
10558TIP3    H153089   3.095   6.282   2.003  1.9954 -0.3960  0.4589
10558TIP3    H253090   3.099   6.135   2.041 -0.4813 -0.6610 -0.1545
10559TIP3   OH253091   3.914   5.144  11.019  0.3516 -0.1443 -0.1346
10559TIP3    H153092   3.911   5.126  10.925 -0.5346  0.4610 -0.2379
10559TIP3    H253093   3.868   5.070  11.059  1.5545 -0.8927 -0.0761
10560TIP3   OH253094   0.352   2.499  11.594 -0.2397  0.0158 -0.2445
10560TIP3    H153095   0.403   2.517  11.673  0.9308  0.0325 -0.9755
10560TIP3    H253096   0.340   2.585  11.554  0.5872 -0.1617 -0.9062
10561TIP3   OH253097   4.193   1.235   2.950  0.6634 -0.2727 -0.0916
10561TIP3    H153098   4.274   1.286   2.940 -0.6219  1.7951 -0.4300
10561TIP3    H253099   4.203   1.163   2.889  1.9415  0.3506 -0.6691
10562TIP3   OH253100   6.543   1.761   1.609 -0.8381  0.1812  0.2117
10562TIP3    H153101   6.509   1.686   1.658 -1.8739  0.2312 -0.3993
10562TIP3    H253102   6.533   1.736   1.517  2.5304 -0.5559 -0.0674
10563TIP3   OH253103   1.351   4.640  15.506  0.1250 -0.4742 -0.0148
10563TIP3    H153104   1.421   4.600  15.454  0.3982 -0.6501  0.4785
10563TIP3    H253105   1.375   4.621  15.597  0.8558  1.7024  0.3163
10564TIP3   OH253106   3.800   5.006  16.709  0.4315 -0.4749  0.6154
10564TIP3    H153107   3.783   4.943  16.639  0.0233 -2.8532  2.7267
10564TIP3    H253108   3.732   5.072  16.699  0.3874 -0.7257 -1.1890
10565TIP3   OH253109   0.179   3.951   4.182 -0.6300  1.1787 -0.4348
10565TIP3    H153110   0.269   3.975   4.205 -0.3476  0.1728 -0.4432
10565TIP3    H253111   0.157   4.008   4.109 -0.0986  1.6273 -0.2530
10566TIP3   OH253112   0.372   3.253  12.917  0.4912  0.1498  0.1133
10566TIP3    H153113   0.375   3.167  12.958  1.2640  0.2738  0.3446
10566TIP3    H253114   0.288   3.256  12.871 -0.2144 -0.1590  1.3333
10567TIP3   OH253115   5.413   4.439  10.546  0.2324 -0.9703 -0.0193
10567TIP3    H153116   5.359   4.466  10.621  0.6257  1.3433 -0.4825
10567TIP3    H253117   5.360   4.372  10.501 -2.0622  0.7845 -0.1339
10568TIP3   OH253118   3.033   3.494   3.383 -0.1141 -0.0271  0.4601
10568TIP3    H153119   3.114   3.465   3.425 -0.2880 -0.3027  0.6087
10568TIP3    H253120   3.032   3.589   3.397  0.8649  0.1806 -0.7377
10569TIP3   OH253121   3.504   4.702  14.649  0.1926 -0.3232 -0.7663
10569TIP3    H153122   3.497   4.642  14.575  1.1185 -0.9392 -0.3672
10569TIP3    H253123   3.428   4.759  14.641  0.0276 -0.6845 -1.9230
10570TIP3   OH253124   2.791   3.097   1.741  0.3707 -0.3741 -0.6244
10570TIP3    H153125   2.884   3.117   1.734 -0.1640  2.4687 -0.9310
10570TIP3    H253126   2.781   3.056   1.827  1.9339 -1.1282 -0.7747
10571TIP3   OH253127   2.480   6.443   5.306 -0.3974  0.5467  0.3856
10571TIP3    H153128   2.455   6.514   5.246 -2.2301 -1.0876 -0.8972
10571TIP3    H253129   2.425   6.456   5.383 -0.2182  0.9028  0.4574
10572TIP3   OH253130   6.749   5.590   1.224 -0.2337  0.4399  0.2064
10572TIP3    H153131   6.739   5.574   1.318  1.7009 -0.5670  0.2840
10572TIP3    H253132   6.834   5.552   1.202 -0.9399  0.0279 -2.0979
10573TIP3   OH253133   6.226   4.871   2.137 -0.0151  0.2484  0.4327
10573TIP3    H153134   6.308   4.857   2.184  0.6560 -2.1515 -1.2649
10573TIP3    H253135   6.250   4.924   2.061 -0.2202  0.3076  0.4083
10574TIP3   OH253136   4.830   4.161   4.859 -0.1033 -0.5284 -0.0121
10574TIP3    H153137   4.856   4.110   4.936 -0.1024 -0.4087  0.0685
10574TIP3    H253138   4.884   4.128   4.788 -0.2671 -0.7996 -0.0130
10575TIP3   OH253139   3.766   2.498  12.346 -0.3232 -0.7120 -0.5070
10575TIP3    H153140   3.810   2.569  12.299  0.9961  0.3937  2.1648
10575TIP3    H253141   3.688   2.539  12.384  0.3582 -0.6565  0.9128
10576TIP3   OH253142   1.318   2.154   0.998 -0.6293  0.2631 -0.1915
10576TIP3    H153143   1.249   2.204   1.042 -1.8402 -1.8884  0.5183
10576TIP3    H253144   1.284   2.064   0.995  2.0442 -0.8411 -0.0407
10577TIP3   OH253145   5.886   0.178   3.947 -0.3933 -0.7121  0.0057
10577TIP3    H153146   5.970   0.224   3.950 -0.9990  0.4200  0.0292
10577TIP3    H253147   5.877   0.138   4.033 -0.2797 -0.0954  0.3049
10578TIP3   OH253148   1.945   1.723   4.150  0.1354 -0.3577  0.6784
10578TIP3    H153149   1.869   1.681   4.110  0.0732  1.0264 -0.7457
10578TIP3    H253150   2.016   1.709   4.088  0.2554  1.0538  0.4539
10579TIP3   OH253151   5.838   4.608  16.799  0.1190 -0.5802 -0.0181
10579TIP3    H153152   5.836   4.568  16.886  0.2852  0.4125  0.4516
10579TIP3    H253153   5.919   4.657  16.797 -0.9008  1.1806  0.0896
10580TIP3   OH253154   5.710   0.001  16.737  0.0735  0.2374  0.2344
10580TIP3    H153155   5.785  -0.046  16.773  0.6604  0.4201 -0.7232
10580TIP3    H253156   5.740   0.091  16.727 -0.1528  0.2403 -0.4848
10581TIP3   OH253157   2.698   0.989  17.115 -0.2451 -0.4244  0.8032
10581TIP3    H153158   2.786   0.952  17.114  0.4263  1.0748  1.1047
10581TIP3    H253159   2.648   0.933  17.174  0.9484 -0.3484  1.9206
10582TIP3   OH253160   3.189   0.540   6.252 -0.5916 -0.1208 -0.1647
10582TIP3    H153161   3.278   0.542   6.287 -0.7008  0.8342  0.0878
10582TIP3    H253162   3.176   0.449   6.224  1.3366  0.2057 -2.4954
10583TIP3   OH253163   2.171   4.897   3.999  0.2859 -0.4482  0.6051
10583TIP3    H153164   2.213   4.908   4.084  0.6606 -0.3507  0.4071
10583TIP3    H253165   2.214   4.821   3.960 -1.9803 -2.4455  1.7780
10584TIP3   OH253166   5.401   5.566  12.976 -0.3036 -0.0865  0.4855
10584TIP3    H153167   5.467   5.496  12.968 -0.6906 -0.4331  0.3203
10584TIP3    H253168   5.453   5.646  12.981  0.1156 -0.2521 -0.7618
10585TIP3   OH253169   3.274   1.864  15.411  0.0023  0.4609 -0.2944
10585TIP3    H153170   3.331   1.942  15.412  1.1138 -0.2808 -1.6355
10585TIP3    H253171   3.208   1.884  15.345  0.1890  0.3417 -0.5195
10586TIP3   OH253172   0.637   1.198  11.608 -0.8873  0.5056 -0.4240
10586TIP3    H153173   0.642   1.144  11.529  0.3217  1.1523 -0.8257
10586TIP3    H253174   0.544   1.208  11.625 -1.1506 -0.5100 -1.1623
10587TIP3   OH253175   4.205   1.800   1.819 -0.3097  0.2059  0.3319
10587TIP3    H153176   4.109   1.796   1.811 -0.2077 -3.8403 -1.0267
10587TIP3    H253177   4.230   1.870   1.758 -2.3397 -0.2145 -1.1146
10588TIP3   OH253178   3.045   2.032  10.881  0.0412 -0.2733  0.2069
10588TIP3    H153179   3.030   1.962  10.817  0.0868 -0.4850  0.4281
10588TIP3    H253180   3.137   2.024  10.905  0.3418  0.5480 -0.5756
10589TIP3   OH253181   6.278   5.583  14.676  0.2616  0.0859 -0.3852
10589TIP3    H153182   6.317   5.540  14.752  0.0064 -1.4499 -1.0901
10589TIP3    H253183   6.348   5.640  14.642  0.0092  1.6985  1.6249
10590TIP3   OH253184   4.336   6.338   3.532  0.4561  0.1835  0.3240
10590TIP3    H153185   4.304   6.260   3.487 -1.5615  1.1587 -0.0352
10590TIP3    H253186   4.394   6.380   3.469  0.1446 -0.1115 -0.1679
10591TIP3   OH253187   0.313   1.939   1.894 -0.1296  0.0034  0.4149
10591TIP3    H153188   0.287   1.850   1.869 -0.3365  0.4536 -1.0996
10591TIP3    H253189   0.230   1.984   1.910 -0.0793  0.1730  0.2110
10592TIP3   OH253190   3.427   4.359   2.692 -0.6647  0.3251 -0.0956
10592TIP3    H153191   3.390   4.385   2.608 -0.4223 -1.2830 -0.7280
10592TIP3    H253192   3.382   4.414   2.756 -2.1275  0.3497 -1.1068
10593TIP3   OH253193   3.307   1.232  14.766 -0.3099  0.1483  0.1650
10593TIP3    H153194   3.367   1.174  14.719  0.4376  0.8809  0.1901
10593TIP3    H253195   3.354   1.315  14.773  0.1522 -0.2403  3.2441
10594TIP3   OH253196   1.611   6.588  13.331  0.3108  0.0395 -0.7457
10594TIP3    H153197   1.700   6.579  13.364 -0.2110  0.0755  0.7422
10594TIP3    H253198   1.556   6.588  13.410 -1.0343 -0.3189 -1.6525
10595TIP3   OH253199   2.558   6.260   0.020  0.2972 -0.3940  0.1811
10595TIP3    H153200   2.594   6.317   0.088  2.0178 -0.0673 -0.9124
10595TIP3    H253201   2.635   6.232  -0.030 -0.9391  0.0054 -2.0869
10596TIP3   OH253202   2.772   0.053   3.390 -0.0126  0.2454  0.0514
10596TIP3    H153203   2.799   0.029   3.301  2.0287  0.4044  0.5887
10596TIP3    H253204   2.790   0.146   3.396  0.4538  0.1069  0.8387
10597TIP3   OH253205   4.814   5.274  17.098 -0.4293  0.2840  0.0859
10597TIP3    H153206   4.742   5.234  17.146  1.3864 -2.5548  0.6877
10597TIP3    H253207   4.835   5.211  17.029  3.0614 -0.3758  1.5267
10598TIP3   OH253208   6.389   4.853  11.141 -0.1563  0.0593 -0.0345
10598TIP3    H153209   6.347   4.851  11.227 -1.6385 -1.1536 -0.7332
10598TIP3    H253210   6.345   4.925  11.095 -0.5798 -0.3697 -0.3196
10599TIP3   OH253211   3.873   0.227   5.267 -0.4998  0.5260  0.1900
10599TIP3    H153212   3.901   0.242   5.176 -1.7285  0.2488 -0.2519
10599TIP3    H253213   3.912   0.299   5.316  0.0102  0.7958 -0.5889
10600TIP3   OH253214   5.271   4.791   4.220  0.3553  0.3513  0.0473
10600TIP3    H153215   5.225   4.749   4.148  0.3245 -1.0529  0.8465
10600TIP3    H253216   5.323   4.721   4.260  0.3188  1.0673  1.4260
10601TIP3   OH253217   3.480   4.586  11.270  0.2344 -0.2753  0.0964
10601TIP3    H153218   3.480   4.507  11.215 -2.0447  0.8403 -1.6562
10601TIP3    H253219   3.396   4.583  11.316  0.0665  1.1568 -0.0732
10602TIP3   OH253220   5.541   5.989  16.948 -0.0081 -0.3633  0.9310
10602TIP3    H153221   5.603   5.926  16.910 -1.4350 -1.3854  0.1915
10602TIP3    H253222   5.534   5.962  17.039 -0.2738 -1.0316  0.7261
10603TIP3   OH253223   3.918   0.071  10.411 -0.5406  0.0685  0.0546
10603TIP3    H153224   3.827   0.041  10.405 -0.8723  1.1353 -0.5374
10603TIP3    H253225   3.912   0.167  10.407  0.6436  0.1389 -0.5348
10604TIP3   OH253226   5.667   4.223  14.258  0.0112  0.2515  0.4266
10604TIP3    H153227   5.608   4.238  14.184 -0.1454 -0.6913  0.3495
10604TIP3    H253228   5.726   4.299  14.257  1.2876 -0.6632 -1.8755
10605TIP3   OH253229   5.193   6.641  16.096  0.3922  0.1821  0.3955
10605TIP3    H153230   5.108   6.602  16.117  0.9330 -0.9127  0.6238
10605TIP3    H253231   5.241   6.571  16.054  0.5749  1.3155 -1.3655
10606TIP3   OH253232   5.622   6.291  13.169 -0.3178 -0.1250  0.5171
10606TIP3    H153233   5.532   6.322  13.157  0.4616  1.8674 -0.7201
10606TIP3    H253234   5.668   6.367  13.204  1.1665 -0.6784 -0.1722
10607TIP3   OH253235   1.891   1.673   1.170 -0.2147 -0.2234 -0.3524
10607TIP3    H153236   1.879   1.590   1.125 -0.9333 -0.2415 -0.1504
10607TIP3    H253237   1.976   1.706   1.140  0.3565 -1.3121  0.0211
10608TIP3   OH253238   0.361   0.276  15.569 -0.2632 -0.5574 -0.1764
10608TIP3    H153239   0.331   0.224  15.643 -0.9504 -0.2179 -0.2065
10608TIP3    H253240   0.354   0.367  15.599 -0.7852 -0.4065 -0.7397
10609TIP3   OH253241   0.664   1.292   1.413 -0.2309 -0.0666 -0.1224
10609TIP3    H153242   0.711   1.228   1.466 -1.0117 -0.2633  0.3390
10609TIP3    H253243   0.578   1.301   1.456 -0.0844  1.3984 -0.0776
10610TIP3   OH253244   0.922   4.295  15.651  0.3208  0.0973 -0.1704
10610TIP3    H153245   0.942   4.291  15.558  0.0029  0.5584 -0.2627
10610TIP3    H253246   0.988   4.355  15.687  0.0529  0.4249 -0.2147
10611TIP3   OH253247   3.718   5.940   1.328 -0.6056 -0.5680 -0.3482
10611TIP3    H153248   3.644   5.985   1.288 -0.4842 -0.1303 -0.0935
10611TIP3    H253249   3.692   5.927   1.419  0.3486  1.2917  0.2461
10612TIP3   OH253250   1.853   3.591   1.144  0.0784 -0.6302  0.2675
10612TIP3    H153251   1.881   3.501   1.160 -1.3631 -0.8402  1.8820
10612TIP3    H253252   1.775   3.602   1.199  0.7382  1.9016  0.8098
10613TIP3   OH253253   0.620   0.483  13.252  0.5309 -0.3669 -0.1466
10613TIP3    H153254   0.601   0.501  13.160  0.1442 -1.6150 -0.3261
10613TIP3    H253255   0.689   0.417  13.250  0.2667 -0.6691  0.4406
10614TIP3   OH253256   3.003   0.559   0.932 -0.2974  0.0193 -0.1231
10614TIP3    H153257   2.975   0.549   1.023 -0.3787  0.7186 -0.0619
10614TIP3    H253258   2.973   0.480   0.888 -2.7404  0.8745 -0.1473
10615TIP3   OH253259   6.137   0.524  12.939 -0.0656  0.1441 -0.0443
10615TIP3    H153260   6.176   0.444  12.974  2.6224  0.6371 -1.5428
10615TIP3    H253261   6.176   0.595  12.991  0.0417  0.5880 -0.6977
10616TIP3   OH253262   6.068   1.958   2.959  0.0306  0.4071 -0.6196
10616TIP3    H153263   5.974   1.974   2.965  0.1420  0.7050  0.9089
10616TIP3    H253264   6.077   1.891   2.892 -1.5724 -1.6718  1.0759
10617TIP3   OH253265   6.214   6.534   4.368 -0.1203  1.0590 -0.1305
10617TIP3    H153266   6.124   6.566   4.364  0.5686  3.2078  0.3333
10617TIP3    H253267   6.241   6.550   4.459  1.0325  1.3718 -0.5121
10618TIP3   OH253268   2.399   2.255  14.030  0.4477 -0.5379  0.6143
10618TIP3    H153269   2.367   2.186  13.973  1.3103  0.3386 -1.0275
10618TIP3    H253270   2.351   2.333  14.002  2.6688  0.4435 -0.7560
10619TIP3   OH253271   5.018   3.111   5.678 -0.5679 -0.0182  0.2148
10619TIP3    H153272   4.927   3.100   5.649 -0.1192 -0.3084 -1.1540
10619TIP3    H253273   5.034   3.036   5.735 -1.0445 -0.2167  0.0937
10620TIP3   OH253274   2.769   2.520   5.273 -0.6030  0.0417 -0.2084
10620TIP3    H153275   2.800   2.565   5.352  0.5413 -1.8484  0.4993
10620TIP3    H253276   2.732   2.590   5.218 -1.5834  1.3891  2.0378
10621TIP3   OH253277   3.170   6.337   2.991 -0.5586  0.3085  0.3169
10621TIP3    H153278   3.225   6.380   3.056  0.0588  0.9210 -0.5949
10621TIP3    H253279   3.084   6.377   3.003 -0.1243  1.4145 -0.1452
10622TIP3   OH253280   5.933   1.355  14.170  0.0879  0.4895 -0.9353
10622TIP3    H153281   5.993   1.311  14.229 -1.3903  0.0587  0.3246
10622TIP3    H253282   5.972   1.442  14.156 -0.4166  1.3899  2.3150
10623TIP3   OH253283   0.337   4.115  16.347  0.5258 -0.4122 -0.1264
10623TIP3    H153284   0.260   4.162  16.381  2.3113  2.2814  0.4488
10623TIP3    H253285   0.322   4.024  16.372 -2.7235 -0.1144 -0.5566
10624TIP3   OH253286   3.099   5.791   1.555 -0.9792 -0.4637  0.0724
10624TIP3    H153287   3.061   5.711   1.519  0.8792 -1.3412 -0.0598
10624TIP3    H253288   3.164   5.818   1.490 -0.9394  0.6405  0.5490
10625TIP3   OH253289   3.199   1.552   5.566 -0.7679 -0.0019  0.3483
10625TIP3    H153290   3.142   1.537   5.641 -1.1644 -1.3996 -0.2180
10625TIP3    H253291   3.180   1.481   5.506  1.8442 -0.7687  0.2967
10626TIP3   OH253292   0.994   4.541   4.566 -0.3235 -0.1280  0.0392
10626TIP3    H153293   1.026   4.478   4.630  1.1083 -1.4838 -1.8634
10626TIP3    H253294   0.972   4.619   4.617  2.0566 -0.6285  2.0226
10627TIP3   OH253295   3.113   4.611  11.402 -0.3909 -0.0532  0.0352
10627TIP3    H153296   3.082   4.625  11.313 -0.9260  1.5433  0.4376
10627TIP3    H253297   3.131   4.699  11.436  1.7511 -0.7168  0.8397
10628TIP3   OH253298   1.799   1.177  17.117 -0.4979 -0.4636  0.2817
10628TIP3    H153299   1.797   1.266  17.152 -0.4582 -0.6269  0.6972
10628TIP3    H253300   1.889   1.165  17.086 -0.2697 -0.6600  1.0061
10629TIP3   OH253301   4.021   0.509  13.717  0.1062 -0.2617 -0.2857
10629TIP3    H153302   4.105   0.556  13.713 -0.4458  0.7881  0.2689
10629TIP3    H253303   4.006   0.481  13.627  0.9736 -0.3299 -0.4235
10630TIP3   OH253304   0.763   1.986  15.455 -0.6476 -1.0379 -0.3751
10630TIP3    H153305   0.716   1.929  15.394 -2.9761  0.1964  0.1359
10630TIP3    H253306   0.717   2.069  15.450  0.7831 -0.0908  1.1019
10631TIP3   OH253307   2.374   3.190   4.299  0.0851  0.2345 -0.1966
10631TIP3    H153308   2.362   3.239   4.217 -1.1375  0.6951  0.2331
10631TIP3    H253309   2.452   3.229   4.338 -0.4135  1.3300 -0.2500
10632TIP3   OH253310   6.272   5.988  13.395  0.0766  0.0915 -0.0261
10632TIP3    H153311   6.259   5.982  13.300  0.4769  0.5962 -0.1177
10632TIP3    H253312   6.305   5.902  13.420  1.0848  0.3076 -0.5383
10633TIP3   OH253313   1.225   4.616   1.876  0.1348 -0.6644  0.1716
10633TIP3    H153314   1.196   4.542   1.929 -0.2904 -1.3935 -1.0399
10633TIP3    H253315   1.151   4.676   1.876  0.1184 -0.6823  0.3435
10634TIP3   OH253316   1.706   5.661  11.390  0.8831 -0.2226 -0.1158
10634TIP3    H153317   1.704   5.656  11.295 -0.5862  0.6736 -0.1608
10634TIP3    H253318   1.649   5.590  11.419  3.6707 -2.4949  0.2657
10635TIP3   OH253319   4.248   3.907   3.917  0.3269  0.0763  0.2043
10635TIP3    H153320   4.166   3.891   3.965 -0.2409  0.9831 -0.4258
10635TIP3    H253321   4.232   3.988   3.869  1.1825 -0.3589 -0.8520
10636TIP3   OH253322   2.317   0.474  11.065 -0.1229 -0.0019 -0.0399
10636TIP3    H153323   2.228   0.443  11.047  0.4156 -1.5581 -0.1501
10636TIP3    H253324   2.374   0.408  11.025  1.0881  0.8495  0.2356
10637TIP3   OH253325   2.121   2.433  16.555  0.0209  0.1267 -0.0085
10637TIP3    H153326   2.208   2.443  16.595  0.3877 -1.2440 -0.4055
10637TIP3    H253327   2.138   2.431  16.461 -0.4522 -0.0674 -0.0904
10638TIP3   OH253328   0.786   6.672  13.577 -0.3698  0.1025  0.7217
10638TIP3    H153329   0.867   6.675  13.526  0.1500  1.6972  1.5836
10638TIP3    H253330   0.728   6.615  13.526  1.4038 -1.3871  0.2966
10639TIP3   OH253331   0.055   0.419  16.446 -0.3861 -0.0568  0.3594
10639TIP3    H153332   0.084   0.366  16.371  0.3619  0.1460  0.4950
10639TIP3    H253333   0.098   0.379  16.522  0.0067  0.5994  0.4878
10640TIP3   OH253334   2.597   0.414  14.133 -0.3901  0.1651  0.1003
10640TIP3    H153335   2.661   0.426  14.063 -1.9929 -1.5248 -1.7656
10640TIP3    H253336   2.603   0.321  14.155 -2.1938 -0.0325 -0.1444
10641TIP3   OH253337   5.596   5.776  11.196  0.1040 -0.3606 -0.0673
10641TIP3    H153338   5.610   5.833  11.272 -1.8314  0.1603 -0.0581
10641TIP3    H253339   5.667   5.800  11.136  1.1930 -0.2126  1.2050
10642TIP3   OH253340   5.297   0.564  16.982 -0.1255  0.0859  0.0820
10642TIP3    H153341   5.247   0.483  16.992 -0.0333 -0.2032 -1.4937
10642TIP3    H253342   5.341   0.555  16.898  0.5492  1.4270  0.2600
10643TIP3   OH253343   4.400   6.040   2.285 -0.1750 -0.1649 -0.2524
10643TIP3    H153344   4.445   6.016   2.205  1.1471 -0.6862  0.6138
10643TIP3    H253345   4.457   6.008   2.355 -0.0412  2.4275  0.9394
10644TIP3   OH253346   6.136   6.516  14.229 -0.3135 -0.0774  0.3607
10644TIP3    H153347   6.227   6.537  14.205  0.1167  1.6531  3.1337
10644TIP3    H253348   6.131   6.421  14.219  0.8997  0.0408 -2.4961
10645TIP3   OH253349   2.256   0.398   0.287 -0.0409  0.1604  0.5630
10645TIP3    H153350   2.348   0.423   0.294  0.0597  0.8108 -2.1393
10645TIP3    H253351   2.208   0.478   0.309  0.1419  0.7553 -1.0951
10646TIP3   OH253352   4.354   2.637  12.786 -0.4408  0.4032 -0.3077
10646TIP3    H153353   4.402   2.625  12.704  0.3173 -0.6632  0.2687
10646TIP3    H253354   4.314   2.552  12.804  0.0858  0.3675  0.8322
10647TIP3   OH253355   0.282   1.244  16.286 -0.6437  0.0756  0.5345
10647TIP3    H153356   0.199   1.292  16.290 -0.3410  0.5404  3.0524
10647TIP3    H253357   0.332   1.289  16.218 -2.4026 -0.2202 -1.0432
10648TIP3   OH253358   0.622   2.838  17.069  0.6289  0.5361 -0.1745
10648TIP3    H153359   0.680   2.832  16.993  1.8219 -0.2163  0.7616
10648TIP3    H253360   0.552   2.775  17.051  0.3718  1.0484 -1.0641
10649TIP3   OH253361   3.120   3.070  17.087 -0.7409 -0.0138  0.4903
10649TIP3    H153362   3.170   3.124  17.026 -0.5920  0.0064  0.6279
10649TIP3    H253363   3.175   2.993  17.101 -2.1756 -1.6392 -1.9445
10650TIP3   OH253364   5.200   1.835  11.828 -0.4994  0.1371  0.2842
10650TIP3    H153365   5.233   1.746  11.822 -1.2700 -0.1068 -0.6240
10650TIP3    H253366   5.277   1.889  11.847  0.1678 -0.5865 -0.3267
10651TIP3   OH253367   2.593   3.826  16.118 -0.0076 -0.2225  0.0963
10651TIP3    H153368   2.680   3.806  16.084 -0.2001 -2.0914  0.5680
10651TIP3    H253369   2.540   3.845  16.040  0.5234 -0.3195 -0.2948
10652TIP3   OH253370   3.565   5.548  14.346 -0.1194 -0.0156 -0.4833
10652TIP3    H153371   3.630   5.616  14.365 -0.7189  0.2600  0.6267
10652TIP3    H253372   3.487   5.574  14.394  0.2200 -2.4770  1.6243
10653TIP3   OH253373   4.175   5.397  17.103 -0.2320 -0.2082 -0.2208
10653TIP3    H153374   4.186   5.468  17.039 -0.4003 -0.0571 -0.0815
10653TIP3    H253375   4.149   5.441  17.184 -1.9909 -0.5539 -0.5536
10654TIP3   OH253376   4.762   2.710  16.139 -0.0988 -0.4357 -0.0620
10654TIP3    H153377   4.855   2.707  16.119 -0.0499  0.7902 -0.0985
10654TIP3    H253378   4.719   2.686  16.056  0.1672 -0.5813 -0.1600
10655TIP3   OH253379   6.369   0.512  11.956  0.5568 -0.0146 -0.0111
10655TIP3    H153380   6.405   0.426  11.978  0.9058  0.0656 -0.2596
10655TIP3    H253381   6.426   0.545  11.887  0.0921  0.1806 -0.3077
10656TIP3   OH253382   5.697   2.683   2.964  0.1186 -0.3969  0.1017
10656TIP3    H153383   5.692   2.777   2.945  1.0275 -0.2010  0.7532
10656TIP3    H253384   5.606   2.655   2.970 -0.1623  0.4213 -0.2066
10657TIP3   OH253385   2.246   2.307   2.105  0.0906  0.0269  0.1773
10657TIP3    H153386   2.301   2.247   2.156  0.2209  0.5170  0.6251
10657TIP3    H253387   2.163   2.310   2.152  0.3299  0.7523  0.5717
10658TIP3   OH253388   2.894   1.990  15.389 -0.1140 -0.3289 -0.5358
10658TIP3    H153389   2.933   2.033  15.465 -0.4944 -0.4942 -0.2441
10658TIP3    H253390   2.901   2.055  15.319  0.1975 -0.1593 -0.3498
10659TIP3   OH253391   4.846   6.019  12.608 -0.3154 -0.2033 -0.0781
10659TIP3    H153392   4.816   5.966  12.682  1.1931  0.1702  0.8502
10659TIP3    H253393   4.924   5.973  12.576  0.7487  1.1448  0.4463
10660TIP3   OH253394   6.740   5.028  11.868 -0.3767 -0.3776 -0.3560
10660TIP3    H153395   6.660   5.039  11.919 -1.2899  0.7729 -1.9535
10660TIP3    H253396   6.776   5.117  11.862 -1.0796 -0.2078 -2.8969
10661TIP3   OH253397   3.593   1.268  16.693 -0.6237 -0.1346  0.2919
10661TIP3    H153398   3.501   1.283  16.672 -0.4163  1.4165  0.3517
10661TIP3    H253399   3.622   1.200  16.632 -0.8501  2.0077 -2.3522
10662TIP3   OH253400   6.409   5.650   0.126 -0.0042  0.0411 -0.8187
10662TIP3    H153401   6.392   5.735   0.165 -3.3977 -1.0494  0.3702
10662TIP3    H253402   6.346   5.643   0.054  0.8937 -1.0808 -1.5372
10663TIP3   OH253403   2.759   3.192  14.223 -0.4614  0.1329  0.5130
10663TIP3    H153404   2.851   3.169  14.210 -0.4707 -0.8558  1.8921
10663TIP3    H253405   2.748   3.193  14.318 -1.6202  1.3532  0.3967
10664TIP3   OH253406   3.032   2.323   1.309 -0.6180 -0.5609 -0.0675
10664TIP3    H153407   3.117   2.300   1.347  0.6476  2.4532 -0.7481
10664TIP3    H253408   2.972   2.327   1.384  0.8658  1.2666  1.1165
10665TIP3   OH253409   4.170   3.741  14.086  0.2619  0.3245 -0.2118
10665TIP3    H153410   4.193   3.807  14.152  1.6794  0.5075 -0.8471
10665TIP3    H253411   4.224   3.764  14.010 -0.4482 -0.6034 -1.0093
10666TIP3   OH253412   2.510   5.325   2.560 -0.3012  0.2211 -0.7199
10666TIP3    H153413   2.572   5.397   2.571  0.0767 -0.1589 -0.3058
10666TIP3    H253414   2.427   5.367   2.542  0.0574  0.7470 -1.1805
10667TIP3   OH253415   2.078   5.679   4.967 -0.1911  0.2013 -0.2652
10667TIP3    H153416   2.017   5.699   5.038 -2.3009  1.1388 -2.2276
10667TIP3    H253417   2.140   5.752   4.967 -0.0616  0.1083  0.6731
10668TIP3   OH253418   6.114   2.184   3.276  0.3721 -0.3472  0.5338
10668TIP3    H153419   6.183   2.152   3.218  0.1906 -0.4674  0.3789
10668TIP3    H253420   6.099   2.274   3.248 -1.9585 -1.3358 -1.8464
10669TIP3   OH253421   3.641   0.350  13.111  0.4302  0.3864  0.1114
10669TIP3    H153422   3.627   0.374  13.202  2.0954  0.9103  0.2733
10669TIP3    H253423   3.601   0.263  13.103  0.2742  0.3200  1.3546
10670TIP3   OH253424   1.799   1.331   0.603  0.1177 -0.1305 -0.1893
10670TIP3    H153425   1.796   1.247   0.648  1.1367  0.2165  0.5623
10670TIP3    H253426   1.840   1.312   0.518 -1.4110 -0.7100 -0.8268
10671TIP3   OH253427   3.449   6.065  13.376 -0.2016  0.0915 -0.3443
10671TIP3    H153428   3.492   6.098  13.297 -0.9846  1.5354 -0.2116
10671TIP3    H253429   3.513   6.008  13.417  0.0167 -1.2235 -2.3324
10672TIP3   OH253430   1.986   5.897   5.389  0.2400  0.6879  0.2954
10672TIP3    H153431   2.075   5.925   5.370 -0.2806  3.3389  1.3377
10672TIP3    H253432   1.987   5.878   5.483  0.2135 -1.5825 -0.1194
10673TIP3   OH253433   1.591   5.170  15.513  0.5944  0.4472 -0.0131
10673TIP3    H153434   1.674   5.176  15.466  0.1947 -0.0279 -0.7970
10673TIP3    H253435   1.525   5.173  15.445 -0.0369  0.7220  0.5993
10674TIP3   OH253436   6.633   5.986   0.362 -0.6251 -0.3566 -0.0335
10674TIP3    H153437   6.604   5.981   0.453  0.3840  0.7215  0.3729
10674TIP3    H253438   6.728   5.976   0.367 -0.3651  1.3564 -0.7765
10675TIP3   OH253439   2.306   5.090   1.277  0.6667  0.3907  0.3047
10675TIP3    H153440   2.281   5.167   1.329 -0.2126 -0.8007  1.7126
10675TIP3    H253441   2.254   5.097   1.197 -0.5870  0.4707  1.1002
10676TIP3   OH253442   2.006   3.673   0.166 -0.4273  0.0575 -0.6305
10676TIP3    H153443   2.027   3.731   0.239  0.8943  0.6329 -1.4361
10676TIP3    H253444   1.949   3.724   0.110  0.9796  0.7462 -1.4938
10677TIP3   OH253445   1.552   3.481   2.033  0.5401 -0.0685  0.3862
10677TIP3    H153446   1.496   3.466   2.109 -0.5287  0.5986 -0.2531
10677TIP3    H253447   1.615   3.547   2.062  1.1131 -0.9147  1.1450
10678TIP3   OH253448   3.115   0.119   2.569  0.2164  0.2852  0.5857
10678TIP3    H153449   3.096   0.181   2.499 -0.4861 -0.2361  0.3073
10678TIP3    H253450   3.169   0.051   2.528 -2.5629 -1.5924 -0.2722
10679TIP3   OH253451   6.082   5.429   0.867  0.7327  0.0858 -0.5581
10679TIP3    H153452   6.154   5.409   0.927  0.1461 -1.3515 -0.2881
10679TIP3    H253453   6.014   5.465   0.923 -0.1844 -2.1543 -0.1235
10680TIP3   OH253454   4.751   3.562  11.438 -0.3005 -0.6318  0.0100
10680TIP3    H153455   4.658   3.570  11.415 -0.1276  0.8389 -0.2404
10680TIP3    H253456   4.796   3.561  11.354  0.1141  1.6997  0.1616
10681TIP3   OH253457   5.661   4.748   4.561  0.3410  0.1269  0.2635
10681TIP3    H153458   5.731   4.814   4.570 -0.8425  1.4361  0.1997
10681TIP3    H253459   5.596   4.790   4.505 -0.6193 -0.9873  0.5077
10682TIP3   OH253460   0.279   0.425   3.212  0.4076 -0.5737  0.0002
10682TIP3    H153461   0.266   0.518   3.193 -1.5809 -1.1751 -2.0602
10682TIP3    H253462   0.311   0.423   3.302 -3.1589  1.9834  1.5612
10683TIP3   OH253463   1.773   3.584   5.404  0.4749 -0.1059 -0.5427
10683TIP3    H153464   1.790   3.663   5.455  1.0522  0.8740 -2.1792
10683TIP3    H253465   1.834   3.519   5.439  1.4750  0.7947 -0.5544
10684TIP3   OH253466   3.518   2.608  12.437 -0.2412  0.1084  0.3154
10684TIP3    H153467   3.517   2.688  12.488 -0.3226  0.3598 -0.0802
10684TIP3    H253468   3.465   2.546  12.487  0.2628  0.1318  0.8904
10685TIP3   OH253469   5.389   3.746   2.274 -0.3835  0.1083  0.0484
10685TIP3    H153470   5.448   3.671   2.280 -0.1442  0.2874 -0.0616
10685TIP3    H253471   5.384   3.780   2.364 -1.3854 -0.7116  0.3372
10686TIP3   OH253472   2.775   5.289  10.693  0.3649 -0.0060 -0.2029
10686TIP3    H153473   2.745   5.308  10.604  1.1466  2.4543 -0.0429
10686TIP3    H253474   2.802   5.375  10.727  1.2072 -1.0697  1.9860
10687TIP3   OH253475   6.471   5.687  12.881 -0.1112  0.0405 -0.6421
10687TIP3    H153476   6.477   5.775  12.844 -0.4751 -0.2339 -1.3939
10687TIP3    H253477   6.533   5.687  12.953  0.8276  0.5303 -1.4165
10688TIP3   OH253478   6.457   2.701  14.815  0.5935  0.0037  0.4756
10688TIP3    H153479   6.466   2.792  14.784  0.5848 -0.8984 -2.5023
10688TIP3    H253480   6.537   2.685  14.865  0.6664  1.6016  0.9264
10689TIP3   OH253481   2.702   3.264   3.892 -0.2816 -0.3562  0.0276
10689TIP3    H153482   2.708   3.298   3.803 -0.6179  0.9667  0.4853
10689TIP3    H253483   2.615   3.224   3.897 -0.2048 -0.5585 -0.2825
10690TIP3   OH253484   5.025   2.524  13.225  0.1007  0.2857 -0.2108
10690TIP3    H153485   4.956   2.466  13.258  1.4728 -0.4657  1.5325
10690TIP3    H253486   5.102   2.502  13.278  1.5454  1.4760 -1.6973
10691TIP3   OH253487   2.018   5.630  13.661 -0.6255  0.6133 -0.4869
10691TIP3    H153488   2.072   5.555  13.639  0.7435  1.4855 -0.2468
10691TIP3    H253489   2.073   5.706  13.640 -0.7821  1.5139  2.0248
10692TIP3   OH253490   2.816   4.412  11.172 -0.2713  0.1977 -0.4974
10692TIP3    H153491   2.841   4.448  11.257  1.9164  0.8221 -1.3540
10692TIP3    H253492   2.898   4.392  11.129 -1.1309  2.3655 -3.5082
10693TIP3   OH253493   6.802   1.069  13.340 -0.0559 -0.3841  0.2085
10693TIP3    H153494   6.892   1.096  13.320 -0.6779  1.6643  0.0037
10693TIP3    H253495   6.786   0.995  13.281  0.9328  0.3141 -0.9921
10694TIP3   OH253496   1.857   4.718   1.652  0.4405  0.2821  0.1015
10694TIP3    H153497   1.939   4.727   1.603  1.2209  0.9131  1.4692
10694TIP3    H253498   1.883   4.723   1.744 -1.1275  0.4130  0.5708
10695TIP3   OH253499   5.663   1.357   1.133  0.2811 -0.3589 -0.0647
10695TIP3    H153500   5.702   1.401   1.209  1.1902 -1.6306  0.2223
10695TIP3    H253501   5.721   1.379   1.060 -0.7579  1.1182 -0.5145
10696TIP3   OH253502   6.062   1.636  12.276  0.0192  0.1105  0.0030
10696TIP3    H153503   6.122   1.643  12.350  0.1596  0.3280 -0.1293
10696TIP3    H253504   5.994   1.576  12.305  0.2447 -0.0523  0.1933
10697TIP3   OH253505   2.454   0.494  15.312  0.6049 -0.1749 -0.1486
10697TIP3    H153506   2.400   0.416  15.316  0.1161  0.1605 -0.1865
10697TIP3    H253507   2.425   0.539  15.233  0.8648  0.0583 -0.1129
10698TIP3   OH253508   0.213   3.312   4.386 -0.2987 -0.2660  0.0480
10698TIP3    H153509   0.125   3.303   4.421 -0.4276 -1.9764 -0.6571
10698TIP3    H253510   0.231   3.229   4.342  2.0642 -0.3880  1.0728
10699TIP3   OH253511   0.327   6.387   4.055  0.1896  0.1393 -0.1336
10699TIP3    H153512   0.369   6.332   4.121  3.4915  0.2341 -1.9579
10699TIP3    H253513   0.326   6.475   4.094 -1.4751 -0.4180  1.2129
10700TIP3   OH253514   3.130   2.820  13.568 -0.5643 -0.0495  0.5849
10700TIP3    H153515   3.050   2.869  13.551 -0.0968  0.1906 -1.0243
10700TIP3    H253516   3.149   2.837  13.661 -1.5899  1.0416  0.6184
10701TIP3   OH253517   5.477   3.734   6.487  0.3027 -0.2722 -0.1868
10701TIP3    H153518   5.558   3.709   6.532 -0.7302  0.2459  2.1010
10701TIP3    H253519   5.471   3.674   6.413  2.2527 -0.9727  0.1548
10702TIP3   OH253520   2.957   5.564  11.083 -0.2033  0.5390  0.1014
10702TIP3    H153521   2.928   5.560  11.174 -0.5292 -0.8571 -0.0317
10702TIP3    H253522   3.026   5.630  11.082  1.6605 -1.2041  1.9286
10703TIP3   OH253523   0.542   1.064  12.423  0.0222  0.2731  0.4290
10703TIP3    H153524   0.535   1.145  12.373 -0.8486 -2.0013 -3.5787
10703TIP3    H253525   0.451   1.035  12.435  0.3464 -0.6629  0.7491
10704TIP3   OH253526   6.665   6.635  16.033  0.1029 -0.2842  0.1158
10704TIP3    H153527   6.644   6.670  15.946 -2.1066  0.2758  0.8026
10704TIP3    H253528   6.597   6.671  16.089  2.2149  0.4376  2.3744
10705TIP3   OH253529   4.804   5.091  13.761 -0.2660 -0.0422 -0.1506
10705TIP3    H153530   4.870   5.159  13.745 -0.0007 -0.1489  0.4472
10705TIP3    H253531   4.800   5.043  13.679 -0.0724  0.3697 -0.4096
10706TIP3   OH253532   2.962   6.796   1.771 -0.4308 -0.6143 -0.3074
10706TIP3    H153533   2.935   6.876   1.725 -1.0236 -0.3190  0.5306
10706TIP3    H253534   2.931   6.725   1.715 -0.9119 -0.2621 -0.5004
10707TIP3   OH253535   2.684   2.172  14.769 -0.0698 -0.1717  0.4633
10707TIP3    H153536   2.607   2.118  14.753  0.0711  0.2541 -2.0198
10707TIP3    H253537   2.758   2.113  14.754  0.0766  0.4283 -1.3384
10708TIP3   OH253538   1.595   6.527   3.074 -0.2554 -0.2214 -0.1361
10708TIP3    H153539   1.639   6.612   3.068 -1.2470  0.4121  1.1567
10708TIP3    H253540   1.585   6.512   3.167  0.4849 -2.1057 -0.3227
10709TIP3   OH253541   6.607   5.185   3.157 -0.4002 -0.2349 -0.2242
10709TIP3    H153542   6.593   5.276   3.129 -0.5952 -0.2402 -0.1436
10709TIP3    H253543   6.643   5.142   3.079 -0.2946 -0.0864 -0.2600
10710TIP3   OH253544   4.270   1.998  13.243  0.5564 -0.4700  0.9143
10710TIP3    H153545   4.207   1.974  13.310  1.3736  0.7926  2.1973
10710TIP3    H253546   4.291   2.090  13.262  1.0950 -0.1941 -0.8484
10711TIP3   OH253547   4.380   4.134   5.768 -0.2269 -0.5563  0.3371
10711TIP3    H153548   4.424   4.196   5.827 -1.4004  0.6508 -0.0122
10711TIP3    H253549   4.319   4.087   5.825 -0.2620 -0.4712  0.3707
10712TIP3   OH253550   3.028   5.885  12.142 -0.0544  0.0206  0.4854
10712TIP3    H153551   3.119   5.883  12.171  0.4509  0.3441 -0.9841
10712TIP3    H253552   3.006   5.793  12.126  0.6643  0.0723 -0.9785
10713TIP3   OH253553   5.464   0.644  15.914 -0.0597  0.1324  0.8251
10713TIP3    H153554   5.494   0.648  15.824  0.6474 -2.6195  0.8445
10713TIP3    H253555   5.369   0.631  15.907  0.3262 -3.1015  0.2660
10714TIP3   OH253556   2.330   6.457   5.549 -0.6566 -0.3439  0.1534
10714TIP3    H153557   2.275   6.534   5.534  2.1217  1.7744  0.0756
10714TIP3    H253558   2.310   6.431   5.639 -0.7553  1.2847  0.6390
10715TIP3   OH253559   2.352   3.197  14.777  0.0889 -0.3219 -0.0559
10715TIP3    H153560   2.325   3.185  14.686 -0.2753  0.3360 -0.0412
10715TIP3    H253561   2.320   3.119  14.822 -0.6515 -0.1544 -0.2869
10716TIP3   OH253562   5.707   2.931   2.217  0.2423 -0.0746  0.0594
10716TIP3    H153563   5.633   2.972   2.171  1.1073  2.4796  0.7890
10716TIP3    H253564   5.686   2.940   2.310 -0.2074 -2.7345  0.2909
10717TIP3   OH253565   4.495   5.613  16.389  0.1980  0.1054  0.1848
10717TIP3    H153566   4.443   5.581  16.316 -1.0639 -1.9360  1.8594
10717TIP3    H253567   4.584   5.621  16.355 -0.0317 -2.3347 -1.1838
10718TIP3   OH253568   0.878   2.253  13.597  0.1444 -0.1360  0.4250
10718TIP3    H153569   0.886   2.335  13.647  1.1510 -0.0152  0.0964
10718TIP3    H253570   0.962   2.245  13.552 -0.1904 -1.0261 -0.0556
10719TIP3   OH253571   1.676   5.842  14.100  0.6830 -0.2165 -0.1374
10719TIP3    H153572   1.730   5.881  14.031  0.1211 -0.0125 -0.4717
10719TIP3    H253573   1.611   5.790  14.052  0.4336 -0.2617  0.2445
10720TIP3   OH253574   0.526   5.700   1.940 -0.4312 -0.6827 -0.2950
10720TIP3    H153575   0.593   5.655   1.992 -0.1939  2.1226  2.1520
10720TIP3    H253576   0.572   5.729   1.861  1.0829  0.3465  0.8927
10721TIP3   OH253577   5.485   0.311   3.393 -0.1195  0.0734  0.0858
10721TIP3    H153578   5.491   0.381   3.458  0.4016  1.0267 -0.9590
10721TIP3    H253579   5.393   0.286   3.393 -0.0158 -0.4279  1.6700
10722TIP3   OH253580   2.514   5.181   5.940  0.2654 -0.0060  0.2731
10722TIP3    H153581   2.471   5.221   6.015  1.1301  2.0916 -0.2761
10722TIP3    H253582   2.574   5.248   5.908  2.5078 -2.0936 -0.1826
10723TIP3   OH253583   4.362   6.557   2.264  0.1322 -0.2018 -0.2476
10723TIP3    H153584   4.446   6.535   2.224  0.1223 -0.8390  0.0716
10723TIP3    H253585   4.332   6.475   2.304 -0.0981  0.2938  0.6196
10724TIP3   OH253586   3.922   1.735  12.683 -0.2588 -0.2456 -0.0014
10724TIP3    H153587   3.954   1.764  12.598 -2.3369  0.9786 -0.4079
10724TIP3    H253588   3.836   1.698  12.665 -0.2069 -1.1256  1.4161
10725TIP3   OH253589   2.030   3.062  10.960  0.1423 -0.4971  0.2541
10725TIP3    H153590   1.960   3.105  10.911 -0.2845 -1.4075  0.0475
10725TIP3    H253591   2.070   3.002  10.897  0.9751 -0.1444  0.4344
10726TIP3   OH253592   3.308   4.461   1.609  0.0253 -0.2179 -0.4010
10726TIP3    H153593   3.362   4.471   1.688 -0.4068 -0.3063 -0.0879
10726TIP3    H253594   3.363   4.412   1.549 -0.2092 -1.5646  0.4344
10727TIP3   OH253595   3.395   0.540   3.536 -0.0188 -0.0047  0.4187
10727TIP3    H153596   3.379   0.527   3.443 -0.1135  0.0819  0.4233
10727TIP3    H253597   3.464   0.476   3.558 -0.8743 -0.9057  0.5596
10728TIP3   OH253598   3.458   4.309   2.200  0.0535  0.2305 -0.0189
10728TIP3    H153599   3.492   4.225   2.169  0.4636  0.8644 -1.3708
10728TIP3    H253600   3.382   4.326   2.145  0.3988  1.0724 -0.2539
10729TIP3   OH253601   5.823   3.759  16.122  0.0112 -0.5353  0.0372
10729TIP3    H153602   5.848   3.770  16.214  1.2896 -0.2788 -0.3146
10729TIP3    H253603   5.905   3.772  16.073 -0.8420  0.3600 -1.2095
10730TIP3   OH253604   2.009   2.892  13.747  0.2051  0.5294  0.5924
10730TIP3    H153605   1.963   2.870  13.828 -0.5968  0.8495  0.2226
10730TIP3    H253606   2.081   2.828  13.743 -1.2137 -1.1291  0.2903
10731TIP3   OH253607   0.443   3.466   0.140 -0.5169 -0.0229 -0.0575
10731TIP3    H153608   0.482   3.379   0.147  1.5068  0.6387 -1.9480
10731TIP3    H253609   0.505   3.524   0.184 -0.1851  0.8161 -1.5399
10732TIP3   OH253610   0.864   3.459  16.407 -0.1361  0.2249 -0.4728
10732TIP3    H153611   0.864   3.491  16.317 -3.5047 -0.3021 -0.8042
10732TIP3    H253612   0.812   3.378  16.404 -1.2525  0.7309  2.0501
10733TIP3   OH253613   6.559   1.030   2.000 -0.5208  0.2367 -0.3623
10733TIP3    H153614   6.500   0.997   2.068  1.2233 -1.2539  0.5093
10733TIP3    H253615   6.554   0.964   1.930  2.0480 -1.4063  0.8638
10734TIP3   OH253616   0.314   6.673  15.711  0.3592  0.5415  0.5436
10734TIP3    H153617   0.407   6.658  15.728  0.6006  1.3848  0.0561
10734TIP3    H253618   0.273   6.587  15.722  1.2052  0.1492  0.7052
10735TIP3   OH253619   2.861   3.678  14.662 -0.8813  0.3095 -0.0301
10735TIP3    H153620   2.826   3.676  14.573  0.1486 -2.5730 -0.4901
10735TIP3    H253621   2.826   3.599  14.704  1.3780 -0.2913  0.9230
10736TIP3   OH253622   1.215   1.171  14.928 -0.4716  0.5361  0.2090
10736TIP3    H153623   1.214   1.145  14.836  1.5107  1.3419 -0.0788
10736TIP3    H253624   1.219   1.088  14.976 -0.0369  0.1469 -0.4825
10737TIP3   OH253625   4.786   0.295  15.807  1.0365  0.3694  0.4959
10737TIP3    H153626   4.714   0.295  15.871 -0.8836  2.9810 -1.4217
10737TIP3    H253627   4.772   0.216  15.756  0.2349  0.2184  0.9274
10738TIP3   OH253628   3.533   5.643  11.509  0.0695  0.0092 -0.0839
10738TIP3    H153629   3.594   5.690  11.452  0.1833  0.5682  0.4915
10738TIP3    H253630   3.549   5.551  11.490  0.4205  0.1771 -0.6331
10739TIP3   OH253631   3.195   1.590   0.327  0.2980  0.0322  0.1192
10739TIP3    H153632   3.183   1.658   0.262  0.1699  0.6082  0.7348
10739TIP3    H253633   3.254   1.629   0.393 -1.4801  0.3682  1.5944
10740TIP3   OH253634   3.067   4.130   0.943  0.1186 -0.4782 -0.3639
10740TIP3    H153635   3.023   4.072   1.005 -0.2951  2.7185  2.6196
10740TIP3    H253636   2.998   4.189   0.912  1.2777  1.3574  0.3863
10741TIP3   OH253637   4.962   5.290   2.739  0.0806 -0.1413  0.5899
10741TIP3    H153638   4.895   5.351   2.768 -1.7882 -2.0295  0.5054
10741TIP3    H253639   4.922   5.204   2.750  1.2047 -1.2324 -2.7273
10742TIP3   OH253640   2.719   5.240   4.056 -0.5939 -0.2513  0.0403
10742TIP3    H153641   2.685   5.153   4.034 -1.8684 -0.0731  1.1724
10742TIP3    H253642   2.682   5.298   3.989  0.0349 -0.5138 -0.5535
10743TIP3   OH253643   2.304   6.382   3.603 -0.0440 -0.0068 -0.1107
10743TIP3    H153644   2.324   6.467   3.640  0.7252 -0.4522  0.5113
10743TIP3    H253645   2.212   6.389   3.576  0.7205  1.9151 -2.6208
10744TIP3   OH253646   4.851   5.995  14.475  0.0289  0.6769  0.1603
10744TIP3    H153647   4.867   6.036  14.560 -1.7780  0.1135  0.8351
10744TIP3    H253648   4.835   6.069  14.416  2.8370  1.1514 -0.1252
10745TIP3   OH253649   2.274   4.235  15.834 -0.1553 -0.3673  0.0871
10745TIP3    H153650   2.329   4.200  15.764 -0.0499  1.8778 -1.0226
10745TIP3    H253651   2.299   4.183  15.911  1.0830 -1.6341 -1.1041
10746TIP3   OH253652   2.450   1.042   2.887  0.1292  0.0566 -0.0165
10746TIP3    H153653   2.406   1.054   2.803 -1.1072 -0.4430  0.5231
10746TIP3    H253654   2.397   1.094   2.949 -0.8168 -1.9620  0.9749
10747TIP3   OH253655   4.230   6.389  16.205  0.2283  0.1994  0.3995
10747TIP3    H153656   4.137   6.408  16.214  0.1506  0.4353 -0.7656
10747TIP3    H253657   4.272   6.475  16.197  0.7378  0.1766  2.3025
10748TIP3   OH253658   3.920   6.143   3.265  0.2216 -0.6368 -0.3554
10748TIP3    H153659   3.862   6.154   3.340  0.7992  0.5426 -0.0700
10748TIP3    H253660   4.007   6.163   3.298  0.5308 -0.4437 -1.2572
10749TIP3   OH253661   1.687   4.894  14.393 -0.2682  0.6202  0.1121
10749TIP3    H153662   1.737   4.910  14.473  0.9380 -0.8123 -0.3237
10749TIP3    H253663   1.595   4.891  14.422 -0.1746  3.1339  0.9507
10750TIP3   OH253664   5.089   5.257   2.077  0.6023 -0.0875  0.2882
10750TIP3    H153665   5.091   5.311   1.998  2.9132  0.1427  0.4422
10750TIP3    H253666   5.145   5.303   2.139 -1.6554  0.0883  2.3756
10751TIP3   OH253667   4.602   1.659  15.995  0.3827 -0.6522 -0.5544
10751TIP3    H153668   4.595   1.685  15.903  0.1290 -0.5810 -0.5154
10751TIP3    H253669   4.694   1.674  16.017  0.0249  1.3055 -0.2057
10752TIP3   OH253670   5.989   6.204   1.314  0.3877  0.0595 -0.3093
10752TIP3    H153671   5.942   6.184   1.395  1.3359  0.7258  0.4296
10752TIP3    H253672   5.954   6.143   1.250  0.1824 -1.0311  0.8049
10753TIP3   OH253673   1.198   3.173   3.672  0.1631  0.3378 -0.0788
10753TIP3    H153674   1.256   3.245   3.648 -2.2266  2.1637 -0.7395
10753TIP3    H253675   1.161   3.143   3.589  0.8063 -1.4398  0.2266
10754TIP3   OH253676   3.452   3.831  16.043  0.2041  0.2414 -0.0490
10754TIP3    H153677   3.425   3.779  15.967 -0.4347  1.2427 -0.5365
10754TIP3    H253678   3.544   3.853  16.026 -0.2719  1.5281 -1.2050
10755TIP3   OH253679   2.743   1.787   3.568  0.2482  0.2504  0.3854
10755TIP3    H153680   2.809   1.856   3.575  1.0534 -0.6147  2.0158
10755TIP3    H253681   2.744   1.763   3.475 -0.8205  3.0734 -0.4804
10756TIP3   OH253682   4.233   0.566   1.261  0.7911  0.0238 -0.2969
10756TIP3    H153683   4.246   0.550   1.354 -3.1490  1.3902  0.6989
10756TIP3    H253684   4.223   0.661   1.254 -1.4474 -0.2227 -1.6142
10757TIP3   OH253685   3.889   5.363  10.453 -0.5353 -0.7224  0.2349
10757TIP3    H153686   3.941   5.340  10.376  1.7999  1.2164  1.1219
10757TIP3    H253687   3.949   5.352  10.527 -1.6024  0.8750  1.3979
10758TIP3   OH253688   6.389   0.941  15.942  0.1422  0.3199 -0.0558
10758TIP3    H153689   6.345   0.989  16.013  1.6363 -0.9498  1.8235
10758TIP3    H253690   6.368   0.991  15.863 -1.6849  1.7422  1.2312
10759TIP3   OH253691   5.637   2.583  11.993 -0.4512 -0.0391 -0.5287
10759TIP3    H153692   5.546   2.610  11.981 -0.5681 -0.5448 -0.7884
10759TIP3    H253693   5.665   2.628  12.073 -1.5068 -1.3680  0.6439
10760TIP3   OH253694   4.662   5.266   5.503  0.4073  0.2736  0.1265
10760TIP3    H153695   4.643   5.174   5.483  0.7221  0.1057  0.5914
10760TIP3    H253696   4.598   5.289   5.571  1.5732 -0.1872  1.4366
10761TIP3   OH253697   5.457   3.123   6.433 -0.0082  0.0503  0.7774
10761TIP3    H153698   5.542   3.141   6.394  0.1800 -0.1804  1.0718
10761TIP3    H253699   5.410   3.207   6.429  1.2775  0.9935  3.1770
10762TIP3   OH253700   2.978   2.554  15.436  0.0591 -0.2563 -0.1652
10762TIP3    H153701   2.962   2.485  15.372  1.5909 -1.7515  0.9814
10762TIP3    H253702   3.059   2.596  15.406 -0.0334  0.0450 -0.0001
10763TIP3   OH253703   4.819   2.370   2.892  0.1468 -0.0261  0.6840
10763TIP3    H153704   4.839   2.417   2.811  1.1013 -0.1896  0.8220
10763TIP3    H253705   4.885   2.302   2.898 -1.3075 -1.5136  0.4213
10764TIP3   OH253706   6.361   4.327  13.873  0.2241 -0.2225 -0.2962
10764TIP3    H153707   6.337   4.299  13.962 -1.2314 -1.4447 -1.0111
10764TIP3    H253708   6.456   4.315  13.869  0.4498  0.7218  1.3612
10765TIP3   OH253709   0.002   5.296  11.839 -0.1701  0.0298  0.2748
10765TIP3    H153710   0.081   5.322  11.793  0.0366 -0.1829  0.5084
10765TIP3    H253711   0.000   5.352  11.917 -0.5712  0.4593 -0.0323
10766TIP3   OH253712   0.316   2.703   0.036 -0.4861  0.4571  0.4054
10766TIP3    H153713   0.374   2.629   0.018 -0.0398  0.6295  1.1262
10766TIP3    H253714   0.228   2.667   0.022 -0.2423  0.0159 -0.0461
10767TIP3   OH253715   0.115   2.492  17.174 -0.1908  0.4780 -0.1913
10767TIP3    H153716   0.072   2.429  17.233  0.4943  0.5622  0.4159
10767TIP3    H253717   0.075   2.476  17.089  0.1245 -0.9542 -0.1014
10768TIP3   OH253718   5.152   3.123   3.911  0.1853 -0.3480 -0.3998
10768TIP3    H153719   5.085   3.188   3.932  1.6691  1.7303 -1.7341
10768TIP3    H253720   5.103   3.051   3.872 -1.5010  0.0188  0.9083
10769TIP3   OH253721   6.509   0.203  15.920  0.3226  0.1354 -0.5012
10769TIP3    H153722   6.455   0.144  15.867 -0.9800 -0.6135  1.5372
10769TIP3    H253723   6.483   0.291  15.891 -0.0447 -0.2532 -1.3912
10770TIP3   OH253724   3.105   6.522  12.615  0.0176  0.0978  0.3153
10770TIP3    H153725   3.092   6.616  12.628  0.1036  0.2009 -0.3440
10770TIP3    H253726   3.136   6.513  12.525  0.1819 -0.5488  0.4275
10771TIP3   OH253727   2.239   5.692  11.976  0.3948  0.2436  0.3599
10771TIP3    H153728   2.166   5.716  12.033  0.5929  0.8663  0.3580
10771TIP3    H253729   2.205   5.705  11.887  0.3846  0.1729  0.3535
10772TIP3   OH253730   6.029   5.030   1.404 -0.0318 -0.1655  0.1499
10772TIP3    H153731   6.118   4.994   1.395 -0.4598 -1.4131  0.7233
10772TIP3    H253732   5.976   4.955   1.432 -0.9599  0.9316  1.4052
10773TIP3   OH253733   1.839   4.680   4.620  0.3729  0.4686  0.2071
10773TIP3    H153734   1.781   4.757   4.628 -2.3103 -1.1489 -1.8247
10773TIP3    H253735   1.780   4.605   4.623  2.5103 -1.3930 -1.0559
10774TIP3   OH253736   0.855   4.117  16.720  0.4612  0.8842 -0.3469
10774TIP3    H153737   0.886   4.207  16.715  1.2392  0.5864 -1.2517
10774TIP3    H253738   0.777   4.115  16.665  0.2949  1.0691 -0.1143
10775TIP3   OH253739   3.966   3.223   3.894  0.5505 -0.5034 -0.4299
10775TIP3    H153740   3.958   3.317   3.914  0.4089 -0.6374  0.1753
10775TIP3    H253741   4.028   3.219   3.822  1.2886 -0.0052  0.1581
10776TIP3   OH253742   6.295   4.811  16.663  0.1206 -0.0298 -0.2892
10776TIP3    H153743   6.372   4.768  16.701  0.1723 -0.0519 -0.4172
10776TIP3    H253744   6.313   4.812  16.569  0.3194  0.6759 -0.2466
10777TIP3   OH253745   4.687   5.636   1.892 -0.2868 -0.4707 -0.0005
10777TIP3    H153746   4.696   5.728   1.866  0.8445 -0.5649 -0.0061
10777TIP3    H253747   4.627   5.598   1.828  2.1352 -0.6227 -2.3334
10778TIP3   OH253748   4.387   6.130   5.691  0.4031 -0.2228 -0.3937
10778TIP3    H153749   4.421   6.164   5.774  2.8937 -0.3642 -1.2790
10778TIP3    H253750   4.464   6.126   5.634 -1.2002 -0.3152 -2.6598
10779TIP3   OH253751   6.439   3.517  14.777 -0.5538 -0.0843 -0.6718
10779TIP3    H153752   6.413   3.555  14.693 -2.6399 -0.3291 -0.2126
10779TIP3    H253753   6.416   3.424  14.769 -0.1020 -0.2503 -0.0899
10780TIP3   OH253754   5.251   2.187   4.251 -0.1827  0.2389  0.0932
10780TIP3    H153755   5.276   2.115   4.194  0.8772  0.6859 -0.0237
10780TIP3    H253756   5.291   2.167   4.335 -0.8435  0.1270  0.3907
10781TIP3   OH253757   4.129   4.918  16.861 -0.4201  0.1738  0.0403
10781TIP3    H153758   4.062   4.959  16.915 -0.0545  0.6348  0.1505
10781TIP3    H253759   4.126   4.968  16.779 -1.9645 -1.4122 -0.9516
10782TIP3   OH253760   1.818   6.766   4.722 -0.5283 -0.4555  0.3997
10782TIP3    H153761   1.874   6.717   4.662  0.9678  0.5978  0.8758
10782TIP3    H253762   1.730   6.751   4.689  0.1151 -1.2046 -1.1056
10783TIP3   OH253763   6.703   1.818  12.788  0.9143  0.7687 -0.1518
10783TIP3    H153764   6.665   1.747  12.735  2.1074 -0.7972  0.9731
10783TIP3    H253765   6.693   1.896  12.734 -2.3130  0.1819 -0.6338
10784TIP3   OH253766   2.819   1.820  11.696 -0.1066 -0.5146  0.5653
10784TIP3    H153767   2.887   1.753  11.698 -0.7495 -1.2225 -0.4719
10784TIP3    H253768   2.738   1.772  11.675 -0.2682  0.7700 -2.1712
10785TIP3   OH253769   5.603   1.386  16.080  0.4703  0.2761  0.5617
10785TIP3    H153770   5.601   1.402  15.985 -0.1409 -0.9438  0.3549
10785TIP3    H253771   5.681   1.432  16.110  1.0086  0.1875 -0.6316
10786TIP3   OH253772   1.396   2.076   1.268 -0.0675  0.6391 -0.1121
10786TIP3    H153773   1.442   2.032   1.340 -0.8773  0.6284  0.4123
10786TIP3    H253774   1.457   2.142   1.237  1.2027 -0.8348 -0.9254
10787TIP3   OH253775   4.447   3.426   0.112  0.0588  0.2757  0.0029
10787TIP3    H153776   4.428   3.339   0.076 -0.6047 -0.2463  1.5114
10787TIP3    H253777   4.371   3.478   0.090  0.8667  0.7776 -1.7293
10788TIP3   OH253778   3.603   3.986   2.315 -0.7601  0.2345  0.2828
10788TIP3    H153779   3.616   3.903   2.362  3.8466  0.3366 -0.3978
10788TIP3    H253780   3.590   4.051   2.385 -0.9577 -0.5343  0.9824
10789TIP3   OH253781   3.936   3.473   6.353 -0.1703 -0.5221  0.1897
10789TIP3    H153782   3.881   3.552   6.351  0.2809 -0.1777  1.0145
10789TIP3    H253783   3.880   3.407   6.395  0.3741  0.1239  2.0522
10790TIP3   OH253784   5.768   0.233   2.801  0.2085  0.6435 -0.1504
10790TIP3    H153785   5.802   0.226   2.890 -1.1684 -0.5918  0.3187
10790TIP3    H253786   5.817   0.305   2.762  1.0911  0.9698  1.4854
10791TIP3   OH253787   0.890   3.257  14.501 -0.4786 -0.4233  0.3923
10791TIP3    H153788   0.854   3.213  14.424  1.5618 -0.6384 -0.4839
10791TIP3    H253789   0.815   3.303  14.540 -1.4898  0.0110 -1.9302
10792TIP3   OH253790   0.861   2.980   2.115 -0.0481 -0.2327 -0.2979
10792TIP3    H153791   0.906   2.978   2.199 -2.3329  0.0495  1.0084
10792TIP3    H253792   0.927   2.951   2.052  0.9663 -3.2146  1.9216
10793TIP3   OH253793   2.922   1.260   4.785  1.4191  0.4304 -0.0792
10793TIP3    H153794   2.921   1.347   4.747  2.4049  0.1154 -0.8826
10793TIP3    H253795   2.980   1.268   4.861  0.5551  0.7377  0.5623
10794TIP3   OH253796   3.390   2.610   2.365  0.2739  0.6070  0.2375
10794TIP3    H153797   3.395   2.702   2.389 -0.8404  1.1381 -1.3980
10794TIP3    H253798   3.343   2.609   2.282  1.1420 -1.3607 -0.3001
10795TIP3   OH253799   6.760   5.281  13.132  0.2411  0.1159  0.3453
10795TIP3    H153800   6.726   5.195  13.155 -0.2537  0.0034 -0.7602
10795TIP3    H253801   6.855   5.268  13.127  0.1912 -0.2976  0.4159
10796TIP3   OH253802   5.306   2.730  15.570 -0.9323  0.2638  0.3745
10796TIP3    H153803   5.285   2.787  15.496  0.9227  0.8857  0.2625
10796TIP3    H253804   5.356   2.658  15.531 -0.1432  0.4755  0.9574
10797TIP3   OH253805   0.302   3.192  14.635 -0.3369 -0.3968  0.2133
10797TIP3    H153806   0.297   3.104  14.673  1.1228 -1.6550 -2.2187
10797TIP3    H253807   0.235   3.193  14.566 -0.2722  0.3633  0.1505
10798TIP3   OH253808   3.860   5.890   3.046  0.1744  0.3171 -0.4790
10798TIP3    H153809   3.780   5.939   3.028 -0.6230 -0.1315  1.6384
10798TIP3    H253810   3.833   5.819   3.104  2.0139 -0.2186 -0.2141
10799TIP3   OH253811   1.501   1.148  12.197 -0.2147 -0.3767 -0.0149
10799TIP3    H153812   1.493   1.241  12.215 -2.4448 -0.5316  0.0319
10799TIP3    H253813   1.475   1.138  12.105  0.5059 -0.9120 -0.1788
10800TIP3   OH253814   0.059   4.337   2.033 -0.2735  0.2923  0.5711
10800TIP3    H153815   0.050   4.259   1.978  2.0512  1.0879 -1.0725
10800TIP3    H253816  -0.024   4.383   2.024 -1.0771 -1.1533  0.2817
10801TIP3   OH253817   2.624   1.855  16.619 -0.3790  0.0124  0.0708
10801TIP3    H153818   2.562   1.863  16.691 -1.6126 -1.0277 -0.8130
10801TIP3    H253819   2.682   1.784  16.645  0.8959  1.4136  1.1875
10802TIP3   OH253820   5.533   5.572  11.626  0.2141 -0.4176  0.0619
10802TIP3    H153821   5.517   5.489  11.582 -0.9111 -0.3483  0.3213
10802TIP3    H253822   5.587   5.548  11.702  0.4004 -0.8258 -0.1974
10803TIP3   OH253823   0.130   5.296  11.158 -0.0480 -0.3047  0.3484
10803TIP3    H153824   0.123   5.224  11.096  0.9961  0.9180 -1.2610
10803TIP3    H253825   0.160   5.370  11.106 -0.7624  1.2333  2.0089
10804TIP3   OH253826   5.994   6.092   5.025  0.1208  0.2867  0.1099
10804TIP3    H153827   5.930   6.126   4.962  0.1080 -0.9620 -0.5802
10804TIP3    H253828   6.079   6.110   4.985  0.1877  0.9929  0.5389
10805TIP3   OH253829   4.991   2.109  15.763  0.1843  0.2015  0.5191
10805TIP3    H153830   5.039   2.191  15.775 -0.3550  0.7113 -0.6097
10805TIP3    H253831   4.904   2.126  15.801 -0.2745  0.5394 -0.6233
10806TIP3   OH253832   0.736   6.036  12.094  0.6667  0.1185  0.2603
10806TIP3    H153833   0.749   5.948  12.059 -2.3768  0.4236 -2.1216
10806TIP3    H253834   0.708   6.023  12.184 -1.6906 -1.6106 -0.6186
10807TIP3   OH253835   5.107   0.455  14.043  0.1220 -0.0297 -0.0051
10807TIP3    H153836   5.185   0.408  14.072 -0.0487 -0.8580 -0.8584
10807TIP3    H253837   5.039   0.430  14.106 -0.2132 -1.7162 -0.9792
10808TIP3   OH253838   2.871   5.355  13.674  0.2312 -0.2530 -0.6676
10808TIP3    H153839   2.893   5.333  13.764  0.5449  0.8432 -0.4668
10808TIP3    H253840   2.927   5.298  13.621 -0.3519 -1.3039 -0.1965
10809TIP3   OH253841   5.973   6.651   3.132  0.2365 -0.6685 -0.1370
10809TIP3    H153842   5.967   6.684   3.042  0.1913  2.9476  1.0544
10809TIP3    H253843   6.064   6.669   3.158 -0.2255  0.0105  1.0865
10810TIP3   OH253844   4.243   1.328   2.583  0.1047  0.1055 -0.3637
10810TIP3    H153845   4.240   1.423   2.584 -1.8261  0.0829  0.7766
10810TIP3    H253846   4.310   1.307   2.518 -1.8909  2.2257 -3.3822
10811TIP3   OH253847   2.729   2.597  11.810  0.0631 -0.4767 -0.3319
10811TIP3    H153848   2.776   2.658  11.867 -0.8029 -0.8238  0.7854
10811TIP3    H253849   2.650   2.573  11.859  1.5929 -4.5754  0.5479
10812TIP3   OH253850   3.677   2.624  14.850 -0.3359 -0.0088  0.5541
10812TIP3    H153851   3.712   2.612  14.762 -2.8028 -0.0088 -0.4897
10812TIP3    H253852   3.703   2.713  14.874  1.4210 -0.4314  0.3939
10813TIP3   OH253853   4.305   2.978  16.809  0.1381  0.0671  0.0188
10813TIP3    H153854   4.339   2.978  16.898  0.9301  0.2326 -0.2780
10813TIP3    H253855   4.349   2.905  16.765 -0.8683 -0.5410 -0.0174
10814TIP3   OH253856   0.623   2.746   3.420  0.2999 -0.0446 -0.0173
10814TIP3    H153857   0.652   2.727   3.509 -0.4232 -0.0509  0.2225
10814TIP3    H253858   0.592   2.663   3.386  0.4739 -0.0200 -0.2389
10815TIP3   OH253859   4.633   5.096   2.352 -0.3007  0.2068  0.1871
10815TIP3    H153860   4.642   5.068   2.260  2.3840 -0.9691  0.7315
10815TIP3    H253861   4.545   5.135   2.356 -0.6510 -0.0319 -2.7796
10816TIP3   OH253862   6.790   3.449  15.283 -0.0840 -0.5842 -0.0025
10816TIP3    H153863   6.872   3.418  15.323 -0.9692 -2.2327  0.6245
10816TIP3    H253864   6.722   3.399  15.328 -1.3421 -0.1969 -1.4285
10817TIP3   OH253865   2.877   5.878   5.359  0.2278  0.1315  0.5735
10817TIP3    H153866   2.805   5.939   5.344  0.3315  0.8066  2.4997
10817TIP3    H253867   2.837   5.802   5.400  0.4443 -0.0643  0.4291
10818TIP3   OH253868   6.207   0.988  13.325 -0.6907  0.0175  0.2004
10818TIP3    H153869   6.249   1.013  13.243 -2.6244  0.1258 -0.8247
10818TIP3    H253870   6.216   1.064  13.381  0.2374  0.1264 -0.0909
10819TIP3   OH253871   4.172   2.583  11.504  0.1447  0.3984  0.1951
10819TIP3    H153872   4.247   2.524  11.513  0.4248  0.8310  0.7801
10819TIP3    H253873   4.108   2.551  11.568  0.6864  1.2948  1.2198
10820TIP3   OH253874   1.437   1.482   4.109 -0.1624  0.9300  0.0227
10820TIP3    H153875   1.511   1.456   4.054 -1.0501 -1.2220 -0.2587
10820TIP3    H253876   1.374   1.519   4.049 -0.0366  1.0968 -0.0062
10821TIP3   OH253877   2.893   4.785  16.811  0.1819  0.3991 -0.4713
10821TIP3    H153878   2.970   4.778  16.753  1.6492 -0.2495  1.4548
10821TIP3    H253879   2.880   4.879  16.821  1.3885  0.5389 -0.0250
10822TIP3   OH253880   5.907   4.489  15.996 -0.1189  0.0278  0.2186
10822TIP3    H153881   5.877   4.414  16.047 -1.3345  0.0103 -0.4972
10822TIP3    H253882   5.845   4.558  16.017 -0.1392  0.2634 -0.6100
10823TIP3   OH253883   6.792   5.671  16.781 -0.6656  0.0667 -0.3860
10823TIP3    H153884   6.770   5.759  16.752 -0.3061  0.6932  1.1238
10823TIP3    H253885   6.888   5.670  16.785 -0.6945  0.4119  1.7880
10824TIP3   OH253886   1.161   3.678   0.820 -0.1382  0.8746 -0.2182
10824TIP3    H153887   1.082   3.641   0.779  0.7695  0.5333 -1.7415
10824TIP3    H253888   1.170   3.765   0.779  1.2914  0.1683 -1.5050
10825TIP3   OH253889   2.785   0.648  11.579  0.6529  0.1925  0.0514
10825TIP3    H153890   2.742   0.569  11.611 -0.7975  0.0993 -1.9161
10825TIP3    H253891   2.713   0.709  11.561  1.0837 -0.1622 -3.8765
10826TIP3   OH253892   1.100   0.407  17.071 -0.0484  0.1417 -0.2010
10826TIP3    H153893   1.069   0.497  17.085  1.7454  0.7547  0.2149
10826TIP3    H253894   1.192   0.410  17.100  0.1763 -1.7148 -0.6411
10827TIP3   OH253895   6.230   1.218  11.344  0.2594 -0.1234 -0.5226
10827TIP3    H153896   6.216   1.308  11.373 -0.1921 -0.1555 -0.6330
10827TIP3    H253897   6.177   1.211  11.264  1.1814 -0.1495 -1.1422
10828TIP3   OH253898   3.420   3.946  14.504 -0.3402 -0.1980  0.0241
10828TIP3    H153899   3.426   3.910  14.416  0.3922  1.1126 -0.4926
10828TIP3    H253900   3.354   4.015  14.497  0.9789  1.1086  0.0345
10829TIP3   OH253901   1.914   6.319  11.348 -0.3247  0.0042 -0.6359
10829TIP3    H153902   1.958   6.353  11.426 -0.0503  0.6032 -1.0433
10829TIP3    H253903   1.960   6.360  11.275 -0.3809 -0.7908 -1.1241
10830TIP3   OH253904   1.495   3.180   6.348 -0.3284 -0.2217 -0.1316
10830TIP3    H153905   1.466   3.126   6.274  0.0192 -1.1754  0.4099
10830TIP3    H253906   1.439   3.152   6.420  0.5249 -0.5749  0.4005
10831TIP3   OH253907   5.347   6.644  12.086 -0.0127 -0.2924 -0.2708
10831TIP3    H153908   5.423   6.674  12.037 -1.2973 -0.3623 -2.4916
10831TIP3    H253909   5.380   6.573  12.142  1.5733 -0.1967 -1.0424
10832TIP3   OH253910   0.991   0.999  15.187  0.1960  0.0657 -0.2381
10832TIP3    H153911   1.055   0.940  15.226  0.2573  0.1408 -0.2259
10832TIP3    H253912   0.907   0.952  15.196 -0.2465  1.1802  2.4096
10833TIP3   OH253913   1.523   1.227  16.481 -0.1035 -0.0791 -0.0261
10833TIP3    H153914   1.494   1.262  16.566 -2.7565  0.5515 -1.0884
10833TIP3    H253915   1.487   1.139  16.478  1.0833 -0.5878 -0.0235
10834TIP3   OH253916   5.407   1.493  13.643  0.3621  0.0749 -0.1120
10834TIP3    H153917   5.371   1.431  13.706 -2.5658  0.9866 -0.7579
10834TIP3    H253918   5.436   1.567  13.696  1.9779 -0.9096  0.4677
10835TIP3   OH253919   3.414   1.836   3.205 -0.0804 -0.1024  0.0191
10835TIP3    H153920   3.391   1.927   3.225 -1.2157 -0.5679  0.8871
10835TIP3    H253921   3.467   1.808   3.280  0.8152  0.0259 -0.5506
10836TIP3   OH253922   0.621   0.169   6.515 -0.0698 -0.1478 -0.2656
10836TIP3    H153923   0.627   0.129   6.428 -1.3958 -1.9472  0.3892
10836TIP3    H253924   0.679   0.115   6.570 -1.2689 -0.7428  0.4737
10837TIP3   OH253925   6.439   0.360   5.634  0.0887 -0.1031 -0.5286
10837TIP3    H153926   6.432   0.267   5.615  0.4963 -0.4200  0.8007
10837TIP3    H253927   6.504   0.366   5.704  0.5349  1.2370 -1.0247
10838TIP3   OH253928   5.612   4.535  13.494 -0.0771 -0.2517 -0.1350
10838TIP3    H153929   5.668   4.601  13.535 -0.9493  0.5935 -0.2688
10838TIP3    H253930   5.552   4.508  13.564  0.4718 -1.1413  0.0038
10839TIP3   OH253931   5.626   6.716   0.764  0.1683 -0.1751  0.2266
10839TIP3    H153932   5.677   6.759   0.832 -0.9026  1.1199  0.2540
10839TIP3    H253933   5.577   6.786   0.722 -0.1924 -1.1262 -1.0248
10840TIP3   OH253934   5.587   3.734  13.359 -0.0228  0.5279 -0.3971
10840TIP3    H153935   5.587   3.640  13.346  0.3865  0.4548  0.0996
10840TIP3    H253936   5.557   3.746  13.449  0.9110  0.8084 -0.1091
10841TIP3   OH253937   2.387   2.300  17.143  0.6229 -0.7189  0.0363
10841TIP3    H153938   2.338   2.341  17.214  0.6190 -0.6219 -0.0228
10841TIP3    H253939   2.461   2.259  17.186 -0.0688 -1.7608  0.2535
10842TIP3   OH253940   3.620   5.703   3.996 -0.3880  0.3113  0.2683
10842TIP3    H153941   3.535   5.725   4.033 -1.0861 -0.0485 -1.0659
10842TIP3    H253942   3.621   5.746   3.910 -0.8927 -2.8452 -1.4667
10843TIP3   OH253943   4.744   5.874  17.148  0.1128  0.4110 -0.0859
10843TIP3    H153944   4.834   5.888  17.176  0.5504 -0.8727 -0.7607
10843TIP3    H253945   4.691   5.891  17.226  0.9965  0.5120  0.5006
10844TIP3   OH253946   0.779   6.720   0.621  0.0004  0.1087  0.0902
10844TIP3    H153947   0.858   6.767   0.646 -0.0185  2.2057 -3.1667
10844TIP3    H253948   0.810   6.639   0.581  0.4463  0.3894 -0.1332
10845TIP3   OH253949   6.253   1.262   0.871  0.7932 -0.3746 -0.9908
10845TIP3    H153950   6.169   1.304   0.851 -0.1416 -0.7003  1.8054
10845TIP3    H253951   6.289   1.313   0.944  1.1288 -2.5015  0.4256
10846TIP3   OH253952   0.616   2.366  12.728 -0.4427 -0.5934 -0.2258
10846TIP3    H153953   0.538   2.375  12.783  1.1511 -0.1421  2.0921
10846TIP3    H253954   0.599   2.423  12.653 -1.5912  0.9378  1.1395
10847TIP3   OH253955   2.858   0.699  13.462 -0.1022  0.7251  0.1236
10847TIP3    H153956   2.935   0.721  13.514 -1.3260  1.5369  1.7143
10847TIP3    H253957   2.863   0.604  13.451 -0.3873  0.2770  2.9059
10848TIP3   OH253958   0.185   2.040  11.088 -0.6574 -0.2703 -0.6187
10848TIP3    H153959   0.214   2.131  11.079 -0.2651 -0.3196  0.0902
10848TIP3    H253960   0.174   2.009  10.998 -2.0387  0.8655 -0.8790
10849TIP3   OH253961   6.024   4.564  13.648  0.0909 -0.8234  0.3164
10849TIP3    H153962   6.045   4.558  13.555  1.5617 -0.9153  0.6165
10849TIP3    H253963   5.999   4.655  13.662 -0.1648 -0.8168 -0.1689
10850TIP3   OH253964   0.006   5.358   5.627  0.5195 -0.2677 -0.1193
10850TIP3    H153965  -0.006   5.398   5.541  0.7099  0.1970  0.0672
10850TIP3    H253966   0.097   5.328   5.628  0.3304 -0.8611 -0.3206
10851TIP3   OH253967   0.156   2.914  11.255  0.4585 -0.0149  0.3408
10851TIP3    H153968   0.081   2.972  11.243  0.2725 -0.3152  0.0400
10851TIP3    H253969   0.228   2.973  11.279  0.0345  0.2283  1.0372
10852TIP3   OH253970   1.529   2.634  16.732 -0.3015  0.1245  0.2673
10852TIP3    H153971   1.515   2.540  16.742 -1.7304  0.2078 -0.5816
10852TIP3    H253972   1.543   2.666  16.821  1.4816 -1.0483  0.4455
10853TIP3   OH253973   0.749   4.682   1.439 -0.1284  0.1998  0.7050
10853TIP3    H153974   0.684   4.752   1.449  0.8525  1.0624  1.2634
10853TIP3    H253975   0.823   4.725   1.396  0.8118 -0.2780  1.7962
10854TIP3   OH253976   2.578   5.197   0.066  0.2417 -0.1705  0.0850
10854TIP3    H153977   2.634   5.122   0.045 -0.7877 -1.2597  1.1539
10854TIP3    H253978   2.524   5.209  -0.012 -0.1636 -1.0751  0.2212
10855TIP3   OH253979   3.018   6.324  15.031  0.6289  0.6700 -0.5263
10855TIP3    H153980   2.946   6.361  14.979  0.4282 -1.4733 -1.8850
10855TIP3    H253981   2.988   6.329  15.121 -1.1792 -0.0456 -1.0543
10856TIP3   OH253982   6.182   2.293  14.970  0.3667 -0.2327  0.1118
10856TIP3    H153983   6.133   2.248  14.901 -2.4629 -0.5345  2.1608
10856TIP3    H253984   6.223   2.368  14.925 -0.0434 -1.2816 -2.1433
10857TIP3   OH253985   6.044   5.119   0.776  0.1258 -0.0366  0.0095
10857TIP3    H153986   6.022   5.206   0.810 -0.7703  1.0466 -2.9878
10857TIP3    H253987   6.135   5.127   0.747 -0.4544  0.5435 -1.8155
10858TIP3   OH253988   5.327   3.814   1.315  0.0060  0.5884 -0.4888
10858TIP3    H153989   5.374   3.744   1.360  2.9622  2.7155  0.0377
10858TIP3    H253990   5.328   3.788   1.222  0.3612 -0.4118 -0.2163
10859TIP3   OH253991   5.360   5.363  14.661  0.3521  0.1881  0.0164
10859TIP3    H153992   5.330   5.401  14.743 -1.6231 -0.5196 -0.3231
10859TIP3    H253993   5.432   5.306  14.686 -0.3509 -0.1695  1.2945
10860TIP3   OH253994   4.607   1.149  11.546 -0.0848 -0.2331 -0.1725
10860TIP3    H153995   4.617   1.165  11.639  0.0328 -2.0434  0.1650
10860TIP3    H253996   4.590   1.235  11.508 -0.5715  0.4774  1.5669
10861TIP3   OH253997   4.840   4.180  15.911  0.1807 -0.0223 -0.1953
10861TIP3    H153998   4.925   4.182  15.868 -0.3082  0.3462 -1.1746
10861TIP3    H253999   4.805   4.093  15.890 -0.1009  0.1949 -0.6286
10862TIP3   OH254000   1.829   5.958  16.832 -0.1730  0.0385  0.5414
10862TIP3    H154001   1.875   5.874  16.830  1.2372  0.7968 -1.1298
10862TIP3    H254002   1.826   5.981  16.925 -0.6441 -1.8643  1.0392
10863TIP3   OH254003   6.796   3.642   5.973 -0.2001 -0.0832 -0.4021
10863TIP3    H154004   6.792   3.607   5.884 -0.8744  0.6278 -0.6612
10863TIP3    H254005   6.707   3.674   5.990 -0.0832 -0.2443  0.5382
10864TIP3   OH254006   6.144   2.797  14.657  0.3974 -0.1746 -0.8423
10864TIP3    H154007   6.185   2.746  14.727  1.5262  1.2899 -0.3887
10864TIP3    H254008   6.067   2.746  14.633 -0.3664 -0.4500  1.8488
10865TIP3   OH254009   0.305   2.488   2.166 -0.0315  0.0222  0.0387
10865TIP3    H154010   0.246   2.553   2.129  0.9343  0.6187 -0.5124
10865TIP3    H254011   0.276   2.405   2.128 -0.4473  0.3208 -0.3028
10866TIP3   OH254012   4.407   6.035  15.016  0.2855  0.1148  0.2455
10866TIP3    H154013   4.487   6.052  15.066  0.2620  0.3811  0.1980
10866TIP3    H254014   4.436   5.983  14.941  0.6584  1.3376 -0.5057
10867TIP3   OH254015   2.335   0.486   3.448  0.3421  0.1129  0.0066
10867TIP3    H154016   2.404   0.438   3.493 -0.4921 -1.7271 -0.5822
10867TIP3    H254017   2.304   0.426   3.380 -0.6654  1.5513 -0.8606
10868TIP3   OH254018   1.523   2.131   2.460 -0.3998  0.5685  0.2444
10868TIP3    H154019   1.484   2.044   2.468  0.4330  0.1969  0.3454
10868TIP3    H254020   1.470   2.175   2.394 -0.4388 -0.2398 -0.2715
10869TIP3   OH254021   4.812   4.651   5.349 -0.3651  0.3746 -0.7891
10869TIP3    H154022   4.822   4.746   5.358  0.4830  0.3252 -1.1325
10869TIP3    H254023   4.736   4.640   5.292  0.6621  0.9091 -2.3367
10870TIP3   OH254024   3.011   3.608   1.202  0.4618  0.2431 -0.4013
10870TIP3    H154025   2.950   3.562   1.145 -0.8467  2.6626 -1.1240
10870TIP3    H254026   2.973   3.600   1.290  0.1798  0.0641 -0.5394
10871TIP3   OH254027   3.065   0.775  15.995 -0.5475 -0.2077  0.7127
10871TIP3    H154028   3.052   0.833  15.920 -1.1619 -1.2205  0.0186
10871TIP3    H254029   3.125   0.823  16.052 -0.9430  1.0500  0.0977
10872TIP3   OH254030   0.256   1.261  12.131  0.4862 -0.4109  0.7442
10872TIP3    H154031   0.300   1.177  12.145 -0.7641 -0.9638  1.4504
10872TIP3    H254032   0.235   1.293  12.218 -0.0145  0.1216  0.4369
10873TIP3   OH254033   3.032   2.218  13.733  0.0074  0.4523  0.5677
10873TIP3    H154034   2.985   2.257  13.806 -0.4657  1.6097 -0.3250
10873TIP3    H254035   2.971   2.224  13.659  0.3280 -1.0197  0.1373
10874TIP3   OH254036   1.681   3.359   3.509  0.4217 -0.2036 -0.2316
10874TIP3    H154037   1.633   3.353   3.426  1.1788 -1.1402 -0.6280
10874TIP3    H254038   1.773   3.363   3.482  0.6595 -0.2328  0.5656
10875TIP3   OH254039   1.550   5.190   0.492 -0.0628 -0.1509  0.2472
10875TIP3    H154040   1.457   5.209   0.506  0.1179  1.7405 -0.7290
10875TIP3    H254041   1.584   5.174   0.580 -1.0502  0.5249  0.7780
10876TIP3   OH254042   6.479   5.554  11.782  0.3805 -0.0182  0.1213
10876TIP3    H154043   6.553   5.613  11.766 -0.9967  2.1525  1.2510
10876TIP3    H254044   6.412   5.584  11.720  0.8733 -2.9995 -2.0427
10877TIP3   OH254045   0.410   3.860  10.791  0.1157  0.1529  0.3707
10877TIP3    H154046   0.444   3.866  10.702 -1.5140 -2.2037 -0.5209
10877TIP3    H254047   0.472   3.802  10.836 -0.6412 -1.1299 -0.1737
10878TIP3   OH254048   3.207   3.245   1.061  0.1233  0.2274 -0.0820
10878TIP3    H154049   3.255   3.163   1.065 -0.0661  0.1555  1.2011
10878TIP3    H254050   3.146   3.234   0.988 -0.2478 -0.9672  0.3852
10879TIP3   OH254051   2.457   2.537  14.382  0.6170  0.2219  0.2215
10879TIP3    H154052   2.387   2.531  14.447  0.0761  0.5734 -0.3087
10879TIP3    H254053   2.415   2.579  14.307  1.2213 -0.1874 -0.3561
10880TIP3   OH254054   3.836   0.754   0.205 -0.1320 -0.0643  0.4345
10880TIP3    H154055   3.780   0.831   0.193 -0.8590 -0.7558 -0.8518
10880TIP3    H254056   3.805   0.692   0.138  2.0587 -0.5466 -0.1940
10881TIP3   OH254057   1.793   3.439   1.531 -0.2875 -0.7920  0.0236
10881TIP3    H154058   1.862   3.375   1.551 -0.2103 -1.4466 -2.0721
10881TIP3    H254059   1.725   3.423   1.596  1.5231 -0.0466  2.2475
10882TIP3   OH254060   6.442   5.812  17.023  0.4662 -0.4020 -0.1438
10882TIP3    H154061   6.360   5.798  17.070  0.7573  1.0096  0.8526
10882TIP3    H254062   6.501   5.848  17.089  1.0877  1.0411 -1.4344
10883TIP3   OH254063   5.734   2.476   3.929  0.4753 -0.4019 -0.3357
10883TIP3    H154064   5.667   2.458   3.995 -0.8343 -1.2275 -1.8177
10883TIP3    H254065   5.748   2.570   3.934 -0.8388 -0.2000 -0.0224
10884TIP3   OH254066   3.778   1.750  17.057 -0.1256 -0.3140  0.0174
10884TIP3    H154067   3.816   1.690  16.994  0.4040  0.0502 -0.0200
10884TIP3    H254068   3.852   1.779  17.110 -0.4604 -0.1081  0.3810
10885TIP3   OH254069   4.359   1.595   3.997 -0.4923  0.2281  0.0101
10885TIP3    H154070   4.420   1.598   4.071 -0.7906 -1.9920  0.4271
10885TIP3    H254071   4.414   1.599   3.919  0.0731 -0.1062  0.3851
10886TIP3   OH254072   3.704   6.105  11.158  0.6656  0.0275  0.1209
10886TIP3    H154073   3.679   6.068  11.243  0.8778  1.0495  0.6389
10886TIP3    H254074   3.641   6.176  11.144  0.6797 -0.0918 -0.5377
10887TIP3   OH254075   2.760   4.763  12.831  0.2923 -0.3366 -0.1349
10887TIP3    H154076   2.827   4.829  12.848 -1.5602  1.9482 -1.1940
10887TIP3    H254077   2.786   4.722  12.748  0.5230  0.3497 -0.4004
10888TIP3   OH254078   3.515   3.783  17.022 -0.0398 -0.1492  0.0919
10888TIP3    H154079   3.454   3.857  17.012  1.5567  1.5848  2.1105
10888TIP3    H254080   3.559   3.777  16.937 -1.1665  0.3237 -0.5434
10889TIP3   OH254081   3.058   6.537  10.791  0.1453 -0.1601  0.2756
10889TIP3    H154082   2.985   6.594  10.814 -0.0441 -0.2508 -0.0970
10889TIP3    H254083   3.017   6.458  10.755  0.4257 -0.2049  0.0495
10890TIP3   OH254084   3.168   1.336   0.193  0.6676 -0.3143 -0.3133
10890TIP3    H154085   3.204   1.408   0.245 -1.5999 -0.2676  1.3379
10890TIP3    H254086   3.144   1.269   0.257 -1.9796 -0.3830 -1.2534
10891TIP3   OH254087   6.760   1.789   1.900 -0.1626 -0.6333  0.4338
10891TIP3    H154088   6.678   1.743   1.916 -0.2707 -0.4758  0.3343
10891TIP3    H254089   6.813   1.728   1.849  0.0949 -1.0518  1.1787
10892TIP3   OH254090   0.909   6.296   1.569 -0.1279 -0.2212 -0.7318
10892TIP3    H154091   0.915   6.262   1.480 -0.5247 -2.5190  0.0504
10892TIP3    H254092   0.941   6.387   1.563 -2.0214  0.3653 -3.5337
10893TIP3   OH254093   1.015   1.454  15.997 -0.2877  0.6158 -0.3990
10893TIP3    H154094   1.021   1.361  16.020 -0.3313  0.2109 -1.9043
10893TIP3    H254095   1.024   1.500  16.080  2.7513 -0.6245  0.1090
10894TIP3   OH254096   1.669   0.402   2.886 -0.0981  0.1654  0.1317
10894TIP3    H154097   1.686   0.441   2.971  0.0505 -1.2581  0.7814
10894TIP3    H254098   1.578   0.373   2.890 -1.0544  2.6529 -1.2754
10895TIP3   OH254099   1.332   6.592   3.874  0.7479 -0.0771  0.2298
10895TIP3    H154100   1.421   6.629   3.877  1.1130 -0.9498  0.4438
10895TIP3    H254101   1.277   6.661   3.911  1.3598  0.4021  0.2738
10896TIP3   OH254102   3.012   6.295  12.060 -0.5283 -0.0536 -0.3406
10896TIP3    H154103   3.076   6.250  12.006  0.5240  0.2251  0.6228
10896TIP3    H254104   3.051   6.296  12.148 -0.7315  2.2262 -0.2031
10897TIP3   OH254105   1.601   1.933   4.053  0.6768  0.4941  0.6155
10897TIP3    H154106   1.530   1.892   4.103  0.2822  0.8406  0.3532
10897TIP3    H254107   1.579   1.914   3.962  0.0940  1.8647  0.4396
10898TIP3   OH254108   5.249   5.610  17.163  0.1211  0.1476  0.1763
10898TIP3    H154109   5.326   5.589  17.217 -0.1089 -0.5371  0.2441
10898TIP3    H254110   5.226   5.527  17.122 -1.3823  0.0425  1.1733
10899TIP3   OH254111   6.102   4.041   5.931  0.1337  0.1539 -0.1876
10899TIP3    H154112   6.008   4.028   5.930  0.2450 -0.7467 -0.2972
10899TIP3    H254113   6.133   3.999   5.850  0.7227 -0.4508  0.3364
10900TIP3   OH254114   2.775   1.446  16.081  0.1152  0.0584 -0.2136
10900TIP3    H154115   2.707   1.512  16.094 -0.9708 -1.0167 -0.2696
10900TIP3    H254116   2.810   1.465  15.994 -0.3638  0.4058 -0.3366
10901TIP3   OH254117   0.029   5.765  11.255  0.1966  0.4508 -0.2064
10901TIP3    H154118   0.031   5.749  11.161  1.0360 -0.6837 -0.0109
10901TIP3    H254119  -0.060   5.795  11.272 -0.2708 -0.3205 -1.2020
10902TIP3   OH254120   4.251   1.524  14.108 -0.2444 -0.4224  0.5018
10902TIP3    H154121   4.313   1.596  14.099 -0.3436 -0.6320 -2.8212
10902TIP3    H254122   4.288   1.471  14.179  1.3390  1.3887  1.1346
10903TIP3   OH254123   0.992   4.541   2.443 -0.3082 -0.1986 -0.2284
10903TIP3    H154124   0.960   4.555   2.532 -1.3036 -1.1975 -0.4122
10903TIP3    H254125   1.069   4.485   2.453  0.6771  1.1645  0.1157
10904TIP3   OH254126   4.485   3.818   0.060  0.0368  0.1134 -0.2630
10904TIP3    H154127   4.393   3.845   0.064 -0.3249 -1.1915  2.7718
10904TIP3    H254128   4.508   3.825  -0.033 -2.2640  3.1027 -0.7532
10905TIP3   OH254129   3.186   5.504  11.330 -0.5638  0.1537 -0.3226
10905TIP3    H154130   3.166   5.594  11.306  0.7815  0.3516 -0.7920
10905TIP3    H254131   3.196   5.459  11.246  1.0574  0.1208 -0.1507
10906TIP3   OH254132   2.113   5.690  11.737  0.0818  0.1574 -0.7119
10906TIP3    H154133   2.086   5.613  11.687 -1.3728  0.4537 -0.4350
10906TIP3    H254134   2.030   5.730  11.766  0.8295  1.3790 -0.1845
10907TIP3   OH254135   5.904   1.053  14.775 -0.1996  0.4794 -0.4004
10907TIP3    H154136   5.892   1.036  14.868 -0.1719 -1.0468 -0.6500
10907TIP3    H254137   5.816   1.051  14.739 -0.2510  1.4765 -0.3668
10908TIP3   OH254138   3.532   4.753  12.739  0.3088 -0.2875 -0.3631
10908TIP3    H154139   3.617   4.795  12.730 -0.0382  0.7349  0.8494
10908TIP3    H254140   3.545   4.664  12.706  2.2076 -0.5927  1.0542
10909TIP3   OH254141   1.002   1.327  14.745  0.0727 -0.1063 -0.4021
10909TIP3    H154142   1.004   1.376  14.827 -1.8589  0.0230 -0.3974
10909TIP3    H254143   1.075   1.362  14.694 -0.4285  1.8154  0.1487
10910TIP3   OH254144   3.912   3.252  15.369 -0.3432  0.3786  0.2214
10910TIP3    H154145   3.986   3.191  15.363 -1.3176 -0.7836 -0.6220
10910TIP3    H254146   3.930   3.319  15.303 -0.6713 -0.6439 -0.9370
10911TIP3   OH254147   3.350   6.038  11.850 -0.0743  0.8146 -0.7092
10911TIP3    H154148   3.383   5.986  11.777  2.1213  0.1078  0.6750
10911TIP3    H254149   3.264   6.002  11.869  0.6159 -1.0919 -0.9731
10912TIP3   OH254150   3.349   6.104   3.368 -0.0608  0.0159  0.3600
10912TIP3    H154151   3.311   6.187   3.398  1.7960  0.9367  0.2980
10912TIP3    H254152   3.294   6.077   3.295 -1.0560  0.8603  0.7691
10913TIP3   OH254153   2.361   6.397  13.388 -0.4799 -0.5962  0.3607
10913TIP3    H154154   2.412   6.392  13.307 -1.4019  0.3737 -0.3195
10913TIP3    H254155   2.420   6.438  13.451 -0.1255 -0.2840 -0.1607
10914TIP3   OH254156   6.061   5.809  15.778  0.6362  0.5914  0.2821
10914TIP3    H154157   6.120   5.877  15.809 -0.9194  2.3958 -0.4613
10914TIP3    H254158   5.990   5.857  15.734  0.5676 -1.5963 -2.2779
10915TIP3   OH254159   2.897   4.846   4.036  0.0174 -0.2410 -0.0099
10915TIP3    H154160   2.911   4.802   3.951  2.1852 -1.1102  0.7165
10915TIP3    H254161   2.902   4.939   4.015  0.8447 -0.4436 -0.8288
10916TIP3   OH254162   3.698   2.466   3.925  0.0961 -0.5585 -0.1389
10916TIP3    H154163   3.677   2.446   3.833 -0.5632 -0.4885 -0.0095
10916TIP3    H254164   3.773   2.526   3.920 -0.0599 -0.4010 -0.6386
10917TIP3   OH254165   3.316   1.894  17.118 -0.1629 -0.1620 -0.0027
10917TIP3    H154166   3.407   1.913  17.095 -1.0622  1.2834 -2.9915
10917TIP3    H254167   3.299   1.807  17.081 -0.4335  0.3549 -1.1610
10918TIP3   OH254168   6.460   4.810   5.002  0.3188  0.1626  0.1196
10918TIP3    H154169   6.414   4.727   5.005  2.0025 -0.8082  0.3328
10918TIP3    H254170   6.408   4.869   5.056 -1.0504 -0.6610 -0.2642
10919TIP3   OH254171   2.374   0.636  13.508  0.0956 -0.2769 -0.2216
10919TIP3    H154172   2.327   0.705  13.556  1.2848  1.3082 -1.2342
10919TIP3    H254173   2.461   0.634  13.547  0.1398 -1.0581 -0.3518
10920TIP3   OH254174   6.676   0.747  13.370 -0.6106 -0.4747 -0.0884
10920TIP3    H154175   6.603   0.789  13.415 -1.5141 -1.5221 -0.5077
10920TIP3    H254176   6.640   0.663  13.340  1.0307 -1.4195  0.4621
10921TIP3   OH254177   4.433   1.044   4.161 -0.0004 -0.4075 -0.0439
10921TIP3    H154178   4.453   1.134   4.189 -0.3408  0.0078 -1.0919
10921TIP3    H254179   4.339   1.035   4.176  0.4341 -1.5202  2.5444
10922TIP3   OH254180   0.028   1.496   0.948 -0.0601 -0.5454  0.3989
10922TIP3    H154181  -0.046   1.555   0.956  1.4731  1.3114  2.0311
10922TIP3    H254182   0.011   1.426   1.011 -0.1922  0.1657  1.1631
10923TIP3   OH254183   6.108   2.541   3.429 -0.3669  0.3885 -0.1946
10923TIP3    H154184   6.035   2.485   3.457 -0.5124  1.1757  1.0423
10923TIP3    H254185   6.117   2.522   3.335 -0.1265 -2.0275  0.2536
10924TIP3   OH254186   5.754   3.917  13.225 -0.4397 -0.1331  0.1840
10924TIP3    H154187   5.723   3.842  13.276  0.0583 -0.5128 -0.0537
10924TIP3    H254188   5.755   3.990  13.286  0.5439 -0.6709  0.8445
10925TIP3   OH254189   2.615   1.453  16.900  0.3714 -0.0740 -0.1901
10925TIP3    H154190   2.691   1.485  16.949  0.1332 -0.8919  0.7609
10925TIP3    H254191   2.653   1.393  16.835  0.4684 -2.4681  1.8894
10926TIP3   OH254192   4.436   5.308   0.509 -0.3570  0.1667 -0.7864
10926TIP3    H154193   4.388   5.390   0.519 -0.0684  0.1865  0.5823
10926TIP3    H254194   4.400   5.250   0.576  0.8125 -0.1452 -0.3989
10927TIP3   OH254195   1.690   5.209   5.154 -0.2480  0.0456 -0.5931
10927TIP3    H154196   1.731   5.131   5.191 -0.0418  0.7441  0.7044
10927TIP3    H254197   1.659   5.258   5.230 -1.4077  0.6741 -1.4413
10928TIP3   OH254198   3.721   2.825  16.301  0.0810 -0.0511  0.3852
10928TIP3    H154199   3.749   2.893  16.239 -0.4136  0.0559  0.2794
10928TIP3    H254200   3.765   2.849  16.383  0.3243  0.1013  0.2129
10929TIP3   OH254201   2.200   2.223  11.681  0.0306  0.4461  0.8315
10929TIP3    H154202   2.149   2.163  11.736  0.1644 -0.4923 -0.0270
10929TIP3    H254203   2.274   2.248  11.735  0.0947 -0.3588  1.1385
10930TIP3   OH254204   0.445   5.057  11.932 -0.4313 -0.4477 -0.2559
10930TIP3    H154205   0.476   5.104  11.855 -0.6311 -1.6587 -1.1016
10930TIP3    H254206   0.363   5.016  11.904  0.1473 -1.9568  0.1807
10931TIP3   OH254207   1.977   0.241  10.358  0.3990  0.4291  0.5813
10931TIP3    H154208   1.887   0.209  10.361  0.2451  0.4862 -1.7216
10931TIP3    H254209   2.030   0.165  10.383 -0.1623 -0.6165 -1.1824
10932TIP3   OH254210   3.048   3.277   0.548  0.1593 -0.1247 -0.2992
10932TIP3    H154211   3.034   3.342   0.617  1.5966  1.4381 -1.3940
10932TIP3    H254212   2.999   3.200   0.577 -0.5369  0.9951  1.6890
10933TIP3   OH254213   1.510   0.971  15.709  0.3122  0.2818  0.3744
10933TIP3    H154214   1.534   1.028  15.636  0.2681  0.2496  0.3342
10933TIP3    H254215   1.525   1.024  15.787  0.9138  0.1174  0.3731
10934TIP3   OH254216   0.746   4.742  13.503  0.3344  0.4726  0.2997
10934TIP3    H154217   0.657   4.712  13.522  0.4283  1.0771  1.8388
10934TIP3    H254218   0.747   4.754  13.408  0.3473 -4.4180 -0.5890
10935TIP3   OH254219   6.464   3.986   6.818  0.2006  0.2143  0.4794
10935TIP3    H154220   6.553   3.975   6.853  0.4438 -0.2490 -0.2625
10935TIP3    H254221   6.476   4.030   6.734 -0.3373  0.8581  0.7362
10936TIP3   OH254222   0.983   2.957   0.700  0.5185 -0.7037  0.4951
10936TIP3    H154223   1.057   3.013   0.677 -0.6932  0.3919 -0.9859
10936TIP3    H254224   1.020   2.888   0.753  2.3346  0.7057  1.1598
10937TIP3   OH254225   6.304   0.252  11.437 -0.0739 -0.1890 -0.2547
10937TIP3    H154226   6.360   0.250  11.514  0.3190 -2.0253 -0.5511
10937TIP3    H254227   6.349   0.311  11.376  1.0379 -0.8649 -0.1146
10938TIP3   OH254228   2.160   5.597   4.439 -0.5167  0.2930 -0.1495
10938TIP3    H154229   2.142   5.582   4.532  1.1911  0.7830  0.2963
10938TIP3    H254230   2.098   5.666   4.414  0.9136  2.2608  1.4348
10939TIP3   OH254231   3.499   0.995  16.773 -0.8531 -0.5839  0.1082
10939TIP3    H154232   3.522   0.917  16.824 -1.9371  0.7475  2.8122
10939TIP3    H254233   3.502   0.965  16.682  3.2531 -2.5927  0.6578
10940TIP3   OH254234   5.610   4.955   2.437 -0.2932  0.2197 -0.0129
10940TIP3    H154235   5.610   5.021   2.368 -4.6504 -1.7659 -2.3002
10940TIP3    H254236   5.644   4.876   2.396 -2.2738 -0.8154  0.2106
10941TIP3   OH254237   6.780   0.233  15.959  0.1381 -0.1662  0.6950
10941TIP3    H154238   6.687   0.228  15.982  0.0291 -0.6106  0.1703
10941TIP3    H254239   6.816   0.150  15.991  0.2384 -0.2367  0.3978
10942TIP3   OH254240   1.962   2.250   6.230  0.0683  0.1593 -0.5177
10942TIP3    H154241   2.042   2.222   6.185  0.9998  3.0275 -0.8258
10942TIP3    H254242   1.974   2.220   6.320  0.8216 -0.6724 -0.8708
10943TIP3   OH254243   0.528   1.373  13.108  0.6411 -0.2017  0.4069
10943TIP3    H154244   0.504   1.456  13.151  0.3382 -0.2944  0.4206
10943TIP3    H254245   0.620   1.384  13.085  1.2009 -0.6404  2.2645
10944TIP3   OH254246   4.011   4.270   6.775 -0.2095 -0.1622 -0.3607
10944TIP3    H154247   4.063   4.190   6.764 -0.3501 -0.2435 -0.4492
10944TIP3    H254248   3.949   4.268   6.701 -1.6551 -1.0909  0.8073
10945TIP3   OH254249   0.974   1.899  16.531 -0.2791 -0.6567  0.0662
10945TIP3    H154250   1.028   1.824  16.506 -1.6395 -1.4707 -0.5796
10945TIP3    H254251   1.015   1.974  16.489  1.3351 -0.9523  1.0445
10946TIP3   OH254252   5.014   4.716  12.615  0.2770 -0.0444 -0.4366
10946TIP3    H154253   5.095   4.704  12.565  0.0428 -1.0151 -0.5967
10946TIP3    H254254   5.004   4.811  12.621  1.6248  0.0980 -0.0827
10947TIP3   OH254255   4.397   6.615  10.771 -0.4387  0.0294  0.5206
10947TIP3    H154256   4.488   6.617  10.801  0.2055  2.6081 -1.2883
10947TIP3    H254257   4.394   6.543  10.709  0.1948 -0.4894  1.0741
10948TIP3   OH254258   5.898   1.432  14.956  0.6452  0.2679  0.3317
10948TIP3    H154259   5.835   1.366  14.984  1.1221 -0.1118  0.5381
10948TIP3    H254260   5.847   1.512  14.947  0.2228  0.0709  0.9283
10949TIP3   OH254261   4.041   1.543   0.203  0.2532 -0.6207 -0.3094
10949TIP3    H154262   4.044   1.592   0.285  1.3384  0.2902 -0.8619
10949TIP3    H254263   4.009   1.457   0.228  2.1104 -0.8948  1.3645
10950TIP3   OH254264   3.302   1.116   3.992 -0.1289  0.4996 -0.6371
10950TIP3    H154265   3.396   1.121   4.009 -0.0720 -2.5425  0.6375
10950TIP3    H254266   3.294   1.118   3.897  1.2672  0.4003 -0.7693
10951TIP3   OH254267   3.240   3.676  16.630 -0.5188  0.5529  0.3804
10951TIP3    H154268   3.256   3.766  16.655 -0.8304  0.6402  0.2769
10951TIP3    H254269   3.166   3.648  16.685 -0.5618  0.4310  0.2641
10952TIP3   OH254270   1.351   5.903  15.286  0.1007  0.0872  0.1849
10952TIP3    H154271   1.431   5.915  15.236 -0.3434 -0.6411 -0.7366
10952TIP3    H254272   1.361   5.817  15.328  0.4950  0.7152  1.4276
10953TIP3   OH254273   3.596   0.506   0.931 -0.2502  1.0303 -0.4618
10953TIP3    H154274   3.673   0.463   0.892  0.3046 -1.1067  2.5539
10953TIP3    H254275   3.608   0.599   0.913  0.1591  0.3470 -4.6762
10954TIP3   OH254276   5.656   6.785   1.227  0.0957 -0.0554 -0.4285
10954TIP3    H154277   5.671   6.865   1.176 -0.9045 -1.0629 -2.3729
10954TIP3    H254278   5.588   6.809   1.289  2.0131  1.4717  1.2499
10955TIP3   OH254279   5.559   5.578   0.980 -0.4621  0.9683  0.0063
10955TIP3    H154280   5.542   5.543   0.893 -2.0012  1.9043 -0.1071
10955TIP3    H254281   5.518   5.516   1.040  0.8273  0.1803  0.1260
10956TIP3   OH254282   5.233   0.662   2.031  0.1439 -0.1346  0.3793
10956TIP3    H154283   5.200   0.585   2.077  2.6213 -0.1633  2.3056
10956TIP3    H254284   5.157   0.719   2.023 -1.1481 -1.6258  1.3411
10957TIP3   OH254285   6.792   4.590   4.493  0.2942 -0.1164  0.4260
10957TIP3    H154286   6.881   4.557   4.494 -0.0921 -1.2106  1.5104
10957TIP3    H254287   6.765   4.589   4.585  0.0012  2.6130  0.4474
10958TIP3   OH254288   1.624   6.169  16.028 -0.1799 -0.0138  0.1262
10958TIP3    H154289   1.686   6.100  16.004  0.9400  0.9661  0.1327
10958TIP3    H254290   1.621   6.226  15.951 -0.7575  0.1842  0.2908
10959TIP3   OH254291   3.105   2.588  11.826  0.0029  0.3694  1.1121
10959TIP3    H154292   3.115   2.672  11.871 -0.4197  1.5463 -0.8318
10959TIP3    H254293   3.194   2.554  11.817  0.3453  1.3454  0.6722
10960TIP3   OH254294   5.517   3.556  13.120  0.2723 -0.2866 -0.7349
10960TIP3    H154295   5.550   3.644  13.133  0.0111 -0.1828 -0.7725
10960TIP3    H254296   5.595   3.503  13.104  0.6636 -0.4527  1.3565
10961TIP3   OH254297   5.484   3.610   1.469 -0.2517 -0.1078 -0.0003
10961TIP3    H154298   5.427   3.563   1.530 -1.0666 -0.6819 -1.1773
10961TIP3    H254299   5.538   3.541   1.430  0.4937  0.2984  0.3030
10962TIP3   OH254300   4.158   0.829  11.259 -0.2553 -1.0441  0.3761
10962TIP3    H154301   4.210   0.909  11.262 -1.2690 -0.4082  1.9617
10962TIP3    H254302   4.185   0.786  11.177  1.3947  0.1479  0.2537
10963TIP3   OH254303   5.749   5.534   3.390  1.1704 -0.1944 -0.3681
10963TIP3    H154304   5.654   5.544   3.387  1.2058  0.7055  0.9968
10963TIP3    H254305   5.782   5.611   3.344  1.2616  1.1655  1.8514
10964TIP3   OH254306   3.998   0.184   6.239 -0.2452 -0.2395 -0.2027
10964TIP3    H154307   3.929   0.144   6.185 -0.2725 -1.2249  0.5384
10964TIP3    H254308   3.990   0.278   6.221  0.5690 -0.5953 -2.8895
10965TIP3   OH254309   2.687   3.035  12.524 -0.2440  0.6116  0.1819
10965TIP3    H154310   2.600   3.032  12.485 -1.1363 -2.3571  1.9899
10965TIP3    H254311   2.747   3.034  12.450 -1.7171  2.3427 -1.1000
10966TIP3   OH254312   5.465   1.998  16.969 -0.0833 -0.4478  0.2033
10966TIP3    H154313   5.461   1.906  16.995 -0.4451  0.0944  2.2229
10966TIP3    H254314   5.385   2.013  16.918 -0.4634 -1.0243  0.6335
10967TIP3   OH254315   1.719   1.335   2.492  0.4897  0.6809  0.0624
10967TIP3    H154316   1.669   1.266   2.536  0.6523  0.2782 -0.3711
10967TIP3    H254317   1.766   1.289   2.421  3.7365  0.4726  2.1447
10968TIP3   OH254318   1.031   0.814  14.585  0.0673  0.2823  0.6889
10968TIP3    H154319   0.977   0.892  14.596 -3.8760 -1.4052 -3.5705
10968TIP3    H254320   0.975   0.742  14.613  1.4895 -1.4046 -0.5990
10969TIP3   OH254321   5.044   1.123   3.370 -0.2916  0.2479  0.3005
10969TIP3    H154322   5.014   1.035   3.392  0.6295  0.0278  0.7150
10969TIP3    H254323   4.967   1.166   3.332 -0.6287 -0.8623 -0.2974
10970TIP3   OH254324   4.914   4.130  13.498  0.2044 -0.2585  0.0983
10970TIP3    H154325   4.958   4.187  13.435  0.1397 -0.1595  0.1421
10970TIP3    H254326   4.821   4.149  13.486 -0.0427 -2.3449 -1.8231
10971TIP3   OH254327   4.900   2.405   5.232  0.2504  0.0358  0.2980
10971TIP3    H154328   4.906   2.345   5.157  0.7795 -0.0989  0.4411
10971TIP3    H254329   4.989   2.407   5.268  0.0465  0.2613  0.7991
10972TIP3   OH254330   4.085   1.795   4.219 -0.1359  0.7694 -0.3235
10972TIP3    H154331   4.141   1.833   4.152  2.9489 -0.8928  1.1198
10972TIP3    H254332   4.051   1.871   4.268  2.2443  1.8536 -0.2327
10973TIP3   OH254333   1.281   0.395   5.733 -0.4616  0.3989 -0.5775
10973TIP3    H154334   1.207   0.361   5.783  1.3904 -2.5113  0.4624
10973TIP3    H254335   1.268   0.361   5.645 -0.7957  0.6654 -0.6345
10974TIP3   OH254336   5.302   0.038   2.933 -0.1583  0.6393  0.5078
10974TIP3    H154337   5.250   0.111   2.900  0.5911  0.9659  0.0108
10974TIP3    H254338   5.389   0.051   2.894 -0.0153 -0.5322  0.3768
10975TIP3   OH254339   0.318   4.141   3.995 -0.4448  0.4982 -0.1970
10975TIP3    H154340   0.295   4.128   3.903 -0.7721  1.0939 -0.2079
10975TIP3    H254341   0.338   4.235   4.002  1.7774  0.0857 -0.1289
10976TIP3   OH254342   5.942   3.002   2.095 -0.7760  0.5441 -0.3446
10976TIP3    H154343   5.852   2.977   2.115 -0.0556 -1.4508  0.6317
10976TIP3    H254344   5.988   2.993   2.179  0.7371 -0.4806 -1.2507
10977TIP3   OH254345   3.717   3.261   1.599  0.4748 -0.7887  0.1146
10977TIP3    H154346   3.633   3.263   1.645 -0.0543 -0.8761 -0.8161
10977TIP3    H254347   3.720   3.175   1.559  0.1753 -0.1637 -1.3259
10978TIP3   OH254348   1.164   5.751   2.421 -0.0334 -0.1211 -0.0399
10978TIP3    H154349   1.248   5.797   2.412  0.1450 -0.5860 -0.8737
10978TIP3    H254350   1.148   5.749   2.515  1.2332 -0.5945  0.1952
10979TIP3   OH254351   2.148   3.560   3.198  0.4940 -0.4890 -0.1979
10979TIP3    H154352   2.210   3.607   3.142 -0.1616  2.2639  1.2222
10979TIP3    H254353   2.159   3.599   3.285 -0.6806 -2.4866  0.9313
10980TIP3   OH254354   3.441   5.641  12.595 -0.3285 -0.2045 -0.1711
10980TIP3    H154355   3.423   5.693  12.673 -0.4033 -0.5800  0.0666
10980TIP3    H254356   3.516   5.684  12.553  1.5521 -1.5547  1.6071
10981TIP3   OH254357   0.864   5.259  13.057  0.0816 -0.2709 -0.2961
10981TIP3    H154358   0.931   5.225  13.115  0.8989 -1.2343 -1.7697
10981TIP3    H254359   0.825   5.332  13.106  0.0365 -1.6711  1.8563
10982TIP3   OH254360   0.448   0.982   1.596  0.1504 -0.0847  0.1332
10982TIP3    H154361   0.528   1.012   1.639  0.5849 -0.7832 -0.1733
10982TIP3    H254362   0.470   0.894   1.564 -0.9426 -0.5385  0.5957
10983TIP3   OH254363   5.619   0.288  15.088 -0.5826  0.5724  0.4228
10983TIP3    H154364   5.529   0.256  15.098 -0.7741  1.1188  0.4610
10983TIP3    H254365   5.661   0.268  15.171  0.2549 -2.5197 -0.5910
10984TIP3   OH254366   6.784   2.855  11.834  0.0698 -0.0948  0.0624
10984TIP3    H154367   6.787   2.882  11.743  0.1129 -0.6627 -0.1066
10984TIP3    H254368   6.723   2.782  11.836  0.7567 -0.6796  0.3268
10985TIP3   OH254369   0.542   1.550  12.817 -0.0608 -0.1353 -0.6385
10985TIP3    H154370   0.461   1.573  12.862 -0.0719 -0.7797 -0.3125
10985TIP3    H254371   0.598   1.628  12.826  0.5016 -0.7232  1.7893
10986TIP3   OH254372   3.912   3.962   0.775  0.2020 -0.1605 -0.4895
10986TIP3    H154373   3.942   4.039   0.822 -0.1315  0.7179 -1.6525
10986TIP3    H254374   3.821   3.952   0.801  0.2822 -0.2464 -0.2374
10987TIP3   OH254375   5.479   0.337  15.902 -0.4381  0.0403 -0.0756
10987TIP3    H154376   5.464   0.429  15.880  1.4953  0.0805 -1.5586
10987TIP3    H254377   5.470   0.333  15.997  0.2868  1.9512  0.1243
10988TIP3   OH254378   1.383   5.987   4.290  0.0957  0.3694  0.0500
10988TIP3    H154379   1.383   5.914   4.229 -1.1761 -1.9864  2.6349
10988TIP3    H254380   1.291   6.000   4.312  0.5000  1.2201  1.3701
10989TIP3   OH254381   0.872   2.450  16.510  0.1271 -0.4319 -0.4513
10989TIP3    H154382   0.827   2.480  16.431 -0.0878  0.2356 -0.0871
10989TIP3    H254383   0.828   2.368  16.533  0.3334 -0.7426 -1.1345
10990TIP3   OH254384   3.545   6.018  13.708 -0.1254 -0.7040 -0.2650
10990TIP3    H154385   3.625   5.990  13.753 -0.9890 -1.2150  1.0271
10990TIP3    H254386   3.525   5.947  13.648  1.4120  0.2827 -2.0451
10991TIP3   OH254387   1.308   3.838   3.992 -0.3711  0.7873  0.1240
10991TIP3    H154388   1.330   3.782   3.918 -1.2136  0.8674 -0.2014
10991TIP3    H254389   1.376   3.906   3.991  1.5765 -1.0229  1.4605
10992TIP3   OH254390   2.932   3.925   3.933 -0.0993  0.2213 -0.1378
10992TIP3    H154391   2.906   3.913   4.024 -0.6054 -1.7907 -0.4898
10992TIP3    H254392   2.934   4.020   3.921 -0.3163  0.5338  1.8643
10993TIP3   OH254393   1.169   6.116   2.216  0.0841 -0.2846  0.2032
10993TIP3    H154394   1.132   6.160   2.292  1.5321  0.8967  0.2701
10993TIP3    H254395   1.115   6.146   2.142 -0.8676 -0.8708  0.6372
10994TIP3   OH254396   3.606   5.293  10.409 -0.8921 -0.2525  0.2789
10994TIP3    H154397   3.583   5.302  10.317 -0.8246  0.7564  0.3560
10994TIP3    H254398   3.698   5.318  10.414 -0.6179 -1.2370  0.4795
10995TIP3   OH254399   2.769   1.586  16.624 -0.1125 -0.1896 -0.1132
10995TIP3    H154400   2.778   1.498  16.586  0.1609 -0.6904  1.0745
10995TIP3    H254401   2.858   1.611  16.649 -0.2480  0.2590 -0.0695
10996TIP3   OH254402   2.169   3.962  11.935  0.3779 -0.1667  0.1590
10996TIP3    H154403   2.117   4.042  11.934 -1.2633 -1.0811  2.4412
10996TIP3    H254404   2.118   3.899  11.885  0.1064 -0.6169  0.9928
10997TIP3   OH254405   4.714   4.925   1.820 -0.2449  0.1364 -0.2344
10997TIP3    H154406   4.799   4.886   1.842  0.7695  1.1896 -2.0714
10997TIP3    H254407   4.684   4.963   1.903  2.6142  2.5047 -0.1060
10998TIP3   OH254408   4.435   6.546   0.130 -0.0347  0.0363 -0.2083
10998TIP3    H154409   4.423   6.525   0.037 -0.2851  0.0896 -0.1892
10998TIP3    H254410   4.410   6.638   0.138 -0.9669 -0.2218  0.0801
10999TIP3   OH254411   4.048   2.804   4.440  0.2660 -0.4040  0.5087
10999TIP3    H154412   3.985   2.736   4.462 -0.2019  0.3703  1.6150
10999TIP3    H254413   4.000   2.886   4.449  1.0710  0.1295  0.0789
11000TIP3   OH254414   3.835   0.797  11.913  0.6210  0.7061 -0.9340
11000TIP3    H154415   3.788   0.795  11.996  2.2157 -0.2689  0.0007
11000TIP3    H254416   3.821   0.886  11.880  0.5614  1.3680  0.7580
11001TIP3   OH254417   2.698   6.803  14.482 -0.1757 -0.0956 -0.5383
11001TIP3    H154418   2.641   6.875  14.458  0.9654  1.2850  0.7102
11001TIP3    H254419   2.783   6.844  14.499  0.3613 -1.6432  0.7826
11002TIP3   OH254420   5.998   5.934  12.410 -0.3282  0.1980  0.4487
11002TIP3    H154421   5.906   5.958  12.422 -0.4066 -0.0565  0.3491
11002TIP3    H254422   6.001   5.840  12.427 -0.6953 -0.5167 -2.8785
11003TIP3   OH254423   2.324   3.912   1.988  0.2376 -0.4825  0.8324
11003TIP3    H154424   2.252   3.851   2.006  0.5405 -1.1653 -0.1483
11003TIP3    H254425   2.347   3.895   1.896  0.5190  0.9260  0.6235
11004TIP3   OH254426   4.884   3.903   3.287 -0.0679  0.3424 -0.3915
11004TIP3    H154427   4.822   3.914   3.358  0.8295 -1.3157  0.7451
11004TIP3    H254428   4.854   3.824   3.241  0.1905  0.5519 -0.9278
11005TIP3   OH254429   4.947   6.364  15.211  0.2945 -0.2475  0.1228
11005TIP3    H154430   5.037   6.360  15.179  0.3691  0.5365  0.2261
11005TIP3    H254431   4.899   6.412  15.144  0.4758  1.5027  1.1853
11006TIP3   OH254432   4.058   1.902   0.423 -0.5128 -0.1597 -0.2583
11006TIP3    H154433   3.984   1.909   0.484  0.3747 -0.8083  0.9327
11006TIP3    H254434   4.092   1.813   0.437  1.0332  0.4257 -0.1204
11007TIP3   OH254435   3.162   5.071  14.849 -0.1430 -0.0885  0.0689
11007TIP3    H154436   3.199   5.140  14.795  1.1376  0.0012  1.0256
11007TIP3    H254437   3.094   5.114  14.900  0.5889  0.4542  0.5963
11008TIP3   OH254438   1.724   2.149   2.078  0.1280  0.2386 -0.1536
11008TIP3    H154439   1.658   2.206   2.039  0.0684 -0.3092 -0.8916
11008TIP3    H254440   1.706   2.150   2.171 -0.3949  0.7534 -0.2569
11009TIP3   OH254441   4.984   4.860   5.830 -0.0745  0.4410 -0.3681
11009TIP3    H154442   4.934   4.940   5.844  1.0586  0.9015  1.2637
11009TIP3    H254443   5.041   4.853   5.907 -1.5365 -2.9938  0.5794
11010TIP3   OH254444   1.165   0.378   4.268  0.0201  0.4868  0.2354
11010TIP3    H154445   1.159   0.335   4.182 -0.5955  0.5423  0.2480
11010TIP3    H254446   1.135   0.468   4.252 -0.7807  0.3009  0.6479
11011TIP3   OH254447   2.459   2.877  13.277 -0.0411 -0.3365 -0.4316
11011TIP3    H154448   2.515   2.911  13.207 -0.2075 -0.8266 -0.8139
11011TIP3    H254449   2.446   2.785  13.254  0.3563 -0.6433  0.5491
11012TIP3   OH254450   5.183   1.614   2.404 -0.5925  0.1449  0.1039
11012TIP3    H154451   5.116   1.553   2.437 -0.5493  0.4815  0.8378
11012TIP3    H254452   5.193   1.678   2.475  1.5723 -0.7234  0.6611
11013TIP3   OH254453   1.276   0.873  15.611  0.1801  0.4325 -0.0647
11013TIP3    H154454   1.360   0.910  15.639  1.5753 -1.7189 -1.1294
11013TIP3    H254455   1.275   0.786  15.649 -0.9658 -0.0646 -1.1913
11014TIP3   OH254456   3.326   4.852   0.794 -0.0642  0.0367 -0.7676
11014TIP3    H154457   3.272   4.905   0.853 -1.2048 -0.8772 -0.9594
11014TIP3    H254458   3.303   4.762   0.815 -0.7527 -0.3050 -2.8149
11015TIP3   OH254459   6.129   6.082  13.945  0.9077  0.0604  0.4898
11015TIP3    H154460   6.188   6.083  13.870  0.5222  3.0548  0.1132
11015TIP3    H254461   6.042   6.096  13.907  0.1434 -2.1569  1.2334
11016TIP3   OH254462   4.521   4.727  15.800  0.3282 -0.1712  0.1568
11016TIP3    H154463   4.558   4.664  15.861  1.1390 -0.7637 -0.9336
11016TIP3    H254464   4.529   4.686  15.714  1.4213  1.6391 -0.6583
11017TIP3   OH254465   6.745   1.682   2.224 -0.3106  0.9289  0.3439
11017TIP3    H154466   6.659   1.657   2.189 -0.4616  0.6318  0.9025
11017TIP3    H254467   6.735   1.774   2.246 -0.6785  0.7579  0.9332
11018TIP3   OH254468   4.247   4.475   2.625  0.0805 -0.4366  0.7647
11018TIP3    H154469   4.169   4.456   2.572  1.6938 -0.2060 -1.8337
11018TIP3    H254470   4.293   4.543   2.577  1.9815 -0.6500  2.1635
11019TIP3   OH254471   4.828   3.664   0.280 -0.4072 -0.3909 -0.1087
11019TIP3    H154472   4.835   3.689   0.188  0.8477 -2.8110 -0.7287
11019TIP3    H254473   4.734   3.664   0.297 -0.6151  1.3698 -0.9508
11020TIP3   OH254474   5.196   1.786   1.186  0.2114 -1.0048  0.7167
11020TIP3    H154475   5.284   1.772   1.152  0.9056  1.2375  1.4212
11020TIP3    H254476   5.201   1.870   1.231 -2.8533  0.3838 -1.2292
11021TIP3   OH254477   2.647   4.447  13.951  0.0950 -0.0907  0.4037
11021TIP3    H154478   2.708   4.380  13.981  0.0970  0.2679  1.2396
11021TIP3    H254479   2.564   4.425  13.994  0.4905  1.3541  2.0502
11022TIP3   OH254480   0.465   5.390  16.468  0.0462 -0.2345  0.4975
11022TIP3    H154481   0.466   5.422  16.558 -1.0068 -2.1388  1.2446
11022TIP3    H254482   0.373   5.379  16.446  0.3198 -2.2479  0.1562
11023TIP3   OH254483   0.089   6.080  13.616  0.0976  0.1254 -0.1347
11023TIP3    H154484   0.090   5.987  13.640  0.5619 -0.6643 -2.8719
11023TIP3    H254485   0.182   6.104  13.612  0.1497 -0.2203 -2.3752
11024TIP3   OH254486   1.200   2.557   4.040  0.6773  0.2268  0.5031
11024TIP3    H154487   1.135   2.526   3.976  0.8631 -1.2642  0.9886
11024TIP3    H254488   1.152   2.564   4.122  0.8128  0.5049  0.5588
11025TIP3   OH254489   6.278   0.547   4.081  0.5977 -0.2663  0.6101
11025TIP3    H154490   6.293   0.637   4.053  0.5868 -0.6397 -0.6191
11025TIP3    H254491   6.333   0.493   4.024 -1.2742 -1.2304 -0.3819
11026TIP3   OH254492   0.473   5.885   5.377 -0.1932  0.4013 -0.0144
11026TIP3    H154493   0.478   5.793   5.348  0.2608  0.3845  0.1116
11026TIP3    H254494   0.540   5.892   5.445 -1.9769  0.1460  1.8621
11027TIP3   OH254495   0.193   2.494   0.877 -0.1765  0.3831  0.0783
11027TIP3    H154496   0.266   2.463   0.823  0.3570 -1.0171  1.5025
11027TIP3    H254497   0.197   2.589   0.870  0.6754  0.2733 -1.2861
11028TIP3   OH254498   0.932   2.035  10.465  0.5096  0.3968 -0.3908
11028TIP3    H154499   1.011   2.037  10.411  2.6756  0.1790  2.4862
11028TIP3    H254500   0.898   1.946  10.454  1.3251  0.1264 -0.8381
11029TIP3   OH254501   3.150   4.824   2.634 -0.2059 -0.1176  0.2853
11029TIP3    H154502   3.232   4.872   2.625 -0.0940 -0.3941 -0.2039
11029TIP3    H254503   3.143   4.805   2.728  0.3849 -0.2658  0.3033
11030TIP3   OH254504   1.304   2.653  15.885 -0.2004  1.0095 -0.2245
11030TIP3    H154505   1.286   2.657  15.791 -1.8033  0.8026  0.0400
11030TIP3    H254506   1.337   2.564  15.900 -0.4135  0.8791 -0.5181
11031TIP3   OH254507   5.120   5.018   4.324 -0.4862  0.3261 -0.1695
11031TIP3    H154508   5.181   4.952   4.291 -0.0016  1.0924 -0.8399
11031TIP3    H254509   5.140   5.025   4.417  0.3113  0.4087 -0.3388
11032TIP3   OH254510   5.547   4.877   1.163  0.2213 -0.0455  0.0677
11032TIP3    H154511   5.511   4.804   1.112 -1.8782  0.7160  0.3308
11032TIP3    H254512   5.478   4.896   1.227  1.4519  1.0816  1.0935
11033TIP3   OH254513   2.994   1.399   0.583  0.2802 -0.0403 -0.1749
11033TIP3    H154514   3.010   1.309   0.555  1.3446  0.5724 -1.6821
11033TIP3    H254515   2.950   1.440   0.509  0.4727  0.8764  0.2063
11034TIP3   OH254516   0.369   2.356   0.097  0.3307 -0.4125  0.0354
11034TIP3    H154517   0.301   2.422   0.108  1.2547  0.6080 -0.1650
11034TIP3    H254518   0.339   2.281   0.150 -0.5860  0.2758  0.5145
11035TIP3   OH254519   3.494   5.283   2.823  0.0409  0.2749 -0.0059
11035TIP3    H154520   3.491   5.195   2.786  0.5643  0.1782  0.1640
11035TIP3    H254521   3.582   5.315   2.801  0.1436  0.4412  0.6205
11036TIP3   OH254522   4.429   1.694   1.125 -0.0395 -0.4193  0.2029
11036TIP3    H154523   4.405   1.619   1.070 -0.4089 -0.8321  0.9128
11036TIP3    H254524   4.524   1.690   1.129 -0.0881 -1.4216  0.9805
11037TIP3   OH254525   6.084   5.675   4.491 -0.1224  0.0565 -0.6867
11037TIP3    H154526   6.020   5.742   4.467  1.1904  1.1506 -1.2864
11037TIP3    H254527   6.093   5.621   4.413  0.0547  0.2188 -0.7801
11038TIP3   OH254528   6.531   1.353   0.371  0.0541  0.0013 -0.6128
11038TIP3    H154529   6.557   1.437   0.335 -1.2134  1.7214  2.0837
11038TIP3    H254530   6.504   1.373   0.461 -1.8660 -3.0051 -0.3532
11039TIP3   OH254531   5.030   1.880  16.849  0.4081 -0.0997 -0.2499
11039TIP3    H154532   5.031   1.883  16.945  0.1448  1.1734 -0.2742
11039TIP3    H254533   4.957   1.936  16.824  2.1938  1.9049 -1.2634
11040TIP3   OH254534   3.019   3.279   0.849 -0.4070 -0.3193  0.6636
11040TIP3    H154535   2.939   3.329   0.838 -0.2510 -0.3600 -0.7705
11040TIP3    H254536   2.990   3.191   0.873 -0.7377 -0.0259  1.3586
11041TIP3   OH254537   6.723   4.395   5.579 -0.4768 -0.4993  0.2712
11041TIP3    H154538   6.726   4.405   5.674  1.1207 -2.0317  0.4286
11041TIP3    H254539   6.680   4.311   5.566 -0.5148 -0.3830 -0.3697
11042TIP3   OH254540   6.601   1.607   0.970  0.1407 -0.1076  0.5086
11042TIP3    H154541   6.518   1.562   0.988 -0.2143 -0.2721 -1.3353
11042TIP3    H254542   6.603   1.616   0.874  2.4850 -0.5358  0.4633
11043TIP3   OH254543   0.252   3.409   3.503 -0.1543  0.0529 -0.2410
11043TIP3    H154544   0.240   3.328   3.452 -1.1840 -0.6502  1.0565
11043TIP3    H254545   0.292   3.379   3.585  0.6633  1.0545 -0.2508
11044TIP3   OH254546   5.231   6.121   5.924  0.4718 -0.5837  0.7008
11044TIP3    H154547   5.185   6.096   5.844 -1.0911 -0.1854  1.4316
11044TIP3    H254548   5.205   6.212   5.940  1.8276 -0.2195  0.9574
11045TIP3   OH254549   1.770   2.447   2.306 -0.6384  0.1429 -0.7721
11045TIP3    H154550   1.824   2.457   2.384 -2.3918  1.9241  0.2882
11045TIP3    H254551   1.831   2.460   2.233  0.8745 -0.7546  0.2807
11046TIP3   OH254552   1.426   2.955   0.725 -0.4475  0.0692  0.3642
11046TIP3    H154553   1.505   3.002   0.698 -0.9842 -0.3735 -2.2726
11046TIP3    H254554   1.459   2.877   0.771  0.6819 -0.0761 -0.6281
11047TIP3   OH254555   3.560   5.331  13.821  0.2630  0.2290 -0.1719
11047TIP3    H154556   3.607   5.343  13.903 -0.5389 -0.9861  0.4957
11047TIP3    H254557   3.477   5.378  13.834 -0.7682 -1.6766  0.5665
11048TIP3   OH254558   4.150   5.365   5.217  0.1911 -0.2458  0.1102
11048TIP3    H154559   4.179   5.449   5.181 -0.7300 -0.0716 -0.2561
11048TIP3    H254560   4.175   5.368   5.309 -0.5441  0.7780  0.2952
11049TIP3   OH254561   1.505   5.675  13.958 -0.1140  0.7778  0.1192
11049TIP3    H154562   1.467   5.681  13.870 -0.6272 -2.0240  0.0333
11049TIP3    H254563   1.430   5.665  14.016  0.2989  0.1682  0.5622
11050TIP3   OH254564   5.058   6.151   4.096  0.6011  0.3582  0.2296
11050TIP3    H154565   5.026   6.175   4.183  2.1716  0.5795  0.7852
11050TIP3    H254566   5.027   6.061   4.083  0.2173  0.3776  0.9459
11051TIP3   OH254567   3.923   4.159  15.229  0.2461 -0.1598 -0.1672
11051TIP3    H154568   3.861   4.188  15.162 -0.6587  1.4710  1.2883
11051TIP3    H254569   3.896   4.069  15.249 -1.5837  0.4565  0.3057
11052TIP3   OH254570   3.609   2.944   5.242  0.0384  0.2472  0.3075
11052TIP3    H154571   3.698   2.917   5.217  0.1082 -1.5253  2.1387
11052TIP3    H254572   3.619   3.034   5.273  1.4810 -0.3229  1.6213
11053TIP3   OH254573   2.729   0.702  10.549  0.6941  0.3118 -0.2298
11053TIP3    H154574   2.727   0.648  10.629 -0.8034 -0.8475 -1.0027
11053TIP3    H254575   2.779   0.649  10.487  0.3644  0.4100 -0.5811
11054TIP3   OH254576   5.529   3.072   2.078 -0.1001  0.0910  0.0251
11054TIP3    H154577   5.521   3.167   2.072  0.0349  0.0580 -0.7684
11054TIP3    H254578   5.460   3.038   2.020  1.0743 -0.2638 -1.2174
11055TIP3   OH254579   1.500   3.566  15.641  0.3547 -0.5778 -0.5103
11055TIP3    H154580   1.494   3.626  15.716  0.7498 -0.2514 -0.7321
11055TIP3    H254581   1.410   3.538  15.625  0.3587 -1.2945  0.5959
11056TIP3   OH254582   2.809   4.137   3.749  0.0678  0.5077 -0.7061
11056TIP3    H154583   2.777   4.221   3.719  3.4395  3.7028  3.3512
11056TIP3    H254584   2.894   4.126   3.707  0.5831  0.2195  0.3709
11057TIP3   OH254585   3.723   5.039   0.131  0.5031 -0.1562  0.4340
11057TIP3    H154586   3.660   5.110   0.120  1.0957  0.4466  0.8292
11057TIP3    H254587   3.677   4.974   0.184 -1.1020 -1.4646 -2.3250
11058TIP3   OH254588   0.931   3.849  14.344  0.3987  0.1499  0.2052
11058TIP3    H154589   0.859   3.834  14.405 -0.7247  1.0539 -0.8572
11058TIP3    H254590   0.953   3.762  14.311 -0.3125 -0.1181  0.4190
11059TIP3   OH254591   3.429   3.546  14.781  0.0381  0.6738 -0.2270
11059TIP3    H154592   3.366   3.491  14.734  0.8425 -0.3066 -0.1847
11059TIP3    H254593   3.409   3.635  14.753 -1.8132  0.4677  0.2911
11060TIP3   OH254594   5.481   6.409   3.572 -0.1157 -0.3273  0.3550
11060TIP3    H154595   5.530   6.464   3.633 -0.7928 -1.1463  1.6865
11060TIP3    H254596   5.504   6.320   3.597 -3.3299 -0.8318  2.0570
11061TIP3   OH254597   4.516   5.780  15.731  0.2091 -0.3622  0.3468
11061TIP3    H154598   4.494   5.693  15.697 -1.2138  0.8938 -2.2168
11061TIP3    H254599   4.562   5.823  15.658  0.6932  1.1159  1.4866
11062TIP3   OH254600   6.338   0.244  16.721 -0.0157 -0.4948  0.0326
11062TIP3    H154601   6.305   0.170  16.772  1.0421 -0.9818  0.0339
11062TIP3    H254602   6.431   0.249  16.744  0.1491  0.1851 -0.7501
11063TIP3   OH254603   5.327   0.878  11.098  0.0742 -0.1568  0.9228
11063TIP3    H154604   5.249   0.858  11.150  0.3014  0.4636  1.5081
11063TIP3    H254605   5.323   0.817  11.025 -0.4854 -0.7371  1.4314
11064TIP3   OH254606   0.954   3.730  12.144  0.4035  0.4200  0.3388
11064TIP3    H154607   0.876   3.679  12.165 -1.0793  2.0123 -1.0153
11064TIP3    H254608   0.983   3.766  12.227  0.9719 -1.7999  1.1921
11065TIP3   OH254609   6.370   6.066  14.657  0.1389  0.1361 -0.8116
11065TIP3    H154610   6.408   6.020  14.581 -2.4323 -0.2911 -1.9490
11065TIP3    H254611   6.445   6.110  14.697  1.7185  0.0206 -3.3389
11066TIP3   OH254612   3.902   2.718   3.245  0.4076  0.1786  0.2411
11066TIP3    H154613   3.950   2.794   3.211  0.3934 -0.1994 -0.6440
11066TIP3    H254614   3.877   2.744   3.334 -0.1646  1.4636 -0.2690
11067TIP3   OH254615   0.721   4.818  13.248 -0.0152 -0.6199  0.1819
11067TIP3    H154616   0.741   4.911  13.236 -2.0125 -0.2854 -1.0144
11067TIP3    H254617   0.727   4.781  13.161  0.5363 -1.5932  0.6193
11068TIP3   OH254618   0.014   5.481   4.324 -0.3429 -1.0338  0.1920
11068TIP3    H154619  -0.063   5.527   4.356  0.0788 -0.4404  0.3747
11068TIP3    H254620   0.019   5.503   4.231 -0.2310 -0.8246  0.2452
11069TIP3   OH254621   1.668   5.994  15.559  0.6033  0.0957  0.0934
11069TIP3    H154622   1.578   5.964  15.570  0.4677 -0.4716 -2.0794
11069TIP3    H254623   1.722   5.918  15.578  0.6801  0.5656  1.8670
11070TIP3   OH254624   1.276   4.405   6.868  0.1227 -0.0132  0.1428
11070TIP3    H154625   1.276   4.310   6.856  0.3759 -0.1351  0.9756
11070TIP3    H254626   1.365   4.425   6.900 -0.7989  0.0434  3.0032
11071TIP3   OH254627   3.983   5.120   3.123 -0.5765  1.0303  0.5619
11071TIP3    H154628   3.952   5.117   3.032  1.2582 -1.2450 -0.1067
11071TIP3    H254629   4.055   5.183   3.121 -0.2397  0.6410  0.3207
11072TIP3   OH254630   6.424   1.902   4.284 -0.2540  0.0381  0.4271
11072TIP3    H154631   6.379   1.852   4.351 -1.8454  0.4366 -0.2988
11072TIP3    H254632   6.357   1.959   4.247  0.9179  0.8671 -0.5191
11073TIP3   OH254633   0.776   5.654  10.638  1.1971 -0.2442  0.4599
11073TIP3    H154634   0.791   5.719  10.708  0.8802  0.3634 -0.0305
11073TIP3    H254635   0.767   5.571  10.685 -0.1889  0.3149  1.2555
11074TIP3   OH254636   1.240   4.564  11.300 -0.2822  0.3736  0.1380
11074TIP3    H154637   1.236   4.468  11.299  1.1342  0.2807  0.5263
11074TIP3    H254638   1.249   4.588  11.207  0.4953  0.0435  0.1189
11075TIP3   OH254639   6.452   1.568   2.822 -0.5768  0.2709 -0.3049
11075TIP3    H154640   6.386   1.582   2.890 -0.4681 -1.2055  0.1376
11075TIP3    H254641   6.429   1.484   2.783  0.8935 -0.1572 -0.3088
11076TIP3   OH254642   3.537   4.915  16.231  0.4760  0.2366  0.3704
11076TIP3    H154643   3.449   4.950  16.219  1.4284  2.1778 -1.7015
11076TIP3    H254644   3.558   4.874  16.147  1.9338  0.8021  0.4264
11077TIP3   OH254645   2.611   1.923   4.517  0.7133 -0.1620  0.2966
11077TIP3    H154646   2.643   1.903   4.606 -1.6930 -1.0400  1.0398
11077TIP3    H254647   2.596   1.837   4.477 -1.1932  0.1628  0.2274
11078TIP3   OH254648   2.176   0.037   5.761  0.0339 -0.3446  0.8097
11078TIP3    H154649   2.223   0.062   5.682  1.6834  1.1453  2.1632
11078TIP3    H254650   2.097   0.091   5.761  0.2794  0.0118  0.4461
11079TIP3   OH254651   6.780   0.808   4.396  0.0609  0.3299  0.1146
11079TIP3    H154652   6.755   0.781   4.485  1.8964  1.3199  0.9912
11079TIP3    H254653   6.772   0.903   4.398  3.2896  0.6967  0.3580
11080TIP3   OH254654   0.858   0.530  16.494  0.0066  0.0737 -0.5649
11080TIP3    H154655   0.797   0.553  16.424  0.6814  1.3973 -0.7658
11080TIP3    H254656   0.942   0.518  16.449 -0.2726 -2.9839 -0.4716
11081TIP3   OH254657   0.133   0.785   0.167 -0.4128  1.0368 -0.3753
11081TIP3    H154658   0.116   0.691   0.171 -0.6833  1.0516 -0.9537
11081TIP3    H254659   0.144   0.812   0.258  0.4300  0.3102 -0.2551
11082TIP3   OH254660   3.530   0.909  11.703  0.5333  0.0049 -0.3363
11082TIP3    H154661   3.573   0.976  11.650 -1.5558  2.5283  0.9269
11082TIP3    H254662   3.559   0.927  11.792 -3.6718  2.6698  0.8104
11083TIP3   OH254663   0.856   0.117   5.942  0.5899  0.3146 -0.8865
11083TIP3    H154664   0.906   0.047   5.901  3.9015  2.6291 -1.2044
11083TIP3    H254665   0.863   0.099   6.036  0.9424 -0.0837 -0.9854
11084TIP3   OH254666   6.235   2.013  11.152 -0.8120  0.0523  0.6024
11084TIP3    H154667   6.207   1.955  11.223 -2.0345  0.7971  0.7492
11084TIP3    H254668   6.233   1.957  11.074 -0.1681 -0.5739  1.0130
11085TIP3   OH254669   2.596   3.761  16.644  0.1342  0.3610  0.5698
11085TIP3    H154670   2.559   3.674  16.656 -0.1313  0.2394 -1.0042
11085TIP3    H254671   2.672   3.748  16.588 -1.0178  1.3476 -1.2984
11086TIP3   OH254672   0.903   4.477  11.650  0.0774 -0.3120 -0.9630
11086TIP3    H154673   0.992   4.453  11.625  0.4261 -2.5523  1.8420
11086TIP3    H254674   0.847   4.427  11.592  0.6926 -0.3817 -1.5037
11087TIP3   OH254675   3.780   0.243   0.621  0.5522 -0.1792  0.1016
11087TIP3    H154676   3.700   0.289   0.595  0.4584 -0.9284 -0.9814
11087TIP3    H254677   3.849   0.309   0.615  0.2040  0.1674 -0.1065
11088TIP3   OH254678   1.393   5.842  11.254 -0.4397 -0.3383 -0.3789
11088TIP3    H154679   1.432   5.813  11.171  0.1814 -1.0793  0.1668
11088TIP3    H254680   1.304   5.806  11.252 -0.5799  0.0248 -0.9187
11089TIP3   OH254681   0.704   5.361   5.329 -0.1079 -0.3879  0.6688
11089TIP3    H154682   0.634   5.296   5.328  0.0087 -0.5556  1.8021
11089TIP3    H254683   0.784   5.310   5.342  0.4316 -0.3292 -1.8547
11090TIP3   OH254684   0.500   5.831  11.942  0.1367  0.0310  0.1195
11090TIP3    H154685   0.581   5.826  11.891  0.5605 -0.5651  0.8262
11090TIP3    H254686   0.468   5.741  11.944  0.2183  0.0147  1.0365
11091TIP3   OH254687   2.850   2.742   4.030  0.0702 -0.4758  0.1436
11091TIP3    H154688   2.923   2.795   4.063 -0.9290  1.3205 -0.3878
11091TIP3    H254689   2.779   2.805   4.016 -1.1537 -1.9605 -0.6495
11092TIP3   OH254690   5.060   6.564   1.453 -0.3975 -0.0665  0.0204
11092TIP3    H154691   4.988   6.625   1.472 -1.0307 -0.8087  0.0265
11092TIP3    H254692   5.020   6.477   1.458  0.2109 -0.4376 -1.2494
11093TIP3   OH254693   5.002   3.810  11.378  0.1532 -0.1138  0.2271
11093TIP3    H154694   4.937   3.830  11.446 -0.6163 -2.0386  0.1175
11093TIP3    H254695   4.958   3.830  11.296  1.0404  2.0940  0.2357
11094TIP3   OH254696   6.077   3.703   1.893 -0.0254 -0.0870 -0.4243
11094TIP3    H154697   6.054   3.619   1.933  0.7905 -0.1295 -0.0129
11094TIP3    H254698   6.114   3.679   1.808 -0.9641 -0.0513 -0.8567
11095TIP3   OH254699   4.858   3.944  15.122 -0.0119 -0.1251  0.4442
11095TIP3    H154700   4.897   3.867  15.080  1.8773  0.5297  0.8932
11095TIP3    H254701   4.773   3.914  15.153 -0.4188 -1.3195 -1.6235
11096TIP3   OH254702   4.367   2.973  14.674 -0.1344 -0.3256 -0.6001
11096TIP3    H154703   4.274   2.974  14.694  0.0673 -0.0205  0.3703
11096TIP3    H254704   4.410   2.989  14.758  0.8494 -2.1699 -0.7033
11097TIP3   OH254705   5.863   2.340   1.191 -0.2478 -0.2509  0.8977
11097TIP3    H154706   5.825   2.257   1.161  0.8865 -0.5454  0.2035
11097TIP3    H254707   5.864   2.333   1.286 -0.9466 -0.6616  0.8858
11098TIP3   OH254708   2.957   2.668  15.843  0.5948  0.1562 -0.2122
11098TIP3    H154709   3.027   2.716  15.888  0.3310  1.5383 -1.2351
11098TIP3    H254710   2.944   2.715  15.761  1.0168 -2.2476 -1.7700
11099TIP3   OH254711   5.764   4.866  11.936  0.2137 -0.7177  0.1931
11099TIP3    H154712   5.800   4.786  11.899  0.2666 -0.5384 -0.1475
11099TIP3    H254713   5.722   4.910  11.862 -0.9435 -1.0505  0.6427
11100TIP3   OH254714   3.426   2.594   2.068  0.4427 -0.1950  0.1105
11100TIP3    H154715   3.512   2.560   2.045  1.1634  0.5320  1.6114
11100TIP3    H254716   3.403   2.651   1.995  1.1662 -0.4925 -0.3650
11101TIP3   OH254717   1.339   4.339  16.332 -0.3534  0.2421  0.0912
11101TIP3    H154718   1.359   4.428  16.305 -4.2747  1.2212 -0.1076
11101TIP3    H254719   1.360   4.285  16.256  1.2994  1.0089 -0.0473
11102TIP3   OH254720   1.876   3.128   4.054 -0.1239 -0.0965  0.0308
11102TIP3    H154721   1.861   3.055   3.994 -0.7387 -0.3010  0.4249
11102TIP3    H254722   1.864   3.091   4.141  0.8132  0.1908  0.2948
11103TIP3   OH254723   3.547   0.183   5.302  0.1470  0.1155 -0.5602
11103TIP3    H154724   3.594   0.241   5.362 -0.1228  1.2269 -1.3818
11103TIP3    H254725   3.592   0.099   5.308  1.4583  0.8068 -0.3938
11104TIP3   OH254726   1.014   0.884  12.170  0.1172  0.1974 -0.1450
11104TIP3    H154727   1.054   0.970  12.164  1.0001 -0.2820 -1.3781
11104TIP3    H254728   1.083   0.828  12.206 -0.5538  0.0552  0.9619
11105TIP3   OH254729   4.483   5.605   2.771  0.3636 -0.3223 -0.3462
11105TIP3    H154730   4.406   5.640   2.817 -0.1976 -0.8879 -0.8531
11105TIP3    H254731   4.552   5.604   2.838  0.1736  0.9609 -0.0997
11106TIP3   OH254732   1.584   5.284  13.805  0.1072 -0.0505  0.1624
11106TIP3    H154733   1.582   5.268  13.899 -0.4114 -0.6685  0.0478
11106TIP3    H254734   1.503   5.245  13.771 -0.4879  1.5422 -0.3309
11107TIP3   OH254735   6.085   2.173  14.067 -0.3201  0.1018 -0.3646
11107TIP3    H154736   6.176   2.194  14.085 -0.3264  0.4442 -0.6994
11107TIP3    H254737   6.073   2.084  14.099 -0.0450  0.2890  0.2780
11108TIP3   OH254738   0.215   2.465  13.865  0.1198 -0.0917  0.6893
11108TIP3    H154739   0.230   2.420  13.948  0.3930 -2.1785 -0.4340
11108TIP3    H254740   0.244   2.403  13.798  2.9565  2.7107 -0.9477
11109TIP3   OH254741   2.447   2.146  11.977  0.1162 -0.0298 -0.9007
11109TIP3    H154742   2.481   2.070  11.929  0.3403 -0.8240  0.4697
11109TIP3    H254743   2.467   2.127  12.069 -2.3975  0.3421 -0.2177
11110TIP3   OH254744   0.112   3.588  16.525 -0.0270  0.1207  0.3268
11110TIP3    H154745   0.087   3.611  16.615  0.9081  1.3972  0.2942
11110TIP3    H254746   0.194   3.540  16.535  0.1290  0.3489  0.1599
11111TIP3   OH254747   2.226   5.804   2.715 -0.3028  0.4419  0.7008
11111TIP3    H154748   2.191   5.788   2.628  0.2442  0.8378  0.3995
11111TIP3    H254749   2.292   5.734   2.728 -1.1125 -0.2477  1.2288
11112TIP3   OH254750   2.927   2.979   1.173  0.7845  0.1442 -0.1527
11112TIP3    H154751   2.969   2.987   1.259 -0.3248  0.5625  0.3756
11112TIP3    H254752   2.883   2.894   1.176 -0.4196  0.7534  0.2591
11113TIP3   OH254753   4.689   6.425  16.534  0.1785  0.2882 -0.3306
11113TIP3    H154754   4.637   6.430  16.614  0.1808 -0.2992 -0.2892
11113TIP3    H254755   4.763   6.484  16.549  0.1799  0.1755  0.0985
11114TIP3   OH254756   5.669   1.847   1.437  0.2353  0.6507  0.0906
11114TIP3    H154757   5.651   1.862   1.344 -3.1656  0.5016  0.5889
11114TIP3    H254758   5.633   1.761   1.455  3.0661 -0.4431  1.1402
11115TIP3   OH254759   1.254   6.376   4.902  0.2688 -0.3918 -0.1589
11115TIP3    H154760   1.191   6.433   4.947 -1.6808 -1.8760 -0.8810
11115TIP3    H254761   1.339   6.401   4.939 -0.5983  2.2643  0.2650
11116TIP3   OH254762   0.558   1.163  14.966 -0.8650 -0.0330 -0.5285
11116TIP3    H154763   0.538   1.224  14.895 -1.7880 -0.4656 -0.6514
11116TIP3    H254764   0.650   1.140  14.953 -0.9357  0.1572 -1.3756
11117TIP3   OH254765   5.818   2.476  10.587  0.0141  0.6046  0.2572
11117TIP3    H154766   5.895   2.476  10.530 -0.6524 -0.4572 -0.6809
11117TIP3    H254767   5.766   2.551  10.556 -1.3089 -1.0862 -1.9823
11118TIP3   OH254768   1.909   5.654  14.389 -0.4952  0.6036 -0.1144
11118TIP3    H154769   1.935   5.585  14.451  0.4560  0.8559 -0.2072
11118TIP3    H254770   1.863   5.607  14.319 -1.6601  0.3221  0.8007
11119TIP3   OH254771   1.685   4.074   0.638  0.2623 -0.1988 -0.0919
11119TIP3    H154772   1.710   3.984   0.658  0.1953 -0.3786 -0.8047
11119TIP3    H254773   1.703   4.084   0.545 -1.7478 -0.1637 -0.5296
11120TIP3   OH254774   4.091   5.112   2.808  0.1405 -0.0893 -0.1183
11120TIP3    H154775   4.157   5.147   2.869  1.0707 -0.2525 -1.0058
11120TIP3    H254776   4.057   5.035   2.852  1.5549 -0.8153 -0.2349
11121TIP3   OH254777   0.205   2.633   4.746 -0.1274  0.0285  0.3983
11121TIP3    H154778   0.265   2.557   4.747  1.0554  0.9136 -0.3328
11121TIP3    H254779   0.119   2.596   4.766  0.5830 -1.3627  1.0193
11122TIP3   OH254780   1.624   3.503  10.365  0.4012 -0.4136  0.5781
11122TIP3    H154781   1.603   3.590  10.332  2.2071 -0.3603 -0.5426
11122TIP3    H254782   1.560   3.488  10.435 -2.4089  0.2030 -1.6658
11123TIP3   OH254783   5.607   3.057  16.163  0.2403  0.1370  0.4960
11123TIP3    H154784   5.512   3.049  16.157  0.2033  1.1462 -0.5027
11123TIP3    H254785   5.623   3.083  16.254 -0.4247 -0.1878  0.7090
11124TIP3   OH254786   2.669   4.990   0.966  0.1347 -0.1686  0.1613
11124TIP3    H154787   2.654   4.897   0.979 -0.9934 -0.2374 -1.3581
11124TIP3    H254788   2.638   5.007   0.877 -1.4687  2.0148  1.0346
11125TIP3   OH254789   1.822   4.059   3.783 -0.5543 -0.3181 -0.2307
11125TIP3    H154790   1.834   4.079   3.876  0.7736 -1.3157 -0.1580
11125TIP3    H254791   1.778   3.975   3.782 -1.2746  0.0559 -0.5196
11126TIP3   OH254792   1.175   5.359   1.231 -0.3094 -0.1543 -0.2125
11126TIP3    H154793   1.176   5.264   1.243  1.1753 -0.2015 -0.5310
11126TIP3    H254794   1.087   5.386   1.257  0.1889 -1.2063  3.0921
11127TIP3   OH254795   5.526   0.598   0.803  0.3066 -0.4271  0.3652
11127TIP3    H154796   5.490   0.519   0.763  0.9480 -0.6616  0.2369
11127TIP3    H254797   5.594   0.627   0.743 -1.6137  1.7250 -0.9241
11128TIP3   OH254798   3.836   5.684   5.362  0.0167  0.1897  0.7211
11128TIP3    H154799   3.880   5.603   5.336 -1.1215 -0.6031  1.1702
11128TIP3    H254800   3.790   5.662   5.444 -0.2958  1.2886  0.8631
11129TIP3   OH254801   0.506   5.739  14.020  0.2068 -0.5927  0.2051
11129TIP3    H154802   0.479   5.803  13.954  1.7306 -0.0118  0.1255
11129TIP3    H254803   0.481   5.654  13.983 -0.3113 -0.1756 -0.4284
11130TIP3   OH254804   0.577   0.266   2.554  0.2353 -0.3096  0.4170
11130TIP3    H154805   0.636   0.203   2.597  2.5412  1.0608 -0.5818
11130TIP3    H254806   0.586   0.248   2.461 -0.4894  0.3354  0.2104
11131TIP3   OH254807   5.951   1.194   1.807 -0.1606  0.2374  0.0417
11131TIP3    H154808   5.976   1.106   1.780 -2.7549 -0.1316 -1.5344
11131TIP3    H254809   5.935   1.187   1.901 -2.0298 -1.5005 -0.3480
11132TIP3   OH254810   0.514   4.283  11.173  0.2447  0.3408 -0.0684
11132TIP3    H154811   0.490   4.375  11.172 -1.0571  0.0106 -1.5193
11132TIP3    H254812   0.497   4.252  11.085 -0.3257 -1.5362  0.6487
11133TIP3   OH254813   3.293   5.838   1.356  0.5018  0.7150  1.1477
11133TIP3    H154814   3.303   5.821   1.263 -1.5816  1.9418  0.6347
11133TIP3    H254815   3.352   5.776   1.398  0.1924 -1.0969 -0.9087
11134TIP3   OH254816   1.633   2.234   6.022 -0.5215  0.1722  0.3177
11134TIP3    H154817   1.687   2.246   5.944 -0.4659 -0.7633  0.2012
11134TIP3    H254818   1.670   2.293   6.087 -0.0030  0.2975 -0.0908
11135TIP3   OH254819   2.572   5.746  12.428 -0.6252 -0.1123 -0.0756
11135TIP3    H154820   2.651   5.739  12.374 -0.5617  0.3414 -0.0467
11135TIP3    H254821   2.573   5.668  12.482  0.2359  0.2793  0.4990
11136TIP3   OH254822   1.082   2.095  13.744 -0.2822 -0.6139 -0.2225
11136TIP3    H154823   1.158   2.056  13.701  0.2198  2.0494 -2.0097
11136TIP3    H254824   1.012   2.089  13.679 -0.8743 -0.7099  0.4136
11137TIP3   OH254825   5.284   2.476  14.339 -0.5845  0.1017  0.0185
11137TIP3    H154826   5.356   2.519  14.293  1.0338 -1.4915  0.9445
11137TIP3    H254827   5.259   2.539  14.408  1.8291 -0.3953  1.4430
11138TIP3   OH254828   3.304   0.261   1.139  0.3531 -0.5816 -0.2290
11138TIP3    H154829   3.385   0.234   1.096  0.7834  0.0668  0.1595
11138TIP3    H254830   3.324   0.346   1.178 -1.1195  0.6010 -1.8993
11139TIP3   OH254831   3.839   1.258  11.315  0.1157  0.1411  0.0672
11139TIP3    H154832   3.909   1.211  11.360 -0.5320 -2.0948 -1.0855
11139TIP3    H254833   3.766   1.259  11.377 -0.3073 -1.6855 -0.3347
11140TIP3   OH254834   2.018   0.596   0.442  0.0815  0.2576  0.4871
11140TIP3    H154835   1.985   0.683   0.464  0.8594  0.7896 -0.3564
11140TIP3    H254836   2.113   0.602   0.458 -0.0577 -0.9617  2.0436
11141TIP3   OH254837   2.681   4.121   4.022  0.7971  0.5880 -0.2933
11141TIP3    H154838   2.710   4.202   4.062  1.6024 -0.1023  0.5681
11141TIP3    H254839   2.744   4.104   3.952 -0.1528  1.3826 -1.3807
11142TIP3   OH254840   6.775   1.428  13.213 -0.7401 -0.4351  0.0963
11142TIP3    H154841   6.839   1.366  13.179 -0.0314 -0.5311  1.5158
11142TIP3    H254842   6.757   1.487  13.140 -0.1088 -1.2652 -0.7465
11143TIP3   OH254843   6.168   4.602  15.128 -0.2872  0.3246 -0.2918
11143TIP3    H154844   6.218   4.681  15.106 -1.1539  1.6989  2.2630
11143TIP3    H254845   6.231   4.548  15.177 -0.0784  0.0325 -0.8760
11144TIP3   OH254846   1.950   4.168  15.851  0.5437 -0.2195  0.2483
11144TIP3    H154847   2.022   4.142  15.907  2.4434 -0.7130 -2.2618
11144TIP3    H254848   1.963   4.262  15.837  0.9059 -0.3704 -0.4588
11145TIP3   OH254849   0.037   0.996   1.933 -0.1215 -0.3363  0.0499
11145TIP3    H154850  -0.049   1.029   1.907  0.4841  0.9251 -0.4690
11145TIP3    H254851   0.019   0.918   1.985 -1.7697  1.6208  2.7160
11146TIP3   OH254852   5.181   3.806  12.601  0.2851  0.2805 -0.5696
11146TIP3    H154853   5.169   3.869  12.530 -0.5703 -0.3371 -0.9909
11146TIP3    H254854   5.105   3.819  12.657  1.1699  1.0642  0.4931
11147TIP3   OH254855   3.827   0.113   5.998 -0.2801 -0.4888  0.0887
11147TIP3    H154856   3.752   0.056   5.979 -0.5595 -0.1943  0.3075
11147TIP3    H254857   3.848   0.153   5.914 -0.8899  0.0555  0.1859
11148TIP3   OH254858   1.985   4.955   6.645 -0.2457 -0.0145  0.2555
11148TIP3    H154859   1.942   5.013   6.707 -2.0435 -0.8581 -0.1461
11148TIP3    H254860   1.917   4.893   6.618  1.0342 -0.9608 -0.9741
11149TIP3   OH254861   3.420   6.464   2.471 -0.4264 -0.2252 -0.0557
11149TIP3    H154862   3.434   6.374   2.442  0.7742  0.0960 -0.5249
11149TIP3    H254863   3.455   6.465   2.560  0.4070 -0.0063 -0.3790
11150TIP3   OH254864   4.775   4.977   4.306  0.5563  0.0985  0.7918
11150TIP3    H154865   4.752   4.884   4.301  2.3680 -0.3286 -0.8813
11150TIP3    H254866   4.790   4.993   4.400  1.0890 -1.5305  1.0190
11151TIP3   OH254867   3.423   3.338   4.485  0.0400 -0.1087  0.3654
11151TIP3    H154868   3.442   3.426   4.515  3.8751 -0.0032 -1.7251
11151TIP3    H254869   3.473   3.281   4.543 -0.3453 -0.7246  0.1097
11152TIP3   OH254870   0.662   0.588  13.514 -0.2687  0.0542  0.0102
11152TIP3    H154871   0.658   0.589  13.419 -0.8891 -0.4621  0.0248
11152TIP3    H254872   0.737   0.531  13.534 -0.7705 -0.6848 -0.1677
11153TIP3   OH254873   1.422   6.245   2.418 -0.4689  0.0383 -0.1013
11153TIP3    H154874   1.398   6.224   2.508 -0.1126  1.7624  0.4441
11153TIP3    H254875   1.342   6.280   2.379  0.0372  1.9462  0.4590
11154TIP3   OH254876   1.132   3.379  13.656  0.0626 -0.1846  0.0207
11154TIP3    H154877   1.189   3.339  13.590 -0.4069  0.1716 -0.6078
11154TIP3    H254878   1.045   3.378  13.617  0.0544  1.5841 -0.0872
11155TIP3   OH254879   0.278   0.487   0.012 -0.0150 -0.4449 -0.5864
11155TIP3    H154880   0.238   0.503   0.098  0.8583  1.4100 -0.4845
11155TIP3    H254881   0.372   0.490   0.028  0.1657  0.3931 -1.6693
11156TIP3   OH254882   5.277   5.354  12.542  0.3999  0.3278 -0.5895
11156TIP3    H154883   5.221   5.372  12.618 -0.5941  0.7414 -1.3985
11156TIP3    H254884   5.216   5.340  12.470  1.3279 -0.1987 -1.2899
11157TIP3   OH254885   4.942   2.449   4.092 -0.2273 -0.0976  0.5500
11157TIP3    H154886   4.869   2.462   4.153 -0.1649  1.3830  0.3498
11157TIP3    H254887   4.920   2.503   4.016  1.0867  0.4308  0.5157
11158TIP3   OH254888   1.489   1.581  12.989 -0.2964 -0.1258  0.2830
11158TIP3    H154889   1.569   1.596  12.938 -1.5387 -0.3799 -1.8585
11158TIP3    H254890   1.452   1.668  13.002 -1.0944 -0.2071 -1.2317
11159TIP3   OH254891   1.756   3.346  13.813 -0.6085 -0.0614 -0.0419
11159TIP3    H154892   1.759   3.251  13.805 -0.4590 -0.3439  2.4638
11159TIP3    H254893   1.687   3.362  13.878 -0.6474  1.5525 -0.4367
11160TIP3   OH254894   1.253   0.904  11.933  0.4887 -0.1785  0.2151
11160TIP3    H154895   1.233   0.983  11.983  1.5335 -0.6129  1.3634
11160TIP3    H254896   1.167   0.868  11.909  0.0002  1.2325 -0.2486
11161TIP3   OH254897   4.714   6.094  13.018 -0.1714  0.1487  0.1192
11161TIP3    H154898   4.806   6.100  12.995 -0.5352 -3.2648 -3.2195
11161TIP3    H254899   4.712   6.041  13.098  0.7416  0.8978  0.6506
11162TIP3   OH254900   4.253   3.322   5.049 -0.3016  0.1225  0.1420
11162TIP3    H154901   4.309   3.254   5.088 -1.8443 -1.5231 -0.3554
11162TIP3    H254902   4.244   3.388   5.117  2.0768  0.3690  0.2820
11163TIP3   OH254903   3.993   0.541  15.813 -0.2901 -0.5921  0.3917
11163TIP3    H154904   4.070   0.519  15.761 -0.5861 -1.3094  0.2507
11163TIP3    H254905   3.936   0.465  15.806 -1.1236  0.0258  0.2955
11164TIP3   OH254906   4.491   5.084  16.214 -0.2415 -0.6228  0.6093
11164TIP3    H154907   4.420   5.068  16.277  0.0116 -0.3174  0.9779
11164TIP3    H254908   4.570   5.085  16.268  0.5678 -4.5853 -0.1521
11165TIP3   OH254909   3.110   2.164   0.682  0.4680  0.0545  0.0204
11165TIP3    H154910   3.051   2.102   0.640 -0.5932 -0.2176  1.8243
11165TIP3    H254911   3.053   2.232   0.718  1.4233  0.8695  0.0520
11166TIP3   OH254912   0.056   4.645   1.217  0.7808  0.4952  0.3112
11166TIP3    H154913  -0.013   4.689   1.168 -1.9702 -3.1740  0.4842
11166TIP3    H254914   0.022   4.641   1.307  0.9076 -1.8095  0.3013
11167TIP3   OH254915   4.175   2.423  14.339  0.0045  0.3009 -0.5032
11167TIP3    H154916   4.135   2.505  14.309 -1.2868 -0.2827 -0.4484
11167TIP3    H254917   4.112   2.387  14.401  0.7526 -0.5325 -0.2100
11168TIP3   OH254918   6.233   2.566  13.548  0.5158 -0.1077 -0.7191
11168TIP3    H154919   6.258   2.638  13.489 -0.7235 -0.7507 -2.0897
11168TIP3    H254920   6.234   2.489  13.492 -1.5020 -0.6192 -0.0974
11169TIP3   OH254921   6.762   5.353   3.956  0.4013 -0.3126  0.1309
11169TIP3    H154922   6.772   5.276   4.012 -0.2000  0.4094  1.2820
11169TIP3    H254923   6.815   5.420   4.000  0.2928  0.1441 -0.4334
11170TIP3   OH254924   0.816   1.649  12.410 -0.3838 -0.3553 -0.7378
11170TIP3    H154925   0.743   1.645  12.471 -0.1649  0.0321 -0.4460
11170TIP3    H254926   0.815   1.739  12.377  1.4905  0.4772  1.2027
11171TIP3   OH254927   1.431   6.026  15.840  0.2741  0.0716  0.1537
11171TIP3    H154928   1.395   5.977  15.914  1.9978 -2.0225 -0.3155
11171TIP3    H254929   1.434   6.117  15.871 -0.6747 -0.4805  1.9934
11172TIP3   OH254930   4.435   5.293   2.128  0.1174  0.0908 -0.3299
11172TIP3    H154931   4.469   5.363   2.183  2.3960  0.0432 -1.5630
11172TIP3    H254932   4.471   5.310   2.041 -0.9327 -1.4876 -1.1394
11173TIP3   OH254933   0.795   5.865  15.524 -0.8675 -0.5800  0.3896
11173TIP3    H154934   0.714   5.836  15.564 -1.8437  1.8156  0.3148
11173TIP3    H254935   0.773   5.949  15.483  1.1575 -0.8157 -1.3645
11174TIP3   OH254936   1.189   2.950   0.401 -0.0997  1.0090  0.0104
11174TIP3    H154937   1.144   2.996   0.471 -0.6639  0.0357  0.3103
11174TIP3    H254938   1.256   3.011   0.371 -0.4495  1.7871  0.7773
11175TIP3   OH254939   0.981   1.360   1.922  0.3593  0.3107 -0.0972
11175TIP3    H154940   0.977   1.328   1.832  0.5133  1.3899 -0.5025
11175TIP3    H254941   1.038   1.297   1.967  0.4937 -0.0908 -0.8124
11176TIP3   OH254942   1.031   6.492   5.035  0.1106  0.7880 -0.1652
11176TIP3    H154943   0.981   6.453   4.964  1.4610 -1.4016 -0.0136
11176TIP3    H254944   0.970   6.497   5.108 -0.0622 -1.4340 -0.1037
11177TIP3   OH254945   1.299   4.423  14.865  0.0549 -0.8063 -0.6186
11177TIP3    H154946   1.312   4.518  14.865 -2.7761 -0.3408 -0.3795
11177TIP3    H254947   1.283   4.401  14.773 -0.6225 -0.8062 -0.5073
11178TIP3   OH254948   5.941   2.337  12.917 -0.3787 -0.6500  0.1940
11178TIP3    H154949   5.861   2.346  12.969 -1.3593 -1.2853 -1.1606
11178TIP3    H254950   5.928   2.394  12.842  0.3550 -0.9128 -0.1459
11179TIP3   OH254951   6.257   5.117   4.419 -0.3527 -0.1094 -0.7358
11179TIP3    H154952   6.224   5.105   4.508 -1.1155  0.9454 -0.8508
11179TIP3    H254953   6.178   5.121   4.364 -0.0454  1.8769 -1.0993
11180TIP3   OH254954   1.646   0.557  11.814  0.0002 -0.4762 -0.0644
11180TIP3    H154955   1.699   0.555  11.894 -0.8585 -2.5092  0.5123
11180TIP3    H254956   1.672   0.638  11.770 -0.4618  1.4662  2.9161
11181TIP3   OH254957   3.087   1.164   0.456 -0.4764  0.0145  0.5751
11181TIP3    H154958   3.033   1.086   0.442 -0.7852  0.2157  0.6474
11181TIP3    H254959   3.177   1.131   0.453 -0.6029 -0.3298  0.5081
11182TIP3   OH254960   0.447   1.306   1.589  0.3127  0.2001  0.1521
11182TIP3    H154961   0.507   1.272   1.656  0.7434 -2.3537 -1.3834
11182TIP3    H254962   0.374   1.245   1.590 -0.5250  1.1633 -0.5145
11183TIP3   OH254963   3.051   1.416  15.861 -0.1433 -0.5274  0.3739
11183TIP3    H154964   2.983   1.479  15.887 -0.0510 -0.6087  0.8120
11183TIP3    H254965   3.032   1.398  15.768  0.1901  0.6009  0.0713
11184TIP3   OH254966   5.577   3.920   2.589 -0.2017 -0.2778 -0.1085
11184TIP3    H154967   5.488   3.911   2.556  0.1138 -2.5488 -0.5429
11184TIP3    H254968   5.568   3.919   2.684 -0.8538  3.0737 -0.0196
11185TIP3   OH254969   5.051   5.991   3.545  0.0385 -0.3387  0.0368
11185TIP3    H154970   5.044   6.086   3.554  2.0800 -0.2947  1.7646
11185TIP3    H254971   5.116   5.978   3.476  0.8544 -0.4534  0.8201
11186TIP3   OH254972   4.504   6.308  10.872  0.0374 -0.4188  0.5286
11186TIP3    H154973   4.594   6.311  10.904 -0.0539  0.0638  0.7498
11186TIP3    H254974   4.499   6.379  10.808 -0.0586 -0.7376  0.1837
11187TIP3   OH254975   2.941   1.402   0.062  0.3060 -0.3635 -0.0902
11187TIP3    H154976   3.028   1.381   0.094  0.4735 -0.1394 -0.3898
11187TIP3    H254977   2.881   1.359   0.123  0.5254  2.3859  2.2817
11188TIP3   OH254978   4.115   1.493   4.065  0.7420 -0.0769 -0.2899
11188TIP3    H154979   4.193   1.516   4.016  1.6660  0.1254  1.2104
11188TIP3    H254980   4.133   1.406   4.100 -0.1113 -0.4328 -0.7089
11189TIP3   OH254981   6.546   5.771   3.913 -0.1595 -0.5428 -0.0582
11189TIP3    H154982   6.507   5.702   3.965  0.7650 -0.4251  0.8344
11189TIP3    H254983   6.566   5.840   3.976  0.4669 -0.1588 -0.6557
11190TIP3   OH254984   3.077   0.478  10.697  0.4379 -0.3202  0.7694
11190TIP3    H154985   3.111   0.412  10.636 -1.0672 -0.7786  0.3876
11190TIP3    H254986   2.993   0.504  10.660  1.1626  2.1697  0.6910
11191TIP3   OH254987   0.436   4.648   4.574 -0.3670  0.0583  0.0300
11191TIP3    H154988   0.459   4.730   4.617 -0.5965  0.7329 -1.0904
11191TIP3    H254989   0.515   4.594   4.581  0.4702  1.1111 -0.9069
11192TIP3   OH254990   5.128   0.045  14.527 -0.5219 -0.6283  0.4301
11192TIP3    H154991   5.057   0.109  14.526 -0.3013 -0.3682 -1.1715
11192TIP3    H254992   5.092  -0.029  14.576 -1.2627  0.1722  1.1403
11193TIP3   OH254993   2.606   0.101   1.453  0.5199  0.2704 -0.3255
11193TIP3    H154994   2.600   0.042   1.378 -0.1595  1.1705 -1.0063
11193TIP3    H254995   2.592   0.189   1.416 -0.0741  0.7066  0.8726
11194TIP3   OH254996   4.646   1.342   4.053  0.0469  0.1445  0.5319
11194TIP3    H154997   4.581   1.327   3.984  1.0015  2.5635 -1.0110
11194TIP3    H254998   4.705   1.266   4.046 -1.0457 -0.7053  0.1346
11195TIP3   OH254999   5.250   2.215   0.931  0.2725 -0.7193 -0.1949
11195TIP3    H155000   5.211   2.177   1.009 -0.3007 -0.4004 -0.3192
11195TIP3    H255001   5.234   2.309   0.940 -2.0911 -0.8802 -1.9144
11196TIP3   OH255002   3.337   1.344   2.039  0.2258  0.0165 -0.5873
11196TIP3    H155003   3.346   1.348   2.134 -0.3083 -1.1374 -0.4671
11196TIP3    H255004   3.242   1.343   2.024  0.3061 -0.1297 -1.1063
11197TIP3   OH255005   2.746   4.238  11.787 -0.5496 -0.1700 -0.1923
11197TIP3    H155006   2.760   4.230  11.692  1.4480  2.1515 -0.2056
11197TIP3    H255007   2.728   4.331  11.800  0.9622 -0.0916  1.8464
11198TIP3   OH255008   0.327   2.591   1.468  0.3517  0.7939 -0.4968
11198TIP3    H155009   0.298   2.576   1.558  1.4213  0.7067 -0.1588
11198TIP3    H255010   0.420   2.573   1.469  0.0447 -1.2237 -2.0894
11199TIP3   OH255011   1.104   0.115   3.207 -0.1072  0.0084 -0.5379
11199TIP3    H155012   1.137   0.080   3.125  0.9823 -0.6427  0.1486
11199TIP3    H255013   1.009   0.113   3.198 -0.1201 -3.1303 -0.5737
11200TIP3   OH255014   2.835   1.738  12.626  0.3943  0.2554  0.2000
11200TIP3    H155015   2.880   1.779  12.553  1.2883  0.8554  1.0609
11200TIP3    H255016   2.868   1.784  12.704 -1.0413  0.1158  0.9305
11201TIP3   OH255017   1.041   6.064   3.950  0.2060 -0.0505  0.1567
11201TIP3    H155018   1.057   6.102   3.864 -1.7701  0.4118 -0.0517
11201TIP3    H255019   1.124   6.072   3.996  1.3626 -0.4634 -1.7460
11202TIP3   OH255020   3.209   6.711  13.499  0.4507  0.1216  0.0252
11202TIP3    H155021   3.211   6.691  13.405  1.9819 -1.0080  0.2557
11202TIP3    H255022   3.171   6.799  13.503 -1.9703 -0.7617 -1.4219
11203TIP3   OH255023   1.103   2.282  10.684 -0.6911  0.1983 -0.0195
11203TIP3    H155024   1.134   2.365  10.649  0.1387  0.7729  1.9442
11203TIP3    H255025   1.182   2.228  10.692 -0.6691  0.4338  1.7680
11204TIP3   OH255026   1.379   5.286   1.942 -0.1519  0.5118  0.1465
11204TIP3    H155027   1.401   5.278   2.035  0.3464 -1.3903 -0.1116
11204TIP3    H255028   1.460   5.314   1.900 -0.2615  0.9300  0.2034
11205TIP3   OH255029   4.994   0.749   1.835  0.0931 -0.5987 -0.1390
11205TIP3    H155030   4.971   0.689   1.764 -0.9463 -0.5937  0.1648
11205TIP3    H255031   5.075   0.791   1.806 -0.5840 -0.2132 -1.5775
11206TIP3   OH255032   5.114   5.207   1.365  0.3226  0.0404  0.0910
11206TIP3    H155033   5.110   5.149   1.442  1.0748  2.3763  2.0020
11206TIP3    H255034   5.025   5.203   1.328  0.1867 -1.8222  0.4784
11207TIP3   OH255035   4.200   2.556   6.227  0.0460  0.0230 -0.0178
11207TIP3    H155036   4.203   2.479   6.170  2.1710 -0.3921  0.5537
11207TIP3    H255037   4.205   2.630   6.166  2.5272 -0.4226 -0.4814
11208TIP3   OH255038   2.156   3.396  13.719 -0.3580 -0.0641 -0.7812
11208TIP3    H155039   2.105   3.329  13.765  1.2327 -0.4772  0.4690
11208TIP3    H255040   2.205   3.346  13.653  1.5960 -0.3775  0.8052
11209TIP3   OH255041   5.262   3.691   4.290 -0.3209  0.6492  0.0046
11209TIP3    H155042   5.293   3.642   4.214  0.8571  0.7860  0.3745
11209TIP3    H255043   5.285   3.782   4.271  0.2651  0.6465  0.6335
11210TIP3   OH255044   2.380   3.187  12.689 -0.1154  0.0622  0.6031
11210TIP3    H155045   2.434   3.251  12.642  0.0527  0.1643  0.9278
11210TIP3    H255046   2.314   3.160  12.626 -0.3213  0.7214  0.5305
11211TIP3   OH255047   1.828   6.228  12.150 -0.2457  1.2628  0.1458
11211TIP3    H155048   1.863   6.307  12.109 -0.7627  1.6065  0.3418
11211TIP3    H255049   1.760   6.198  12.090  0.6212  0.3967 -0.4076
11212TIP3   OH255050   0.742   0.536  12.114  0.5311  0.2704 -0.0237
11212TIP3    H155051   0.796   0.568  12.187 -0.4006  1.8748  0.0064
11212TIP3    H255052   0.772   0.586  12.039 -0.1778  0.3898 -0.2291
11213TIP3   OH255053   0.189   0.428   5.492 -0.8934  0.6275  0.7371
11213TIP3    H155054   0.105   0.417   5.449 -0.5340  1.1689 -0.1124
11213TIP3    H255055   0.244   0.359   5.456 -0.4171  1.4468 -0.1261
11214TIP3   OH255056   2.680   4.491   6.685  0.0504 -0.3859 -0.4074
11214TIP3    H155057   2.650   4.408   6.648 -3.0343  0.3244  0.2489
11214TIP3    H255058   2.605   4.550   6.677  1.7625  2.0423  0.1735
11215TIP3   OH255059   5.434   0.902  16.797  0.2597 -0.1226 -0.2488
11215TIP3    H155060   5.478   0.891  16.712  0.2940  0.6253 -0.3366
11215TIP3    H255061   5.500   0.943  16.853 -0.0768  0.3122 -0.1613
11216TIP3   OH255062   4.755   2.802  15.258  0.1571 -0.7537 -0.1729
11216TIP3    H155063   4.826   2.757  15.214  0.0032 -0.7030 -0.4751
11216TIP3    H255064   4.703   2.841  15.187 -0.8915 -1.8558 -0.0361
11217TIP3   OH255065   4.928   0.460   1.277 -0.3130  0.2996  0.1784
11217TIP3    H155066   5.022   0.444   1.280 -0.6147 -2.0198 -0.5842
11217TIP3    H255067   4.919   0.555   1.290  2.0529  0.4728  0.9686
11218TIP3   OH255068   3.414   6.458   1.139  0.5409 -0.1519 -0.1803
11218TIP3    H155069   3.323   6.472   1.165  0.8847  0.4210  0.7884
11218TIP3    H255070   3.438   6.536   1.090  0.5347 -0.2590 -0.3528
11219TIP3   OH255071   2.983   2.233   5.440 -0.5210 -0.4281  0.3929
11219TIP3    H155072   2.951   2.235   5.350 -0.0695 -1.2198  0.1970
11219TIP3    H255073   2.995   2.325   5.464  0.4214 -0.2244 -0.7589
11220TIP3   OH255074   1.014   0.124  16.536  0.1717  0.2840  0.4687
11220TIP3    H155075   1.013   0.029  16.526  0.8886  0.2617  0.5163
11220TIP3    H255076   0.926   0.153  16.512  0.2946 -0.2727 -0.6914
11221TIP3   OH255077   0.320   1.799  12.607 -0.0906  0.0851 -0.3007
11221TIP3    H155078   0.327   1.786  12.702  0.6983 -1.4878 -0.5385
11221TIP3    H255079   0.367   1.725  12.569 -2.5632 -0.7734 -1.9654
11222TIP3   OH255080   0.816   2.575  16.265  0.0642  0.1594 -0.4389
11222TIP3    H155081   0.833   2.664  16.295  2.6652 -0.5172  0.3827
11222TIP3    H255082   0.840   2.576  16.172  0.5856  0.2126 -0.3063
11223TIP3   OH255083   6.546   1.755  11.661  0.4153  1.2801  0.3005
11223TIP3    H155084   6.617   1.704  11.622 -0.6229 -0.3414  0.4480
11223TIP3    H255085   6.492   1.690  11.705 -2.1596  2.1946 -1.3282
11224TIP3   OH255086   3.186   5.015  16.567 -0.0232  0.0321 -0.4557
11224TIP3    H155087   3.233   4.994  16.487 -3.0021 -0.2802 -2.2907
11224TIP3    H255088   3.145   4.932  16.593  0.6821  0.1918  1.3072
11225TIP3   OH255089   3.248   0.291   5.777  0.6274  0.0501 -0.2103
11225TIP3    H155090   3.250   0.373   5.825  1.4860 -0.4120  0.5624
11225TIP3    H255091   3.242   0.223   5.844  1.3788 -0.5858 -0.7684
11226TIP3   OH255092   0.587   4.012  14.592  0.0315  0.0035  0.1687
11226TIP3    H155093   0.605   4.093  14.544  0.6614  0.2865  0.8690
11226TIP3    H255094   0.512   4.034  14.648 -1.0823 -0.4952 -1.0591
11227TIP3   OH255095   6.525   6.296   1.737 -0.2197  0.3169  0.0522
11227TIP3    H155096   6.584   6.357   1.693  2.0620 -1.8588 -0.1361
11227TIP3    H255097   6.505   6.230   1.670 -1.4291  0.0408  0.6588
11228TIP3   OH255098   3.603   6.044  11.524  0.2029  0.0208 -0.2655
11228TIP3    H155099   3.569   6.133  11.531  1.1805  0.3417  0.8585
11228TIP3    H255100   3.532   5.988  11.554 -0.7928  0.3021 -1.9599
11229TIP3   OH255101   3.619   0.790   3.706 -0.1634  0.5531  0.1497
11229TIP3    H155102   3.538   0.835   3.682 -0.7399  0.3992  1.7065
11229TIP3    H255103   3.591   0.708   3.746  0.8515 -0.7260 -1.6341
11230TIP3   OH255104   6.506   1.897  16.793  0.0244  0.7023  0.3886
11230TIP3    H155105   6.554   1.819  16.765 -1.0262 -0.0815  0.7187
11230TIP3    H255106   6.569   1.969  16.784  1.1854 -0.2611  0.6136
11231TIP3   OH255107   3.058   0.738  13.692 -0.4744  0.0195 -0.2018
11231TIP3    H155108   3.147   0.746  13.658 -0.3336  1.0713  0.3590
11231TIP3    H255109   3.070   0.725  13.786 -0.9158  0.3889 -0.0911
11232TIP3   OH255110   3.839   0.047  13.164 -0.2018 -0.3871 -1.0176
11232TIP3    H155111   3.777  -0.025  13.179  0.3165 -0.6946 -0.3204
11232TIP3    H255112   3.920   0.003  13.139 -0.4347  0.0384 -2.6052
11233TIP3   OH255113   5.987   2.466  15.851 -0.3439  0.1633 -0.3976
11233TIP3    H155114   6.046   2.390  15.854  1.6440  1.1563 -5.0478
11233TIP3    H255115   5.909   2.435  15.806  0.3422  0.6605 -2.0207
11234TIP3   OH255116   1.171   4.549   2.739  0.3447  0.0317 -0.0989
11234TIP3    H155117   1.211   4.635   2.745  1.0251 -0.3262  0.9198
11234TIP3    H255118   1.245   4.488   2.734 -0.1324 -0.4646 -1.5869
11235TIP3   OH255119   6.726   5.755   5.173 -0.1673  0.4541 -0.1896
11235TIP3    H155120   6.805   5.711   5.142 -1.0516 -0.9449 -0.5527
11235TIP3    H255121   6.748   5.787   5.260  0.2226 -1.6609  0.5519
11236TIP3   OH255122   0.118   0.199   5.294 -0.2748  0.0723  0.7122
11236TIP3    H155123   0.073   0.133   5.241 -0.2139 -1.8027  2.8494
11236TIP3    H255124   0.206   0.206   5.254 -1.4498  1.8241 -1.8706
11237TIP3   OH255125   2.146   2.734   3.198 -0.0900  0.0288 -0.3036
11237TIP3    H155126   2.240   2.748   3.182  0.4273 -1.8526  0.8402
11237TIP3    H255127   2.133   2.641   3.183 -1.6978  0.1663  0.0772
11238TIP3   OH255128   2.897   0.033  16.356 -0.6692 -0.6135 -0.1537
11238TIP3    H155129   2.978   0.008  16.402 -0.6392  0.7562  0.5741
11238TIP3    H255130   2.927   0.085  16.282 -0.8106 -1.5798 -0.9153
11239TIP3   OH255131   1.719   6.338   3.871 -0.4291 -0.3682 -0.0560
11239TIP3    H155132   1.726   6.404   3.802  1.4804 -0.8924 -0.4334
11239TIP3    H255133   1.731   6.387   3.952 -1.4138  0.0730 -0.1680
11240TIP3   OH255134   5.573   1.052   3.542  0.0277 -0.1545  0.1735
11240TIP3    H155135   5.541   1.012   3.622 -1.9606 -2.0517 -1.4522
11240TIP3    H255136   5.658   1.010   3.525  1.1976  1.3171  1.9244
11241TIP3   OH255137   3.947   2.495  13.271 -0.0133  0.1432  0.3147
11241TIP3    H155138   3.958   2.494  13.176  0.0901 -1.4270  0.3162
11241TIP3    H255139   3.952   2.587  13.295 -0.3861  0.5922 -1.2413
11242TIP3   OH255140   5.598   5.434  16.749  0.7231  0.4130 -0.1776
11242TIP3    H155141   5.633   5.347  16.769 -0.7470 -0.4345 -1.1474
11242TIP3    H255142   5.626   5.450  16.659 -0.7674  0.0009 -0.7395
11243TIP3   OH255143   6.111   4.323  14.230 -0.0533 -0.1058 -0.0421
11243TIP3    H155144   6.160   4.390  14.183  2.2074 -0.1835  2.0158
11243TIP3    H255145   6.141   4.240  14.193  0.2233 -0.0972  0.1587
11244TIP3   OH255146   6.547   2.991   5.114 -0.4103  0.2254 -0.2846
11244TIP3    H155147   6.495   2.912   5.132  0.2008  0.5920  4.2033
11244TIP3    H255148   6.494   3.063   5.147  0.3206  1.3926 -1.5430
11245TIP3   OH255149   6.170   2.993  13.090  0.2661 -0.4009 -0.0735
11245TIP3    H155150   6.101   2.996  13.023 -0.2893  0.7781  0.5344
11245TIP3    H255151   6.152   2.912  13.138 -0.6389 -0.1812 -0.0060
11246TIP3   OH255152   3.511   2.769   5.468 -0.4844 -0.5514 -0.1967
11246TIP3    H155153   3.574   2.773   5.541 -1.0157 -0.6192  0.2740
11246TIP3    H255154   3.549   2.827   5.401  0.2009 -0.7831 -0.0219
11247TIP3   OH255155   0.668   6.104  16.564  0.6891 -0.2268 -0.2350
11247TIP3    H155156   0.627   6.133  16.645  0.6644 -0.1754 -0.2663
11247TIP3    H255157   0.758   6.083  16.589  0.6199 -0.4268 -0.1483
11248TIP3   OH255158   3.569   4.711   2.974 -0.3798 -0.2114  0.2504
11248TIP3    H155159   3.494   4.658   3.004 -0.4235 -1.0435 -1.2509
11248TIP3    H255160   3.596   4.670   2.892  2.0765 -0.2656  0.9952
11249TIP3   OH255161   5.279   3.568  12.990 -0.0730  0.4720 -0.3242
11249TIP3    H155162   5.358   3.570  13.044  0.4809  2.1538 -1.1428
11249TIP3    H255163   5.247   3.478  12.999  0.6875  0.3454  1.7700
11250TIP3   OH255164   5.746   5.435  13.892  0.4346  0.6098  0.0786
11250TIP3    H155165   5.676   5.487  13.932 -1.0787 -0.8804 -0.4796
11250TIP3    H255166   5.781   5.383  13.965 -0.5220 -0.1822 -0.0034
11251TIP3   OH255167   1.783   3.094  13.715 -0.1938 -0.6754  0.1283
11251TIP3    H155168   1.828   3.010  13.723  2.0440  0.4606  0.1981
11251TIP3    H255169   1.787   3.114  13.621  0.1693 -0.1909  0.2453
11252TIP3   OH255170   2.201   1.583  11.484 -0.7507  0.1896 -0.4805
11252TIP3    H155171   2.209   1.600  11.390 -0.0688 -3.1520 -1.1775
11252TIP3    H255172   2.110   1.604  11.505 -1.2428 -0.0843 -2.1872
11253TIP3   OH255173   4.005   4.140   0.992  0.4138 -0.6190  0.0652
11253TIP3    H155174   4.029   4.229   1.019  1.7299  0.2471 -3.3706
11253TIP3    H255175   4.086   4.104   0.956 -0.1000 -3.2793  1.3379
11254TIP3   OH255176   0.390   4.301  15.418 -0.4912  0.2810  0.3284
11254TIP3    H155177   0.466   4.267  15.464 -0.8502 -1.4025 -0.2493
11254TIP3    H255178   0.336   4.340  15.486  0.7225  1.2252  0.7817
11255TIP3   OH255179   3.245   6.264   6.033 -0.1255 -0.2358 -0.2888
11255TIP3    H155180   3.284   6.181   6.006  0.5449 -0.1129  0.2695
11255TIP3    H255181   3.154   6.243   6.053 -0.5559 -0.4001 -2.2286
11256TIP3   OH255182   4.426   0.016  15.648  0.7412  0.3120 -0.9763
11256TIP3    H155183   4.435  -0.045  15.722 -1.6872  0.9034 -0.1135
11256TIP3    H255184   4.408  -0.041  15.573 -2.9522 -0.1538  0.0666
11257TIP3   OH255185   2.850   6.460   2.556 -0.3173 -0.0057 -0.2644
11257TIP3    H155186   2.803   6.525   2.608  1.3757  1.4624 -0.4596
11257TIP3    H255187   2.871   6.506   2.474  0.6801 -0.8960 -0.5300
11258TIP3   OH255188   6.353   5.822   2.302 -0.5127  0.2540 -0.1709
11258TIP3    H155189   6.373   5.853   2.390 -3.0081  2.5105 -0.2684
11258TIP3    H255190   6.432   5.842   2.251  0.2547  0.6628  1.1488
11259TIP3   OH255191   2.624   4.638  16.810  0.4483 -0.2277  0.2906
11259TIP3    H155192   2.543   4.617  16.858 -1.3721  1.8713 -1.6170
11259TIP3    H255193   2.688   4.656  16.879 -1.0331 -0.7983  1.9086
11260TIP3   OH255194   5.342   6.696   1.124 -0.4769 -0.4179 -0.1611
11260TIP3    H155195   5.329   6.791   1.123 -1.3138 -0.5121  0.6392
11260TIP3    H255196   5.355   6.673   1.032 -2.5135  0.1964 -0.6606
11261TIP3   OH255197   3.389   6.302  11.957  0.4636  0.1952  0.2230
11261TIP3    H155198   3.474   6.316  11.915  1.0575  1.3501  1.7426
11261TIP3    H255199   3.382   6.207  11.966  1.7574  0.0985  0.4025
11262TIP3   OH255200   5.334   2.484   5.577 -0.4589  0.3948  1.0798
11262TIP3    H155201   5.309   2.571   5.608 -0.6095  0.6950  0.1395
11262TIP3    H255202   5.406   2.500   5.516 -0.4497 -0.1460  0.9459
11263TIP3   OH255203   4.782   3.855  14.705  0.0645  0.3477 -0.0378
11263TIP3    H155204   4.749   3.910  14.776  0.4606  2.3165 -1.2910
11263TIP3    H255205   4.703   3.825  14.659 -0.1539 -0.1993  0.6686
11264TIP3   OH255206   2.397   4.309  14.787  0.3999  0.6067  0.1032
11264TIP3    H155207   2.456   4.384  14.781  1.5117 -0.3297 -0.8339
11264TIP3    H255208   2.380   4.284  14.697  0.0299 -0.2870  0.4095
11265TIP3   OH255209   5.293   2.612   3.820  0.1384  0.8603 -0.1172
11265TIP3    H155210   5.290   2.531   3.872 -3.3726 -0.1134 -1.4843
11265TIP3    H255211   5.225   2.667   3.859  1.3604  2.5336 -0.2533
11266TIP3   OH255212   2.140   0.152   0.771 -0.2537  0.4440 -0.4188
11266TIP3    H155213   2.069   0.092   0.793 -1.0820  1.5721  0.1039
11266TIP3    H255214   2.207   0.137   0.837 -0.8687  0.7573  0.2879
11267TIP3   OH255215   0.876   4.835  16.465  0.2927  0.6299  0.5236
11267TIP3    H155216   0.961   4.829  16.422  0.3002  0.0899  0.6103
11267TIP3    H255217   0.884   4.911  16.523  1.4093 -0.5732  2.0287
11268TIP3   OH255218   6.477   1.874  12.984 -0.1100  0.4252  0.1314
11268TIP3    H155219   6.510   1.951  12.937 -0.6551  0.5084 -0.1250
11268TIP3    H255220   6.534   1.865  13.060 -0.5430  1.5781  0.6117
11269TIP3   OH255221   4.008   3.162  13.153 -0.4370  0.0047  0.3511
11269TIP3    H155222   4.084   3.107  13.173  0.2482  1.5051  2.1285
11269TIP3    H255223   4.041   3.226  13.090 -0.7609 -0.4951 -0.3403
11270TIP3   OH255224   0.567   2.338  10.900 -0.3568  0.4495 -0.8522
11270TIP3    H155225   0.637   2.400  10.883 -0.7175  0.4653 -2.4201
11270TIP3    H255226   0.487   2.391  10.897 -0.6160  0.0236 -1.5679
11271TIP3   OH255227   2.969   5.902   2.941 -0.2158 -0.3433  0.2654
11271TIP3    H155228   2.905   5.904   2.870 -1.9450 -0.4602  1.7554
11271TIP3    H255229   3.001   5.992   2.947 -1.1834  0.0111  0.3003
11272TIP3   OH255230   0.869   3.807   5.610 -0.3854 -1.0550  0.4879
11272TIP3    H155231   0.883   3.900   5.630 -2.4632 -0.8194  1.0892
11272TIP3    H255232   0.947   3.781   5.560 -0.9276  1.6929 -2.0575
11273TIP3   OH255233   3.734   4.720   2.378  0.0701  0.0987  0.4418
11273TIP3    H155234   3.823   4.700   2.406  0.3129  0.3502 -0.1469
11273TIP3    H255235   3.705   4.641   2.332  0.0345  0.0702  0.5123
11274TIP3   OH255236   4.825   0.509  12.628  0.4911  0.4205  0.4193
11274TIP3    H155237   4.839   0.464  12.712 -5.3938  0.2683  1.7049
11274TIP3    H255238   4.812   0.439  12.565 -0.2029  0.4104  0.5640
11275TIP3   OH255239   0.895   0.500   5.612  0.2930  0.0855 -0.5004
11275TIP3    H155240   0.965   0.440   5.587  1.0801 -0.2607  2.2499
11275TIP3    H255241   0.847   0.454   5.681 -1.5504  1.0659 -1.0562
11276TIP3   OH255242   5.591   3.027  15.276 -0.7298 -0.1524  0.0228
11276TIP3    H155243   5.601   2.984  15.361 -1.0761 -1.2354 -0.4711
11276TIP3    H255244   5.564   3.117  15.298 -0.2146 -0.2379  1.0630
11277TIP3   OH255245   4.728   0.386   1.573 -0.0725  0.0453  0.0784
11277TIP3    H155246   4.716   0.358   1.664  0.7655 -0.5390  0.0104
11277TIP3    H255247   4.656   0.448   1.558  0.4924  1.0953  1.5280
11278TIP3   OH255248   1.054   0.606   2.646  0.1954 -0.6603  0.6820
11278TIP3    H155249   1.037   0.696   2.617 -0.0927 -0.5862  1.0726
11278TIP3    H255250   1.092   0.563   2.569 -4.3387 -1.6889 -1.3547
11279TIP3   OH255251   3.600   4.724   5.110 -0.4253 -0.1097  0.2036
11279TIP3    H155252   3.515   4.687   5.089 -0.4636  0.0790  0.0138
11279TIP3    H255253   3.593   4.753   5.201 -0.4796 -0.3281  0.2673
11280TIP3   OH255254   4.967   2.300  15.422 -0.0956 -0.0662 -0.1644
11280TIP3    H155255   5.057   2.269  15.432 -0.0603  0.4088  1.4200
11280TIP3    H255256   4.950   2.297  15.328  3.0451  3.8317 -1.1476
11281TIP3   OH255257   2.275   2.318  12.667 -0.0851 -0.6846 -0.9471
11281TIP3    H155258   2.205   2.357  12.614  0.9587 -0.1886 -2.0126
11281TIP3    H255259   2.313   2.391  12.715 -0.7713 -1.0737  0.2219
11282TIP3   OH255260   6.177   5.957   2.730 -0.4320  0.4937  0.4353
11282TIP3    H155261   6.256   5.922   2.689  0.2796 -0.1651  2.2403
11282TIP3    H255262   6.125   5.991   2.658  0.6542 -0.7659 -1.0048
11283TIP3   OH255263   6.176   2.891   2.011  0.1135 -0.8878  0.5927
11283TIP3    H155264   6.089   2.925   2.031  0.1710 -1.0654  1.1531
11283TIP3    H255265   6.183   2.898   1.916 -0.7246 -1.3657  0.4841
11284TIP3   OH255266   4.534   2.876   3.238  0.2240 -0.5683  0.5232
11284TIP3    H155267   4.623   2.851   3.262 -0.2084 -1.9530  0.7696
11284TIP3    H255268   4.495   2.796   3.205 -0.7818  0.1479 -0.0813
11285TIP3   OH255269   3.670   1.446   3.933 -0.6999 -0.1457 -0.4558
11285TIP3    H155270   3.650   1.514   3.997 -0.8621  0.1879 -0.8584
11285TIP3    H255271   3.645   1.484   3.849  0.8132 -0.0229 -0.8935
11286TIP3   OH255272   4.342   5.439  14.970 -0.0554 -0.0491 -0.2073
11286TIP3    H155273   4.279   5.485  14.915 -1.5025  0.9417  2.1574
11286TIP3    H255274   4.293   5.366  15.007  1.3589 -1.7210 -1.4118
11287TIP3   OH255275   5.467   3.017  11.375  0.1321  0.1085 -0.0781
11287TIP3    H155276   5.424   3.092  11.416  1.0237  0.9617 -0.6605
11287TIP3    H255277   5.414   3.000  11.297 -1.4987 -1.4446  1.2752
11288TIP3   OH255278   2.115   0.354  10.773 -0.4079  0.2364 -0.3075
11288TIP3    H155279   2.074   0.440  10.775 -1.1861 -0.1294  0.6206
11288TIP3    H255280   2.168   0.354  10.694 -0.8652  1.3533 -0.6335
11289TIP3   OH255281   1.754   4.497  15.168 -0.0347  0.2245 -0.0262
11289TIP3    H155282   1.796   4.436  15.229 -1.6600 -1.0897 -0.1518
11289TIP3    H255283   1.816   4.570  15.161  1.7190 -1.1153  0.6019
11290TIP3   OH255284   5.710   0.308   5.581  0.6428  0.1718 -0.5245
11290TIP3    H155285   5.729   0.319   5.675 -1.3634  0.0611 -0.0617
11290TIP3    H255286   5.696   0.397   5.549  0.6250  0.1551 -0.5623
11291TIP3   OH255287   0.427   1.290   5.615 -0.3088  0.6840  0.7060
11291TIP3    H155288   0.424   1.360   5.550  0.5670  1.0010  0.9891
11291TIP3    H255289   0.382   1.326   5.691  0.1053  0.9396  0.8371
11292TIP3   OH255290   4.537   5.076  12.635  0.1262 -0.6802  0.1300
11292TIP3    H155291   4.572   5.165  12.645 -1.8721  0.1771  0.1492
11292TIP3    H255292   4.530   5.064  12.540  0.0918 -0.6710  0.1309
11293TIP3   OH255293   2.182   0.665  13.011  0.2439  0.9303 -0.4668
11293TIP3    H155294   2.244   0.736  12.996  1.2614  0.1598 -0.0206
11293TIP3    H255295   2.160   0.671  13.104  0.2675  0.7110 -0.4450
11294TIP3   OH255296   3.759   0.064   5.508 -0.1855 -0.4685 -0.5954
11294TIP3    H155297   3.716   0.008   5.443 -1.0281 -0.5384  0.0120
11294TIP3    H255298   3.799   0.134   5.456 -2.5165  0.6008 -1.0836
11295TIP3   OH255299   1.231   5.933  13.605  0.0440 -0.0730 -0.3657
11295TIP3    H155300   1.313   5.892  13.632 -0.4452  0.2397  1.7487
11295TIP3    H255301   1.244   5.954  13.513  2.8452  1.1484  0.2203
11296TIP3   OH255302   0.151   1.353   4.909 -0.2934 -0.1168  0.3959
11296TIP3    H155303   0.153   1.394   4.995  0.5293  1.3861 -0.3005
11296TIP3    H255304   0.194   1.268   4.922 -0.7690 -0.1953  1.5816
11297TIP3   OH255305   2.376   0.149  12.057 -0.3395 -0.4989  0.0726
11297TIP3    H155306   2.306   0.213  12.070  0.1742 -0.3721  2.8187
11297TIP3    H255307   2.449   0.199  12.020 -1.2635 -0.3951 -1.6812
11298TIP3   OH255308   0.933   4.181  12.295  0.0723 -0.0553 -0.3542
11298TIP3    H155309   0.862   4.135  12.339  0.7143 -2.3010 -1.5425
11298TIP3    H255310   0.912   4.175  12.202 -0.0404  2.5253 -0.5915
11299TIP3   OH255311   0.432   6.806  11.871 -0.1590 -0.2125 -0.0790
11299TIP3    H155312   0.518   6.834  11.903  0.9997 -1.3172 -2.0355
11299TIP3    H255313   0.433   6.711  11.878 -1.4562 -0.2161  0.3612
11300TIP3   OH255314   1.303   2.817  16.782 -0.3991  0.5041  0.1611
11300TIP3    H155315   1.372   2.770  16.735 -1.3932  0.2734 -1.1133
11300TIP3    H255316   1.268   2.752  16.843  0.3691  0.5700  0.6904
11301TIP3   OH255317   3.381   6.657  14.663 -0.1009 -0.7482  0.0113
11301TIP3    H155318   3.383   6.693  14.752 -0.4487 -0.2676 -0.1664
11301TIP3    H255319   3.471   6.630  14.646  0.4222  0.9810 -0.2022
11302TIP3   OH255320   0.536   2.740  12.226  0.3416  0.3258  0.2223
11302TIP3    H155321   0.442   2.730  12.213  0.4525 -0.2044 -0.2080
11302TIP3    H255322   0.549   2.834  12.241 -0.1646  0.5091 -0.4707
11303TIP3   OH255323   1.449   4.570  14.648 -0.2893  0.0539  0.2003
11303TIP3    H155324   1.388   4.505  14.613  0.7923 -2.1098  2.1026
11303TIP3    H255325   1.478   4.619  14.571 -0.2883 -2.4538 -1.5267
11304TIP3   OH255326   1.954   0.880   2.566  0.5120 -0.2719  0.0584
11304TIP3    H155327   2.006   0.925   2.633  0.1088 -0.2142  0.3445
11304TIP3    H255328   1.983   0.917   2.483  3.3081 -2.5633 -0.1445
11305TIP3   OH255329   0.993   6.475   2.981 -0.8810  0.0534 -0.3926
11305TIP3    H155330   0.989   6.381   2.962  0.7915  0.1597 -1.5037
11305TIP3    H255331   1.073   6.505   2.937 -0.8336  1.8090  0.7960
11306TIP3   OH255332   5.792   5.431  16.948 -0.1374  0.3320 -0.0603
11306TIP3    H155333   5.865   5.370  16.936  0.6264  1.5092 -1.6721
11306TIP3    H255334   5.765   5.454  16.859  0.4763  3.3621  0.4405
11307TIP3   OH255335   2.499   1.169   0.554  0.5593 -0.4858  0.9475
11307TIP3    H155336   2.574   1.156   0.613  0.6974 -0.5479  0.7581
11307TIP3    H255337   2.526   1.128   0.472  0.1593 -0.8719  1.0020
11308TIP3   OH255338   1.090   1.103   2.586  0.1498 -0.4427 -0.1972
11308TIP3    H155339   1.046   1.019   2.570 -0.0843  0.0670 -2.4803
11308TIP3    H255340   1.020   1.161   2.615 -0.5229  0.0375 -2.6418
11309TIP3   OH255341   6.624   6.360   2.609 -0.5043  0.2627 -0.1783
11309TIP3    H155342   6.553   6.303   2.639 -0.2197 -0.4096 -0.7532
11309TIP3    H255343   6.694   6.300   2.584 -0.4205  0.8278 -1.3792
11310TIP3   OH255344   0.754   2.642  16.665  0.2435  0.0214 -0.2576
11310TIP3    H155345   0.796   2.689  16.737  0.7423 -1.1131  0.2291
11310TIP3    H255346   0.824   2.590  16.626  0.2282  1.4467 -2.3240
11311TIP3   OH255347   0.906   5.136  12.248 -0.1525  0.0324 -0.2664
11311TIP3    H155348   0.853   5.076  12.301 -0.9290  1.6335  0.8572
11311TIP3    H255349   0.949   5.079  12.184 -0.8650 -1.7095  0.7129
11312TIP3   OH255350   6.160   6.701   2.443  0.5823 -0.4208 -0.6410
11312TIP3    H155351   6.253   6.718   2.428  0.4050  1.9060  0.4509
11312TIP3    H255352   6.149   6.707   2.538 -1.0404  1.9543 -0.8709
11313TIP3   OH255353   1.637   3.605   3.890 -0.3486  0.3069  0.2050
11313TIP3    H155354   1.561   3.549   3.908 -0.5345  0.3714 -0.3765
11313TIP3    H255355   1.708   3.565   3.940 -0.9616  0.7649  1.4927
11314TIP3   OH255356   6.668   2.731   0.304 -0.4073  0.2888  0.0935
11314TIP3    H155357   6.650   2.702   0.214  0.1883 -0.1039  0.0981
11314TIP3    H255358   6.644   2.656   0.358 -0.1337  0.2844  0.2101
11315TIP3   OH255359   4.778   4.117   3.132 -0.2251  0.0585  0.1090
11315TIP3    H155360   4.771   4.186   3.199  0.0655  0.5504 -0.3539
11315TIP3    H255361   4.828   4.048   3.174  0.1396  0.4549  0.3385
11316TIP3   OH255362   0.523   3.684   4.548 -0.1310 -0.3930 -0.2286
11316TIP3    H155363   0.481   3.608   4.588  0.2136 -0.7075 -0.4454
11316TIP3    H255364   0.514   3.669   4.454 -0.4008  0.0309 -0.2702
11317TIP3   OH255365   4.615   5.666   3.212 -0.0008 -0.4739  0.2710
11317TIP3    H155366   4.548   5.619   3.162 -0.7444  0.1711  0.6307
11317TIP3    H255367   4.593   5.758   3.201  1.4455 -0.1862 -0.4405
11318TIP3   OH255368   5.450   0.023   0.313 -0.5589  0.0402 -0.1453
11318TIP3    H155369   5.532   0.069   0.328 -1.2925  0.5340  3.4158
11318TIP3    H255370   5.459  -0.059   0.362 -2.3274  0.3822  0.8567
11319TIP3   OH255371   5.754   1.909  14.021 -0.2253 -0.7561  0.1188
11319TIP3    H155372   5.821   1.930  14.086 -1.3367 -0.3697  1.1901
11319TIP3    H255373   5.737   1.815  14.034  0.6286 -1.0269 -0.6722
11320TIP3   OH255374   2.884   5.061  10.776  0.6313  0.2382  0.1466
11320TIP3    H155375   2.857   5.144  10.737  0.6507 -0.2954 -1.0428
11320TIP3    H255376   2.804   5.026  10.816  0.9112  1.4499  1.9004
11321TIP3   OH255377   5.952   0.800   3.144  0.0648  0.0521  0.0739
11321TIP3    H155378   5.931   0.804   3.051 -0.7648 -0.7260  0.2199
11321TIP3    H255379   5.951   0.892   3.172 -1.8723  0.1646 -0.2197
11322TIP3   OH255380   0.467   3.509  15.324  0.1992 -0.5329  0.2196
11322TIP3    H155381   0.510   3.440  15.375  0.2794 -0.1510  0.6771
11322TIP3    H255382   0.529   3.529  15.254  0.0982 -1.0474 -0.0204
11323TIP3   OH255383   3.208   4.183  14.870  0.1465 -0.5239  0.4414
11323TIP3    H155384   3.121   4.196  14.907  0.3588  0.7867  0.5060
11323TIP3    H255385   3.206   4.227  14.786  0.2374 -1.9578 -0.3443
11324TIP3   OH255386   4.327   5.253   4.963 -0.5174 -0.1372  0.8531
11324TIP3    H155387   4.307   5.343   4.989  1.1895 -0.3189  3.1054
11324TIP3    H255388   4.341   5.206   5.045 -0.8657 -2.3702 -0.2833
11325TIP3   OH255389   1.221   0.590   0.754  0.1027  0.3350 -0.0685
11325TIP3    H155390   1.127   0.577   0.743 -0.3503  1.6769  1.7596
11325TIP3    H255391   1.235   0.681   0.731  0.6171  0.6468  1.3848
11326TIP3   OH255392   0.726   6.460  16.115 -0.1999  0.0012  0.6156
11326TIP3    H155393   0.718   6.436  16.208 -0.5323  2.2755  1.2428
11326TIP3    H255394   0.820   6.471  16.101 -0.2543  3.5836  1.9143
11327TIP3   OH255395   5.597   3.487  14.066  0.2169  0.2090 -0.2670
11327TIP3    H155396   5.554   3.515  13.986  0.8812  2.2174  0.0015
11327TIP3    H255397   5.561   3.545  14.134 -0.4039 -1.5139  0.9244
11328TIP3   OH255398   6.084   0.320  11.641  0.0342 -0.3526 -0.0152
11328TIP3    H155399   6.151   0.385  11.619 -0.4682  0.7002  1.4007
11328TIP3    H255400   6.127   0.261  11.702 -0.2690  0.2399  0.7826
11329TIP3   OH255401   6.039   4.107   5.489  0.0035 -0.2494  0.0000
11329TIP3    H155402   5.977   4.111   5.562  1.6036 -0.7549  1.4563
11329TIP3    H255403   6.060   4.198   5.470  0.1610 -0.1275  0.7239
11330TIP3   OH255404   1.985   5.128  17.049 -0.0321 -0.0854 -0.0558
11330TIP3    H155405   2.030   5.160  17.127 -1.2720 -0.2683  0.7773
11330TIP3    H255406   1.971   5.205  16.995  0.9736  0.0202 -0.1795
11331TIP3   OH255407   1.831   3.116  13.431 -0.3833 -0.3132 -0.1797
11331TIP3    H155408   1.873   3.202  13.432 -0.0799 -0.4595 -0.3830
11331TIP3    H255409   1.824   3.094  13.338  0.3897 -0.9278 -0.0986
11332TIP3   OH255410   6.233   2.927  17.010 -0.1032 -0.2857 -0.1795
11332TIP3    H155411   6.294   2.867  16.967 -1.5199  0.1439 -2.9638
11332TIP3    H255412   6.227   3.002  16.951 -1.4422  0.8183  1.2690
11333TIP3   OH255413   4.705   1.585  11.952  0.1415 -0.3174 -0.0418
11333TIP3    H155414   4.668   1.568  11.866 -0.7779  3.8208 -0.7019
11333TIP3    H255415   4.772   1.651  11.937  1.6684 -1.2213  2.2172
11334TIP3   OH255416   6.413   3.247  16.955 -0.2130 -0.3768 -0.0747
11334TIP3    H155417   6.459   3.178  16.907  2.2248  0.9600  0.1577
11334TIP3    H255418   6.469   3.265  17.031 -1.1682  1.2920  0.2957
11335TIP3   OH255419   1.191   0.877   5.277 -0.0959 -0.5216  0.2575
11335TIP3    H155420   1.159   0.789   5.298  1.5439 -0.9298  1.2388
11335TIP3    H255421   1.190   0.882   5.182  0.6272 -1.9493  0.1595
11336TIP3   OH255422   1.330   0.485   1.180 -0.0590 -0.3638  0.0303
11336TIP3    H155423   1.372   0.548   1.122  2.2301 -1.1140  0.7816
11336TIP3    H255424   1.310   0.535   1.259  0.9284 -0.3455  0.2800
11337TIP3   OH255425   0.559   2.363   4.257 -0.1505  0.0574 -0.7393
11337TIP3    H155426   0.542   2.287   4.200  0.5603 -0.1297 -0.7048
11337TIP3    H255427   0.619   2.330   4.323 -0.6702  0.3795 -0.0954
11338TIP3   OH255428   1.654   1.903   0.274 -0.1210 -0.3965  0.3679
11338TIP3    H155429   1.687   1.993   0.283 -2.2704  0.8202 -2.4640
11338TIP3    H255430   1.591   1.894   0.346 -0.5467  0.7374  0.1703
11339TIP3   OH255431   3.454   4.841  11.047  0.5666  0.6014  0.2838
11339TIP3    H155432   3.505   4.761  11.061  0.2450  0.0622 -1.3696
11339TIP3    H255433   3.403   4.823  10.968 -0.8062  1.8152  0.8491
11340TIP3   OH255434   3.009   6.516  11.785 -0.0520 -0.4145 -0.0015
11340TIP3    H155435   2.974   6.569  11.714 -2.5284 -1.1079  0.5927
11340TIP3    H255436   3.014   6.427  11.748  3.9068  0.0211 -0.9436
11341TIP3   OH255437   5.005   5.715  16.526 -0.4123  0.1101 -0.5518
11341TIP3    H155438   4.986   5.624  16.504 -1.2636  0.5600 -1.8502
11341TIP3    H255439   4.921   5.752  16.552 -0.4504  0.9572 -1.7800
11342TIP3   OH255440   3.281   4.256  14.296  0.2806 -0.0255 -0.1832
11342TIP3    H155441   3.245   4.192  14.358 -1.1450 -0.0826 -1.0094
11342TIP3    H255442   3.366   4.220  14.271  0.0336 -0.9790  0.2847
11343TIP3   OH255443   5.616   5.119   3.868 -0.2771  0.5353  0.0664
11343TIP3    H155444   5.622   5.197   3.812 -0.4290  2.0785  2.0619
11343TIP3    H255445   5.704   5.109   3.905  0.1130 -1.1185 -1.1789
11344TIP3   OH255446   4.648   6.498  15.309 -0.0766 -0.0527 -0.7382
11344TIP3    H155447   4.706   6.504  15.234  1.0648 -1.2190 -0.0008
11344TIP3    H255448   4.706   6.482  15.384 -1.3141 -1.1442  0.0484
11345TIP3   OH255449   2.207   6.538  14.121  0.1989 -0.3387 -0.0023
11345TIP3    H155450   2.202   6.622  14.075  0.3241 -0.6808 -0.6440
11345TIP3    H255451   2.115   6.513  14.133  0.1781 -0.7540 -1.0018
11346TIP3   OH255452   0.814   6.447   2.112  0.2270  0.4746 -0.1529
11346TIP3    H155453   0.740   6.492   2.152  0.2812  2.6183 -2.2685
11346TIP3    H255454   0.888   6.506   2.125  1.4033 -1.1565  0.9988
11347TIP3   OH255455   0.007   3.302  12.242 -0.9590 -0.4421  0.0402
11347TIP3    H155456  -0.071   3.335  12.285 -0.6372 -0.3623  0.5674
11347TIP3    H255457  -0.024   3.229  12.189 -1.6517  0.5771 -1.0165
11348TIP3   OH255458   6.335   6.247   2.818  0.2236  0.4652  0.2522
11348TIP3    H155459   6.409   6.192   2.841 -0.0467  0.3106  0.7775
11348TIP3    H255460   6.298   6.206   2.740  0.5465  0.4040  0.1317
11349TIP3   OH255461   0.573   6.334   1.125  0.0122 -1.1735 -0.1040
11349TIP3    H155462   0.583   6.280   1.203 -0.4522  0.3595  1.0576
11349TIP3    H255463   0.497   6.297   1.080  0.3882 -2.1764  0.0491
11350TIP3   OH255464   3.197   5.696  12.972  1.0726  0.3543  0.6136
11350TIP3    H155465   3.159   5.717  12.887  0.9784  0.1858  0.6134
11350TIP3    H255466   3.249   5.773  12.995  0.8433  0.5274  0.5501
11351TIP3   OH255467   0.904   5.737   5.398 -0.0871  0.5741  0.2302
11351TIP3    H155468   0.931   5.693   5.318 -1.6604  0.9226 -0.5361
11351TIP3    H255469   0.945   5.687   5.468 -1.9464 -2.3289 -0.5663
11352TIP3   OH255470   2.450   5.621   0.337 -0.5753 -0.0757 -0.1984
11352TIP3    H155471   2.386   5.684   0.368 -2.0817 -0.9904 -1.2968
11352TIP3    H255472   2.417   5.536   0.367  1.2147 -0.4082  0.9403
11353TIP3   OH255473   1.424   1.761  16.482  0.0024  0.2423  0.0496
11353TIP3    H155474   1.440   1.686  16.425 -1.4162  1.0596 -1.5205
11353TIP3    H255475   1.511   1.790  16.508  0.6150 -1.2643 -0.2144
11354TIP3   OH255476   4.342   5.969   6.010 -0.2842  0.1064  0.7591
11354TIP3    H155477   4.394   6.045   5.983  2.2484 -1.1220  1.7911
11354TIP3    H255478   4.346   5.971   6.106  0.0298 -1.4215  0.7951
11355TIP3   OH255479   1.057   4.991  12.050 -0.4163 -0.7299  0.2048
11355TIP3    H155480   1.009   4.913  12.025 -0.5300 -0.8729  0.8365
11355TIP3    H255481   1.095   5.024  11.969  0.0575 -1.7262  0.0081
11356TIP3   OH255482   2.945   1.373  14.677 -0.4480 -0.3033 -0.3425
11356TIP3    H155483   3.002   1.296  14.676  0.8804  0.6333 -1.1666
11356TIP3    H255484   2.999   1.442  14.715 -1.3924  0.3831 -0.2112
11357TIP3   OH255485   6.654   4.270  13.769  0.0282  0.0656  0.7168
11357TIP3    H155486   6.716   4.213  13.724  1.3923  1.0402  1.2687
11357TIP3    H255487   6.635   4.339  13.705 -0.5929 -0.2904  0.5104
11358TIP3   OH255488   4.720   0.767   4.424 -0.2505 -0.3430  0.1304
11358TIP3    H155489   4.686   0.849   4.461  1.0924  0.0342  0.5947
11358TIP3    H255490   4.751   0.792   4.336  1.6270  0.0673  0.8540
11359TIP3   OH255491   3.419   4.481   2.446 -0.3473  0.2421 -0.0042
11359TIP3    H155492   3.413   4.564   2.399 -1.0489  0.1968  0.0064
11359TIP3    H255493   3.414   4.414   2.378  0.1340  0.2021 -0.0044
11360TIP3   OH255494   4.275   0.581   2.824 -0.5632 -0.5677 -0.1385
11360TIP3    H155495   4.347   0.563   2.885 -0.9833 -2.2807 -0.0904
11360TIP3    H255496   4.315   0.575   2.737 -0.6095 -1.4545 -0.1104
11361TIP3   OH255497   2.003   6.018   1.203 -0.6243  0.1117 -0.3482
11361TIP3    H155498   2.094   6.027   1.231 -0.3878  0.2307 -1.1462
11361TIP3    H255499   1.993   6.082   1.133 -1.3620  0.1938 -0.1699
11362TIP3   OH255500   5.021   5.959   0.335 -0.0614 -0.4121 -0.5475
11362TIP3    H155501   4.989   5.972   0.245 -1.1795 -2.7279 -0.5513
11362TIP3    H255502   5.105   5.915   0.324  0.8143  1.1760 -0.4496
11363TIP3   OH255503   0.793   3.130   0.745  0.1897  0.0711 -0.4474
11363TIP3    H155504   0.730   3.107   0.813 -1.3778 -0.1294 -1.9058
11363TIP3    H255505   0.836   3.048   0.723 -0.6294 -0.2340 -0.9663
11364TIP3   OH255506   5.993   1.998   4.630 -0.0831  0.5823 -0.0668
11364TIP3    H155507   6.005   2.076   4.576  1.6579  0.8109  0.5602
11364TIP3    H255508   5.986   2.031   4.719 -0.2516  0.0784  0.1106
11365TIP3   OH255509   1.742   1.583  12.652 -0.2590 -0.1721 -0.3517
11365TIP3    H155510   1.816   1.633  12.617 -0.5118  0.4363 -0.0436
11365TIP3    H255511   1.665   1.634  12.625 -0.5526 -0.6922 -0.4958
11366TIP3   OH255512   6.053   0.686   4.178 -0.4014 -0.4538  0.1780
11366TIP3    H155513   6.130   0.658   4.128 -0.2503  0.6692 -0.2290
11366TIP3    H255514   5.994   0.724   4.112 -0.0529  1.3769  0.8756
11367TIP3   OH255515   3.505   3.940   5.696  0.8807 -0.4974  0.0937
11367TIP3    H155516   3.511   3.911   5.787  2.4512 -0.5584 -0.0117
11367TIP3    H255517   3.593   3.970   5.674  0.8873 -1.7895 -1.8460
11368TIP3   OH255518   3.275   0.129   5.548 -0.5984 -0.0756  0.1725
11368TIP3    H155519   3.306   0.167   5.630 -1.6551 -2.6253  1.8585
11368TIP3    H255520   3.202   0.072   5.573 -0.2395 -1.8224 -2.3585
11369TIP3   OH255521   5.393   6.185   5.031  0.0369 -0.3659 -0.1656
11369TIP3    H155522   5.344   6.267   5.027  2.8290  1.4857  0.9255
11369TIP3    H255523   5.379   6.144   4.946 -3.3418 -0.0359  0.0834
11370TIP3   OH255524   4.994   2.753   2.671  0.2415  0.6196 -0.1619
11370TIP3    H155525   5.018   2.664   2.696 -1.8658 -0.0888 -0.4509
11370TIP3    H255526   4.943   2.785   2.745  2.4505  2.3250  0.7475
11371TIP3   OH255527   2.419   3.947   4.513 -0.1524 -0.6283  0.0286
11371TIP3    H155528   2.377   3.893   4.579 -0.2975 -2.3228 -1.3831
11371TIP3    H255529   2.365   3.935   4.434  1.2362 -0.4320 -0.9943
11372TIP3   OH255530   6.472   6.568  17.045  0.0401 -0.6552 -0.2600
11372TIP3    H155531   6.513   6.526  16.970  0.0684  1.8001 -1.7084
11372TIP3    H255532   6.515   6.653  17.052 -2.4076  0.6223  0.3161
11373TIP3   OH255533   6.576   4.475  10.939  0.9744 -0.0814 -0.1997
11373TIP3    H155534   6.631   4.421  10.996  0.7198  0.3437  0.4651
11373TIP3    H255535   6.577   4.430  10.855  5.9056  2.0313 -1.6788
11374TIP3   OH255536   0.524   6.186   6.103 -0.2043  0.3162  0.3138
11374TIP3    H155537   0.437   6.225   6.114  0.6008  1.7729  2.1181
11374TIP3    H255538   0.508   6.092   6.099 -1.9088  0.5968 -0.1365
11375TIP3   OH255539   2.357   1.241  15.887 -0.0444  0.1107  0.4007
11375TIP3    H155540   2.280   1.234  15.942  0.2823 -0.2258  0.8283
11375TIP3    H255541   2.329   1.294  15.812 -0.0837  1.9175  1.6275
11376TIP3   OH255542   0.939   4.040   2.866 -0.3031 -0.0413 -0.6876
11376TIP3    H155543   0.942   3.947   2.846 -0.8916 -0.1525 -0.2788
11376TIP3    H255544   0.936   4.044   2.962  0.4265  0.4246 -0.6737
11377TIP3   OH255545   3.527   0.035   3.444 -0.4840 -0.3740 -0.8299
11377TIP3    H155546   3.519   0.035   3.348  0.0823 -0.2860 -0.8819
11377TIP3    H255547   3.615  -0.001   3.460  0.1715  1.3559 -0.4031
11378TIP3   OH255548   3.344   4.549   5.798  0.5547 -0.2084  0.0002
11378TIP3    H155549   3.368   4.496   5.874  2.0999  0.7039  0.1917
11378TIP3    H255550   3.359   4.639   5.826 -2.0279  0.3841 -0.3073
11379TIP3   OH255551   5.527   4.033   2.856 -0.0613  0.1167  0.0240
11379TIP3    H155552   5.525   4.113   2.803  1.5628  0.1706  0.0047
11379TIP3    H255553   5.457   4.046   2.921  0.5496  1.8337  0.3940
11380TIP3   OH255554   3.061   3.208   3.600  0.1893 -0.1072  1.3223
11380TIP3    H155555   2.987   3.166   3.555 -0.6620  2.2570  0.3399
11380TIP3    H255556   3.139   3.169   3.560 -0.5342  1.2213 -1.6512
11381TIP3   OH255557   0.833   2.907   3.851  0.0121 -0.5297  0.0105
11381TIP3    H155558   0.761   2.966   3.831  0.6946  0.7944  1.2784
11381TIP3    H255559   0.863   2.934   3.938  1.2802 -1.8096  0.0136
11382TIP3   OH255560   4.660   1.538  11.684 -0.6410 -0.8534  0.0108
11382TIP3    H155561   4.719   1.531  11.609  2.7116  1.4731  2.1387
11382TIP3    H255562   4.617   1.623  11.673 -0.4244 -0.6741  0.5169
11383TIP3   OH255563   0.575   4.030   3.280 -0.4344 -0.3007  0.0782
11383TIP3    H155564   0.636   4.063   3.346  0.3376  0.6905 -1.0652
11383TIP3    H255565   0.527   4.107   3.251 -0.8847 -0.7429 -0.3772
11384TIP3   OH255566   4.608   5.671   0.531 -0.2333 -0.4776 -0.8644
11384TIP3    H155567   4.656   5.588   0.536 -0.9425 -0.8121  1.3904
11384TIP3    H255568   4.676   5.736   0.515  1.3032 -0.8080  3.1805
11385TIP3   OH255569   1.522   5.652  13.439  0.3031 -0.1418  0.4715
11385TIP3    H155570   1.496   5.567  13.476 -0.7888 -0.1740 -0.3169
11385TIP3    H255571   1.501   5.645  13.346  4.7777 -0.7831 -0.7229
11386TIP3   OH255572   2.472   3.762   1.146  0.0400 -0.5354 -0.1976
11386TIP3    H155573   2.460   3.669   1.168 -0.0552 -0.2686  0.9276
11386TIP3    H255574   2.391   3.804   1.175  0.1941 -0.0501 -0.4618
11387TIP3   OH255575   6.569   4.335  10.717 -0.3639 -0.1610 -0.2836
11387TIP3    H155576   6.652   4.298  10.684 -1.0712 -1.8747 -0.2478
11387TIP3    H255577   6.502   4.298  10.659 -1.1769  0.6455  0.1237
11388TIP3   OH255578   6.081   4.234  15.335 -0.3019  0.1771  0.4338
11388TIP3    H155579   6.003   4.218  15.387 -0.2447 -0.9478  0.2021
11388TIP3    H255580   6.153   4.234  15.399 -0.2005 -1.4692  0.3694
11389TIP3   OH255581   0.630   4.279   6.230 -0.2910  0.0013  0.8387
11389TIP3    H155582   0.694   4.330   6.279  0.9813  0.0260 -0.7452
11389TIP3    H255583   0.617   4.200   6.282  2.6063 -0.9449  0.3274
11390TIP3   OH255584   5.287   3.679  13.953  0.4253 -0.5726 -0.1455
11390TIP3    H155585   5.251   3.758  13.912 -0.6492 -0.5158  0.8545
11390TIP3    H255586   5.357   3.652  13.895  0.2682  0.6541 -0.9450
11391TIP3   OH255587   5.838   4.322  15.072  0.2779 -0.1213  0.1776
11391TIP3    H155588   5.748   4.297  15.089  0.2468 -1.2107 -1.3760
11391TIP3    H255589   5.860   4.384  15.142 -1.8953  0.7342  0.1736
11392TIP3   OH255590   4.241   2.035  14.504  0.6443 -0.2234 -0.0352
11392TIP3    H155591   4.242   1.967  14.437 -0.3112 -0.3279  0.0434
11392TIP3    H255592   4.292   2.106  14.467  1.4531 -0.8836 -0.2224
11393TIP3   OH255593   4.413   0.533  16.089 -0.0377 -0.2932 -0.0570
11393TIP3    H155594   4.325   0.545  16.054  0.5089 -0.6336 -1.6234
11393TIP3    H255595   4.426   0.608  16.147 -1.6064 -0.6155  0.7537
11394TIP3   OH255596   1.680   6.717   0.940 -0.1607 -0.2080 -0.2987
11394TIP3    H155597   1.735   6.694   1.016  0.0814  0.4506 -0.2673
11394TIP3    H255598   1.590   6.705   0.972 -0.0594 -0.0357  0.0642
11395TIP3   OH255599   0.841   3.459  15.700  0.3827  0.1785  0.3205
11395TIP3    H155600   0.907   3.401  15.662 -0.9885 -1.7998  0.8375
11395TIP3    H255601   0.870   3.473  15.790 -0.2560 -1.3074  0.7785
11396TIP3   OH255602   2.549   5.139   1.197  0.1424  0.6200  0.1942
11396TIP3    H155603   2.528   5.155   1.105 -0.2660  2.0124  0.5062
11396TIP3    H255604   2.472   5.095   1.232  0.8734 -1.2675 -0.4402
11397TIP3   OH255605   1.269   2.908  15.976  0.0569 -0.0509  0.6695
11397TIP3    H155606   1.274   2.813  15.965 -0.2500 -0.0632  0.6372
11397TIP3    H255607   1.346   2.942  15.930  0.0100 -0.2608  0.4372
11398TIP3   OH255608   0.694   4.248  14.803  0.7696 -0.3569 -0.2210
11398TIP3    H155609   0.763   4.207  14.752  1.4751  1.5096 -0.8456
11398TIP3    H255610   0.626   4.271  14.739  0.2027 -0.8890  0.1754
11399TIP3   OH255611   4.079   1.214  14.208  0.3898  0.1986  0.0347
11399TIP3    H155612   4.032   1.289  14.246  1.2509  0.6453  0.2522
11399TIP3    H255613   4.122   1.173  14.283 -1.4897 -1.6224  0.2178
11400TIP3   OH255614   1.971   1.768   1.446  0.1491 -0.7280 -0.0214
11400TIP3    H155615   2.036   1.707   1.412  0.7885  0.9151 -1.9142
11400TIP3    H255616   1.892   1.751   1.393 -0.4248 -1.4397  1.0164
11401TIP3   OH255617   1.022   2.266  11.412  0.8459 -0.3998 -0.2117
11401TIP3    H155618   0.951   2.203  11.423 -0.7370  1.4077  0.5450
11401TIP3    H255619   1.102   2.213  11.411 -0.4754 -2.5152 -1.1198
11402TIP3   OH255620   4.291   4.610   2.171  0.3515  0.0064 -0.2654
11402TIP3    H155621   4.322   4.686   2.122 -0.4760  0.7877  0.3808
11402TIP3    H255622   4.274   4.544   2.104  0.6925  0.5262 -0.8810
11403TIP3   OH255623   1.672   6.768   3.516 -0.2918  0.4209 -0.5572
11403TIP3    H155624   1.605   6.823   3.556 -0.5914  0.2372 -0.8123
11403TIP3    H255625   1.628   6.722   3.445 -0.2813 -0.8730  0.2404
11404TIP3   OH255626   5.056   4.963   0.562 -0.5869 -0.3454  0.0095
11404TIP3    H155627   5.009   5.023   0.504 -0.1079  0.2262  0.2038
11404TIP3    H255628   4.989   4.929   0.621 -0.9199 -0.2506 -0.3107
11405TIP3   OH255629   6.600   4.263   4.296 -0.0150 -0.6275  0.3557
11405TIP3    H155630   6.618   4.268   4.202  2.0642  1.2507  0.7809
11405TIP3    H255631   6.568   4.350   4.319 -2.5025 -1.6500  1.0893
11406TIP3   OH255632   4.820   2.680   3.906  0.1386 -0.2628 -0.9995
11406TIP3    H155633   4.736   2.692   3.950  0.7607 -0.1253  0.2014
11406TIP3    H255634   4.797   2.645   3.820 -1.1176 -0.6878 -0.5227
11407TIP3   OH255635   5.387   0.982   4.373 -0.5335 -0.0885  0.2249
11407TIP3    H155636   5.472   0.945   4.348  0.5381  0.8561  2.2331
11407TIP3    H255637   5.341   0.909   4.415  0.4898  0.0887  1.7352
11408TIP3   OH255638   3.982   6.259  14.949  0.1150  0.5565  0.7285
11408TIP3    H155639   3.908   6.316  14.970 -0.2394  0.5671 -0.4422
11408TIP3    H255640   3.946   6.170  14.956  0.2061  0.5372  0.9338
11409TIP3   OH255641   6.666   6.099   5.116 -0.6343 -0.0318  0.8753
11409TIP3    H155642   6.704   6.052   5.190  0.4763 -0.1558  0.2464
11409TIP3    H255643   6.642   6.185   5.151 -0.8703 -0.3783  1.5675
11410TIP3   OH255644   2.077   5.869  15.665  0.1842  0.2190  0.5815
11410TIP3    H155645   2.158   5.820  15.652  1.6794  2.9177 -1.1011
11410TIP3    H255646   2.102   5.942  15.722 -1.1258  0.9265  0.2846
11411TIP3   OH255647   1.226   5.584  13.598 -0.1242  0.1239  0.0951
11411TIP3    H155648   1.230   5.590  13.693  0.7436 -0.0871  0.0847
11411TIP3    H255649   1.302   5.530  13.574  0.1657  0.8778 -0.7694
11412TIP3   OH255650   3.775   4.668   0.521  0.1732 -0.1655 -0.0800
11412TIP3    H155651   3.753   4.754   0.556  1.6304  0.4328 -0.5435
11412TIP3    H255652   3.736   4.606   0.582 -0.4134  0.8214  0.5763
11413TIP3   OH255653   0.325   4.175   2.460 -0.6741  0.1795 -0.2778
11413TIP3    H155654   0.401   4.233   2.461 -0.5586  0.1554 -2.4123
11413TIP3    H255655   0.250   4.233   2.471 -0.4457  0.4433 -0.1130
11414TIP3   OH255656   0.306   1.595   3.421  0.3507 -0.1788  0.3660
11414TIP3    H155657   0.232   1.585   3.482  1.0223 -0.6034  1.1312
11414TIP3    H255658   0.336   1.506   3.406 -0.8604 -0.2769 -1.9835
11415TIP3   OH255659   3.523   3.930   1.724 -0.0173 -0.0954  0.0248
11415TIP3    H155660   3.597   3.973   1.683  0.0563 -0.3657 -0.1220
11415TIP3    H255661   3.453   3.934   1.658 -0.6645  1.6100  0.7257
11416TIP3   OH255662   1.930   3.527  15.563 -0.1797 -0.4741  0.5560
11416TIP3    H155663   1.916   3.620  15.548 -0.4615 -0.3117  1.7177
11416TIP3    H255664   1.897   3.484  15.484  1.8957  0.5040 -0.9501
11417TIP3   OH255665   0.259   5.860   4.969  0.4798  0.1251  0.8078
11417TIP3    H155666   0.196   5.917   4.924  1.2543  0.9961  0.7922
11417TIP3    H255667   0.217   5.774   4.970 -0.0641  0.3449 -0.5455
11418TIP3   OH255668   5.536   5.210   2.921  0.0269  0.5625  0.2957
11418TIP3    H155669   5.456   5.197   2.870  0.8383 -0.5207 -0.7428
11418TIP3    H255670   5.597   5.251   2.859  0.1587  1.7891  1.2002
11419TIP3   OH255671   4.269   3.201  12.544 -0.5480  0.2084 -0.2121
11419TIP3    H155672   4.272   3.209  12.449 -2.0315  1.6740 -0.1842
11419TIP3    H255673   4.175   3.208  12.566 -0.3100 -0.8989  1.2940
11420TIP3   OH255674   1.571   1.709  15.275  0.4533  0.0684 -0.1155
11420TIP3    H155675   1.641   1.649  15.247 -0.4766 -0.6400 -1.0167
11420TIP3    H255676   1.600   1.795  15.245  1.6510  0.0496  0.8937
11421TIP3   OH255677   3.352   6.475  11.139  0.3879  0.8514  0.5344
11421TIP3    H155678   3.365   6.570  11.137  0.0772  0.8972  0.6481
11421TIP3    H255679   3.417   6.441  11.078  0.4577  1.1406  0.4438
11422TIP3   OH255680   4.590   1.146  12.039  0.1784 -0.6122  0.0672
11422TIP3    H155681   4.667   1.201  12.046  0.4255 -1.0252  0.7710
11422TIP3    H255682   4.550   1.169  11.955 -0.5005  1.6429  0.9472
11423TIP3   OH255683   1.257   3.255   5.722  0.1823  0.2912  0.0530
11423TIP3    H155684   1.306   3.173   5.733 -1.0399 -0.4765 -0.0461
11423TIP3    H255685   1.216   3.270   5.807 -1.0913 -0.2090 -0.4504
11424TIP3   OH255686   5.952   3.125  11.575  0.0585  0.1705 -0.2704
11424TIP3    H155687   5.884   3.086  11.630  0.2795 -0.6727 -0.5834
11424TIP3    H255688   5.939   3.086  11.489  0.6468  0.3654 -0.4529
11425TIP3   OH255689   3.279   4.162   1.115 -0.0279  0.5606  0.9493
11425TIP3    H155690   3.200   4.138   1.067  0.4716  0.9633 -0.0995
11425TIP3    H255691   3.262   4.133   1.205 -0.6105 -1.0877  0.3528
11426TIP3   OH255692   5.107   3.248  11.774 -0.4845 -0.0373  0.3267
11426TIP3    H155693   5.081   3.247  11.682 -0.2186  3.1929  0.1015
11426TIP3    H255694   5.034   3.290  11.819  0.8456  1.7094  0.9545
11427TIP3   OH255695   4.301   0.547  13.909 -0.4939  0.2206  0.4457
11427TIP3    H155696   4.320   0.560  13.816  0.4924 -0.8670  0.4732
11427TIP3    H255697   4.367   0.599  13.955 -0.2958 -0.1082  0.5362
11428TIP3   OH255698   3.223   0.722  16.718  0.3088  0.0445  0.3114
11428TIP3    H155699   3.153   0.751  16.659  1.0303 -0.4677 -0.8184
11428TIP3    H255700   3.192   0.639  16.753 -0.9542  1.1992  2.1610
11429TIP3   OH255701   1.021   6.075  15.202 -0.0271 -0.3726 -0.1379
11429TIP3    H155702   0.964   5.999  15.212  1.1048 -1.4058 -1.3195
11429TIP3    H255703   0.995   6.114  15.119 -0.2236  0.2416  0.1970
11430TIP3   OH255704   1.130   1.284   1.070 -0.1884 -0.1870 -0.0249
11430TIP3    H155705   1.044   1.306   1.036  0.3053 -0.2354 -1.3731
11430TIP3    H255706   1.118   1.202   1.117 -1.0485  0.3002  0.6356
11431TIP3   OH255707   0.869   4.766  17.148  0.3980  0.6365 -0.1303
11431TIP3    H155708   0.860   4.794  17.057 -1.3739  0.2914 -0.0968
11431TIP3    H255709   0.909   4.840  17.193 -1.0184  1.7983 -0.7188
11432TIP3   OH255710   1.722   4.566   5.345 -0.4199 -0.0587 -0.7137
11432TIP3    H155711   1.635   4.558   5.385 -0.9601 -0.1816 -1.8550
11432TIP3    H255712   1.778   4.507   5.395 -0.7284  0.8223  0.7241
11433TIP3   OH255713   5.236   3.824  17.083  0.0091  0.2516  0.0437
11433TIP3    H155714   5.233   3.813  16.988 -2.9322 -0.6349  0.1481
11433TIP3    H255715   5.214   3.737  17.118 -1.2446  1.0935  1.4572
11434TIP3   OH255716   2.612   0.848   2.831  0.4919  0.0696  0.1522
11434TIP3    H155717   2.585   0.934   2.800  0.5839 -0.4404 -1.4346
11434TIP3    H255718   2.551   0.828   2.902  0.9726  1.7498  1.1058
11435TIP3   OH255719   4.312   5.995   1.523 -0.6970 -0.6758 -0.0238
11435TIP3    H155720   4.394   5.977   1.477 -0.5841 -0.8628  0.2528
11435TIP3    H255721   4.276   6.072   1.478  0.1829  0.1128  0.5839
11436TIP3   OH255722   6.622   2.292   1.622  0.2768  0.2831 -0.2917
11436TIP3    H155723   6.606   2.202   1.596  0.1019 -0.0210  0.7951
11436TIP3    H255724   6.643   2.338   1.541  3.1712 -1.3108 -0.5739
11437TIP3   OH255725   5.190   5.284  14.227  0.3633 -0.2068  0.1210
11437TIP3    H155726   5.201   5.356  14.290  0.6202 -0.5101  0.4234
11437TIP3    H255727   5.217   5.206  14.275  2.4272 -0.2149 -0.9484
11438TIP3   OH255728   1.508   1.783  13.650 -0.6148  0.1428  0.5737
11438TIP3    H155729   1.491   1.732  13.571 -2.0849  0.1265  0.8579
11438TIP3    H255730   1.568   1.730  13.702 -0.9115 -0.5804  0.1762
11439TIP3   OH255731   6.496   6.407  15.090 -0.3170  0.4986 -0.4285
11439TIP3    H155732   6.435   6.430  15.160 -1.9514 -0.8243 -1.3481
11439TIP3    H255733   6.559   6.480  15.088 -1.2785  1.4301  1.2079
11440TIP3   OH255734   2.846   0.428  16.272 -0.7461  0.1274 -0.2218
11440TIP3    H155735   2.909   0.499  16.258  1.1851 -1.2937  0.7164
11440TIP3    H255736   2.884   0.353  16.226 -1.7377 -0.7782  0.3840
11441TIP3   OH255737   0.866   1.968   5.583 -0.6407 -0.6588  0.9532
11441TIP3    H155738   0.897   1.986   5.671  0.6629 -0.3068  0.4456
11441TIP3    H255739   0.911   1.887   5.558  0.6906  0.3766 -0.1563
11442TIP3   OH255740   3.535   6.405   0.323 -0.4452  0.0516 -0.0086
11442TIP3    H155741   3.507   6.317   0.295  0.8874 -0.9069  1.5237
11442TIP3    H255742   3.617   6.391   0.370 -2.2270  1.5137  4.0136
11443TIP3   OH255743   1.143   3.198  11.425 -0.0601 -0.4052  0.0515
11443TIP3    H155744   1.158   3.233  11.337 -1.4427  0.7676  0.2339
11443TIP3    H255745   1.052   3.221  11.445  0.4605  0.1055  2.1219
11444TIP3   OH255746   5.990   2.896  16.465 -0.1044 -0.7123  0.1429
11444TIP3    H155747   5.930   2.895  16.391  0.5852 -0.1400 -0.4318
11444TIP3    H255748   6.035   2.980  16.460 -0.7757 -0.2094  1.8125
11445TIP3   OH255749   6.392   3.941  14.304  0.1951  0.1440  0.4445
11445TIP3    H155750   6.451   3.964  14.232 -1.2560  1.4431 -0.3850
11445TIP3    H255751   6.315   3.903  14.261  0.9138 -2.8846  1.5789
11446TIP3   OH255752   5.725   2.942  14.809 -0.0330 -0.2156  0.3081
11446TIP3    H155753   5.752   2.871  14.866 -0.3977  0.5938  1.5316
11446TIP3    H255754   5.665   2.902  14.746 -0.3948 -0.9375  1.1086
11447TIP3   OH255755   3.193   5.726  11.188 -0.3984  0.3357 -0.2178
11447TIP3    H155756   3.162   5.811  11.219 -0.8953 -0.1344  0.6100
11447TIP3    H255757   3.242   5.746  11.108 -0.4664  1.4002 -0.0081
11448TIP3   OH255758   1.586   5.347  16.719 -0.2099  0.2970 -0.6549
11448TIP3    H155759   1.636   5.286  16.665  0.5135 -1.0259  1.4022
11448TIP3    H255760   1.494   5.324  16.703  0.0531 -1.5028  0.2097
11449TIP3   OH255761   4.192   5.643  16.946 -0.1307 -0.2543 -0.0582
11449TIP3    H155762   4.257   5.698  16.989  0.1545 -0.2833 -0.4448
11449TIP3    H255763   4.183   5.681  16.859  1.2091 -1.7152 -0.8918
11450TIP3   OH255764   5.555   6.033   3.977 -0.4570  0.1590 -0.4356
11450TIP3    H155765   5.540   5.939   3.964 -1.3623  0.1225  0.7242
11450TIP3    H255766   5.650   6.040   3.991 -0.3283 -0.5257 -0.9062
11451TIP3   OH255767   0.165   2.979  14.481  0.5572  0.1607  0.1663
11451TIP3    H155768   0.142   2.961  14.572 -0.1199  0.7010  0.1077
11451TIP3    H255769   0.240   2.922  14.464 -0.9887 -1.9896  0.2043
11452TIP3   OH255770   2.885   6.650  11.568  0.0008 -0.4888  0.1185
11452TIP3    H155771   2.793   6.645  11.542 -0.3426  1.2768  0.8734
11452TIP3    H255772   2.910   6.741  11.551  1.5542 -0.8930  0.1193
11453TIP3   OH255773   3.580   3.081   4.128 -0.0023  0.3325 -0.7236
11453TIP3    H155774   3.531   3.108   4.050  0.8265  0.9411 -1.0376
11453TIP3    H255775   3.669   3.065   4.097 -0.2592 -2.0659 -0.4031
11454TIP3   OH255776   4.607   4.759   4.739 -0.4183  0.2002 -0.0232
11454TIP3    H155777   4.609   4.724   4.828  0.4135  1.5064  0.4982
11454TIP3    H255778   4.547   4.833   4.743  1.9544  2.2275  0.2769
11455TIP3   OH255779   2.140   0.872  10.803 -0.1848 -0.2454  0.3783
11455TIP3    H155780   2.097   0.789  10.825  1.2323 -0.9940  0.4468
11455TIP3    H255781   2.158   0.912  10.888 -0.6484  0.0232  0.3527
11456TIP3   OH255782   5.431   0.425   5.819  0.3694 -0.2579  0.1051
11456TIP3    H155783   5.355   0.482   5.830  0.1850 -0.5195  0.2070
11456TIP3    H255784   5.405   0.342   5.859  0.6987 -0.3595  0.1149
11457TIP3   OH255785   4.864   6.124   5.814  0.1603  0.8892  0.1572
11457TIP3    H155786   4.873   6.065   5.889 -0.6732  0.8618  0.2396
11457TIP3    H255787   4.951   6.125   5.774  0.3629  0.1552  0.5616
11458TIP3   OH255788   6.162   5.224   1.293  0.3576 -0.2761  0.6751
11458TIP3    H155789   6.131   5.303   1.337 -2.0038 -0.0718 -1.1443
11458TIP3    H255790   6.120   5.152   1.341  0.2258 -0.2391  0.6168
11459TIP3   OH255791   5.214   6.467   5.422  0.7767 -0.4284 -0.7785
11459TIP3    H155792   5.284   6.505   5.475 -0.9388  0.8384  0.7138
11459TIP3    H255793   5.192   6.535   5.358 -1.2668  0.6098  0.9131
11460TIP3   OH255794   3.198   2.129  14.900 -0.3174  0.1175 -0.7007
11460TIP3    H155795   3.274   2.112  14.844  0.0092  0.1125 -0.2693
11460TIP3    H255796   3.152   2.201  14.858  0.6987  1.0707 -0.2516
11461TIP3   OH255797   4.796   2.421  12.551  0.2398  0.0827 -0.1801
11461TIP3    H155798   4.820   2.388  12.464  1.1172  1.0866 -0.3459
11461TIP3    H255799   4.784   2.343  12.604  0.9553 -0.5243 -0.8827
11462TIP3   OH255800   0.608   1.945   5.686 -0.0974 -0.1532 -0.0091
11462TIP3    H155801   0.695   1.945   5.645 -0.5437 -0.8227 -1.0053
11462TIP3    H255802   0.603   2.028   5.733  0.2934  0.8452 -1.6675
11463TIP3   OH255803   5.608   2.252   4.576 -0.5494  0.1192 -0.7734
11463TIP3    H155804   5.595   2.244   4.670  0.3564 -0.8962 -0.7225
11463TIP3    H255805   5.634   2.344   4.563  1.9983 -0.3690  0.3257
11464TIP3   OH255806   6.185   3.539  14.115  0.3028  0.2014  0.2734
11464TIP3    H155807   6.155   3.567  14.028  1.6619  2.0657  0.3566
11464TIP3    H255808   6.239   3.461  14.098  0.3007  0.3627 -0.5084
11465TIP3   OH255809   5.188   3.931  16.586  0.2298  0.4289  0.2714
11465TIP3    H155810   5.203   3.976  16.502  1.3092  0.6506  0.5614
11465TIP3    H255811   5.207   3.998  16.652  0.1519  0.0365  0.6927
11466TIP3   OH255812   3.627   3.354  14.556  0.0785  0.2953  0.5309
11466TIP3    H155813   3.582   3.327  14.475 -0.3561  1.2023  0.4590
11466TIP3    H255814   3.595   3.293  14.622  1.2283 -1.1468 -0.1550
11467TIP3   OH255815   2.697   4.214   1.012 -0.0213  0.2971  0.0599
11467TIP3    H155816   2.696   4.120   0.994 -1.0144  0.1606  0.7541
11467TIP3    H255817   2.606   4.241   1.004 -0.0620  0.7891  1.8238
11468TIP3   OH255818   1.030   3.012  10.016  0.5673  0.5604 -0.1129
11468TIP3    H155819   0.977   2.936   9.993  0.7530  0.3103  0.2673
11468TIP3    H255820   0.968   3.079  10.044  0.4566  0.2624  0.3497
11469TIP3   OH255821   4.050   0.488  13.012 -0.6807 -0.2319 -0.2055
11469TIP3    H155822   4.097   0.566  12.985  1.1565 -1.0359  0.5222
11469TIP3    H255823   3.989   0.470  12.940 -0.5073  1.3434 -0.7724
11470TIP3   OH255824   3.195   4.996   1.584 -0.3937 -0.1287  0.3961
11470TIP3    H155825   3.124   4.942   1.549  0.9996 -2.5590  1.0766
11470TIP3    H255826   3.194   4.979   1.678 -0.3933  1.7425  0.7811
11471TIP3   OH255827   5.701   2.525   0.458 -0.1077  0.0175 -0.5895
11471TIP3    H155828   5.665   2.451   0.410 -0.0088  1.1088 -2.4497
11471TIP3    H255829   5.676   2.602   0.406  0.8410  1.1935  0.6061
11472TIP3   OH255830   1.423   4.461   2.700  0.2038  0.1718  0.4856
11472TIP3    H155831   1.471   4.379   2.684  0.8253 -0.0413  3.0401
11472TIP3    H255832   1.490   4.529   2.693 -0.4128  0.6120 -2.1816
11473TIP3   OH255833   3.385   6.404   6.217  0.2931  0.1179  0.5777
11473TIP3    H155834   3.444   6.472   6.184  0.3354 -0.8108 -1.4517
11473TIP3    H255835   3.360   6.355   6.138 -1.9275 -0.5020  1.5939
11474TIP3   OH255836   3.503   1.301   3.328 -0.6122  0.1431  0.0164
11474TIP3    H155837   3.540   1.285   3.415 -1.2180  0.3328  0.3127
11474TIP3    H255838   3.450   1.224   3.310 -3.1226  1.4678  1.2284
11475TIP3   OH255839   2.165   6.650  16.186 -0.3967 -0.4271  0.1156
11475TIP3    H155840   2.201   6.730  16.224 -0.3951 -0.9366  1.2294
11475TIP3    H255841   2.144   6.673  16.096  1.0764  0.3726 -0.0462
11476TIP3   OH255842   1.646   5.630   1.959  0.5509  0.2261  0.1916
11476TIP3    H155843   1.652   5.644   1.864  3.5274 -2.3810 -0.1989
11476TIP3    H255844   1.608   5.542   1.968 -0.8959  0.9469  1.5214
11477TIP3   OH255845   1.205   1.684   4.428  0.5645 -0.6221  0.0807
11477TIP3    H155846   1.301   1.679   4.431  0.7678  0.7179 -1.9062
11477TIP3    H255847   1.185   1.704   4.336 -1.6066 -0.3764  0.5463
11478TIP3   OH255848   5.428   1.957  12.268  0.0302  0.2252  0.0658
11478TIP3    H155849   5.474   2.036  12.297  1.5446  0.0256 -1.6381
11478TIP3    H255850   5.350   1.989  12.224  0.2847  0.7389 -0.0171
11479TIP3   OH255851   2.811   2.670   2.225  0.5030  0.6283 -0.1249
11479TIP3    H155852   2.741   2.604   2.226  0.3210  0.8169  0.8849
11479TIP3    H255853   2.812   2.705   2.314  1.2786  1.2787 -0.3769
11480TIP3   OH255854   6.503   1.085  15.709  0.2096  0.1666 -0.0373
11480TIP3    H155855   6.536   0.996  15.722  1.9324  0.8193  0.3468
11480TIP3    H255856   6.549   1.117  15.632 -0.3304  0.7701 -0.1209
11481TIP3   OH255857   0.486   0.742   0.351  0.3228  0.8112 -0.4197
11481TIP3    H155858   0.428   0.816   0.372  0.0838 -0.1015  2.6821
11481TIP3    H255859   0.427   0.670   0.332  0.5329  0.7772 -0.9708
11482TIP3   OH255860   1.846   3.654  17.078  0.0312 -0.4157 -0.2441
11482TIP3    H155861   1.894   3.571  17.080 -0.0317 -0.4585  1.5206
11482TIP3    H255862   1.902   3.712  17.027  1.2637 -0.8889  0.5126
11483TIP3   OH255863   6.236   6.624   1.693 -0.6020 -0.1382  0.4621
11483TIP3    H155864   6.230   6.540   1.739  0.8398 -0.0697  0.8192
11483TIP3    H255865   6.268   6.685   1.760 -2.2763  0.8877  0.3996
11484TIP3   OH255866   1.557   3.436  15.094  0.1167 -0.3784  0.0684
11484TIP3    H155867   1.519   3.368  15.149  1.6437  0.3940  2.1919
11484TIP3    H255868   1.652   3.423  15.101  0.3884  0.2454 -1.7918
11485TIP3   OH255869   6.190   3.437  11.457 -0.2109 -0.3227  0.4122
11485TIP3    H155870   6.190   3.377  11.382 -0.3545 -2.8532  2.3004
11485TIP3    H255871   6.135   3.510  11.428 -2.6808 -2.5310 -1.0434
11486TIP3   OH255872   0.457   2.695  13.219 -0.4081  0.2723  0.4050
11486TIP3    H155873   0.393   2.766  13.224 -2.1065 -1.1572  0.0808
11486TIP3    H255874   0.517   2.722  13.150  0.1538  2.2514  1.6025
11487TIP3   OH255875   1.012   4.782   2.978  0.2589  0.0611  0.3251
11487TIP3    H155876   1.035   4.856   3.034 -0.2980  0.5086 -0.0226
11487TIP3    H255877   0.948   4.817   2.917 -0.0592 -0.7272  0.1901
11488TIP3   OH255878   6.710   6.501  12.035 -0.1547 -0.2835  0.0266
11488TIP3    H155879   6.653   6.547  11.974  0.1579 -0.7138 -0.6026
11488TIP3    H255880   6.650   6.453  12.092 -0.4227 -0.8812 -0.7456
11489TIP3   OH255881   0.158   6.719  11.131 -0.3829  0.0324 -0.0167
11489TIP3    H155882   0.191   6.674  11.054  2.1112 -1.4884  1.8250
11489TIP3    H255883   0.077   6.672  11.153 -0.1393 -0.7026 -0.6442
11490TIP3   OH255884   4.128   6.049  15.619  1.0116 -0.2256 -0.0129
11490TIP3    H155885   4.036   6.035  15.599  0.1705  2.7173  1.1824
11490TIP3    H255886   4.171   6.053  15.534 -0.2773  0.0303 -0.6699
11491TIP3   OH255887   3.385   1.040   1.376 -0.1174 -0.4256  0.0169
11491TIP3    H155888   3.396   0.948   1.397  0.8254 -0.2880  0.1716
11491TIP3    H255889   3.436   1.054   1.297 -1.7088 -0.4053 -1.0661
11492TIP3   OH255890   1.676   0.952   3.952 -0.9740 -0.1210  0.0586
11492TIP3    H155891   1.630   1.024   3.996 -0.2851  0.9231 -0.8773
11492TIP3    H255892   1.692   0.985   3.864  0.0731 -1.1303 -0.1410
11493TIP3   OH255893   6.670   3.760  12.721  0.1811 -0.5190 -0.2471
11493TIP3    H155894   6.629   3.794  12.801  0.9859  0.3591 -0.1965
11493TIP3    H255895   6.741   3.821  12.702  0.5124 -1.1708 -1.1884
11494TIP3   OH255896   6.318   1.984  12.564 -0.6767 -0.0044  0.3185
11494TIP3    H155897   6.255   1.958  12.496  1.0522  2.8081 -2.6495
11494TIP3    H255898   6.266   1.988  12.644 -2.8365 -3.6028 -0.6368
11495TIP3   OH255899   4.414   5.959   4.397 -0.6300 -0.1756 -0.2489
11495TIP3    H155900   4.352   6.031   4.407 -0.9201 -0.4114 -0.3671
11495TIP3    H255901   4.445   5.965   4.307  0.0661  0.3803  0.0075
11496TIP3   OH255902   1.522   5.434  11.434  0.2586 -0.3265  0.3787
11496TIP3    H155903   1.507   5.340  11.447  1.1314 -0.4619  0.4654
11496TIP3    H255904   1.446   5.464  11.384  1.0613 -1.5542 -1.6765
11497TIP3   OH255905   1.395   1.587   2.600 -0.2581  0.4726 -0.2162
11497TIP3    H155906   1.343   1.578   2.520  0.1275  0.0062 -0.4181
11497TIP3    H255907   1.378   1.506   2.649  1.9510 -0.7366 -1.2874
11498TIP3   OH255908   5.076   5.662   4.841  0.3106 -0.2425 -0.2706
11498TIP3    H155909   5.113   5.730   4.897 -0.5549  0.8383 -0.9750
11498TIP3    H255910   5.127   5.667   4.760  0.4738 -0.6739 -0.1954
11499TIP3   OH255911   3.847   4.868  14.543 -0.3478  0.4062 -0.3845
11499TIP3    H155912   3.912   4.835  14.481 -0.2647 -0.6258  0.2281
11499TIP3    H255913   3.834   4.960  14.517  0.3801  0.2667 -1.3242
11500TIP3   OH255914   1.263   4.380  14.592  0.2412 -0.4613  0.1161
11500TIP3    H155915   1.292   4.313  14.529  0.3797 -0.7571  0.4881
11500TIP3    H255916   1.169   4.384  14.580  0.3616  0.1026 -0.7102
11501TIP3   OH255917   4.354   3.468  13.976 -0.0451  0.2313  0.3980
11501TIP3    H155918   4.348   3.388  13.925  0.1072 -0.1217  0.9163
11501TIP3    H255919   4.440   3.504  13.955 -0.3206  0.5332 -0.2233
11502TIP3   OH255920   2.243   4.221  13.369 -0.3642 -0.1398  0.2702
11502TIP3    H155921   2.209   4.234  13.457 -1.4612 -0.6551 -0.0550
11502TIP3    H255922   2.174   4.253  13.311  0.4113  0.3500 -0.4067
11503TIP3   OH255923   1.685   0.286  14.551 -0.1687 -0.2663  0.3463
11503TIP3    H155924   1.698   0.340  14.473  1.4168 -1.0896  0.0103
11503TIP3    H255925   1.619   0.222  14.524 -0.9007  0.4957  0.2560
11504TIP3   OH255926   6.804   6.471   4.407 -0.2180  0.1982  0.0044
11504TIP3    H155927   6.782   6.396   4.353 -2.7196 -0.9132  2.3082
11504TIP3    H255928   6.878   6.441   4.460 -1.5191 -0.9539  1.2730
11505TIP3   OH255929   4.913   0.137   3.837  0.1104  0.0377 -0.2745
11505TIP3    H155930   4.991   0.149   3.891  0.5836 -0.6425 -0.7874
11505TIP3    H255931   4.884   0.048   3.856 -0.0851  0.0137 -0.6662
11506TIP3   OH255932   5.912   2.377   3.720 -0.4618 -0.1091  0.3948
11506TIP3    H155933   5.946   2.465   3.739 -0.3984 -0.3728  1.5752
11506TIP3    H255934   5.841   2.365   3.784 -1.6132 -0.2638 -0.8622
11507TIP3   OH255935   1.016   2.920  14.396 -0.2797  0.2388 -0.3667
11507TIP3    H155936   1.111   2.930  14.390  0.0755 -2.9271 -3.4737
11507TIP3    H255937   1.004   2.848  14.458 -0.7761  1.2209  0.7086
11508TIP3   OH255938   1.500   3.576   2.564 -0.5405  0.1410 -0.4147
11508TIP3    H155939   1.448   3.654   2.546  0.5193  0.9809  0.0878
11508TIP3    H255940   1.530   3.587   2.654  1.2209  0.1132 -0.9607
11509TIP3   OH255941   6.694   5.643   0.507  0.3146 -0.7705 -0.2321
11509TIP3    H155942   6.715   5.569   0.449  1.0474 -0.2534 -0.6482
11509TIP3    H255943   6.761   5.640   0.575  0.7734 -0.0894 -0.6385
11510TIP3   OH255944   0.153   4.244   3.178  0.0754  0.3830  0.4929
11510TIP3    H155945   0.155   4.267   3.085  1.2250 -1.7854 -0.0816
11510TIP3    H255946   0.095   4.168   3.183  1.6582 -0.8521  1.1440
11511TIP3   OH255947   3.064   5.807  13.541  0.1375  0.7068 -0.3343
11511TIP3    H155948   2.975   5.804  13.575 -0.6587  1.5313 -2.2197
11511TIP3    H255949   3.084   5.900  13.533  0.7086  0.5365 -1.0437
11512TIP3   OH255950   3.150   3.092   1.695 -0.4102  0.1684  0.2213
11512TIP3    H155951   3.224   3.134   1.740  1.9795 -1.3078 -2.0214
11512TIP3    H255952   3.118   3.027   1.758  0.7405  0.2934  0.9735
11513TIP3   OH255953   5.677   1.924  14.553  0.3982  0.0768  0.4066
11513TIP3    H155954   5.587   1.904  14.579  0.9910 -0.6002  2.0312
11513TIP3    H255955   5.677   2.018  14.538 -1.0394 -0.1557 -1.6308
11514TIP3   OH255956   5.210   2.389  11.600  0.1616  0.1213 -0.8399
11514TIP3    H155957   5.304   2.389  11.582  0.5470  0.2835  0.9668
11514TIP3    H255958   5.204   2.387  11.695 -1.6753 -1.8320 -0.9208
11515TIP3   OH255959   1.667   5.146  16.567 -0.4467 -0.1213  0.2312
11515TIP3    H155960   1.738   5.187  16.517 -1.0740  0.5238 -0.1410
11515TIP3    H255961   1.696   5.055  16.580 -0.3042 -0.3168 -1.3587
11516TIP3   OH255962   1.391   6.711  16.525 -0.1920  0.1521  0.6233
11516TIP3    H155963   1.401   6.701  16.431 -2.1918  0.7195  0.2996
11516TIP3    H255964   1.405   6.805  16.541 -1.2907  0.3281  0.6446
11517TIP3   OH255965   4.841   4.615   6.455 -0.4650 -0.2061  0.5268
11517TIP3    H155966   4.898   4.692   6.455 -1.2803  0.4039  0.3064
11517TIP3    H255967   4.805   4.612   6.544  0.6393 -1.1537  0.9652
11518TIP3   OH255968   2.263   2.309  14.932 -0.4682 -0.7370  0.0420
11518TIP3    H155969   2.185   2.298  14.878 -0.6453  0.2627  0.0893
11518TIP3    H255970   2.318   2.371  14.884  0.5453 -1.7930 -0.2392
11519TIP3   OH255971   2.920   0.074   2.761 -0.9445 -0.1212  0.1543
11519TIP3    H155972   2.984   0.108   2.699 -1.8405 -0.0321 -0.7463
11519TIP3    H255973   2.943  -0.018   2.772  0.9264  0.4902  1.8912
11520TIP3   OH255974   1.296   2.448  12.815 -0.2820 -0.1922  0.1270
11520TIP3    H155975   1.208   2.413  12.803  0.4070 -1.7898 -0.4415
11520TIP3    H255976   1.283   2.543  12.816 -1.9638 -0.3799 -0.2470
11521TIP3   OH255977   6.071   3.480  13.682 -0.6508 -0.0825 -0.1562
11521TIP3    H155978   6.123   3.473  13.603 -0.8991  0.0160 -0.3306
11521TIP3    H255979   6.037   3.391  13.697 -0.9996  0.0018 -0.4350
11522TIP3   OH255980   0.415   3.833  10.525  0.0760 -0.2085  0.6918
11522TIP3    H155981   0.409   3.742  10.554  1.1847 -0.2150  0.9530
11522TIP3    H255982   0.460   3.828  10.440 -0.2542  0.0651  0.4991
11523TIP3   OH255983   6.792   1.217  11.443 -0.1860 -0.3426  0.7265
11523TIP3    H155984   6.730   1.288  11.454 -0.0882 -0.1158 -0.1044
11523TIP3    H255985   6.877   1.255  11.466 -0.1385 -0.1987  0.3160
11524TIP3   OH255986   3.468   0.121  12.222 -0.0077  0.2968 -0.2679
11524TIP3    H155987   3.424   0.091  12.142  0.6644 -2.5466  0.3011
11524TIP3    H255988   3.397   0.129  12.286 -0.0444 -3.0873  0.3175
11525TIP3   OH255989   0.822   4.122   3.470  0.5559 -0.4666 -0.0074
11525TIP3    H155990   0.895   4.068   3.499 -1.7872 -2.6244  2.4733
11525TIP3    H255991   0.777   4.148   3.551 -1.3867  0.7920 -1.3905
11526TIP3   OH255992   1.240   1.744   3.428  0.1980 -0.5852 -0.2092
11526TIP3    H155993   1.150   1.731   3.459  0.6817 -0.8170  1.1719
11526TIP3    H255994   1.243   1.696   3.345 -0.9199 -0.6615 -0.2300
11527TIP3   OH255995   1.647   3.411  12.281  0.5853  0.2113  0.9477
11527TIP3    H155996   1.707   3.413  12.356  2.0083 -0.7738 -0.1272
11527TIP3    H255997   1.699   3.377  12.209 -0.6376  1.5106 -0.6274
11528TIP3   OH255998   4.557   5.946   4.144 -0.4768  0.1823 -0.5019
11528TIP3    H155999   4.557   6.042   4.139  0.0049  0.1801 -0.5916
11528TIP3    H256000   4.489   5.919   4.083  0.2537  0.4303 -1.4561
11529TIP3   OH256001   1.233   3.480  13.882  0.1440  0.3907 -0.1206
11529TIP3    H156002   1.180   3.559  13.892  0.9595  1.1622 -1.6603
11529TIP3    H256003   1.194   3.434  13.808 -0.1724 -0.5388  0.6084
11530TIP3   OH256004   4.108   3.159   4.542 -0.5710 -0.2179  0.0530
11530TIP3    H156005   4.122   3.251   4.517 -0.2632 -1.0151 -3.0972
11530TIP3    H256006   4.160   3.148   4.622  2.3673  1.5135 -1.4392
11531TIP3   OH256007   0.269   5.216   1.376 -0.0136  0.4719 -0.0152
11531TIP3    H156008   0.200   5.281   1.390 -1.1569 -0.7260  0.1036
11531TIP3    H256009   0.261   5.191   1.284 -0.5738 -0.5646  0.2980
11532TIP3   OH256010   2.540   0.667   4.821  0.0973 -0.0008  0.2392
11532TIP3    H156011   2.533   0.579   4.782 -0.0963  0.1552 -0.0763
11532TIP3    H256012   2.615   0.706   4.777 -1.0021  0.7142 -1.0357
11533TIP3   OH256013   2.790   2.043   2.608  0.0912 -0.0585 -0.2485
11533TIP3    H156014   2.784   2.047   2.513 -0.9006  0.3245 -0.1797
11533TIP3    H256015   2.872   2.088   2.629  0.3882 -0.2739 -0.9206
11534TIP3   OH256016   2.415   5.983   4.864 -0.4695  0.6754  0.2126
11534TIP3    H156017   2.430   6.060   4.809 -1.8802 -0.0088 -1.2237
11534TIP3    H256018   2.393   5.914   4.802  1.7565 -1.2169  1.3662
11535TIP3   OH256019   0.704   2.606  14.420  0.0799 -0.4591  0.0592
11535TIP3    H156020   0.704   2.681  14.479  2.8478  0.0143 -0.3986
11535TIP3    H256021   0.629   2.621  14.363  1.1910  2.7293 -0.8217
11536TIP3   OH256022   3.618   3.809  16.756 -0.2089 -0.0955  0.0054
11536TIP3    H156023   3.671   3.747  16.706  0.2232  0.0253  0.3043
11536TIP3    H256024   3.599   3.880  16.694 -1.1418 -0.7589 -0.4905
11537TIP3   OH256025   0.386   0.008   2.882 -0.5226 -0.0675  0.3587
11537TIP3    H156026   0.435   0.045   2.956 -0.1388  1.7546 -0.7452
11537TIP3    H256027   0.363   0.084   2.829  2.1766 -1.5133 -3.2287
11538TIP3   OH256028   3.792   1.661  14.386 -0.0166 -0.0291 -0.0206
11538TIP3    H156029   3.756   1.575  14.409  3.3773 -1.1087  2.0389
11538TIP3    H256030   3.845   1.645  14.308  1.4445 -0.1580  0.9438
11539TIP3   OH256031   5.389   6.149   5.562  0.4606 -0.0544 -0.5601
11539TIP3    H156032   5.325   6.167   5.493 -0.0145 -0.1140 -0.1412
11539TIP3    H256033   5.338   6.109   5.633  0.6977  1.1797  0.3433
11540TIP3   OH256034   1.009   3.508   1.312  0.3749 -0.2900  0.1962
11540TIP3    H156035   0.938   3.521   1.375  0.3457 -0.9522  0.3095
11540TIP3    H256036   0.998   3.579   1.249  0.4619  0.4372  0.9781
11541TIP3   OH256037   5.009   3.646  14.245  0.9604  0.6098 -0.0380
11541TIP3    H156038   5.015   3.568  14.190 -0.6293 -0.7920  1.6186
11541TIP3    H256039   4.958   3.708  14.193  0.2227 -0.3678 -0.5253
11542TIP3   OH256040   3.368   6.661  12.988 -0.1003  0.1649 -0.8787
11542TIP3    H156041   3.421   6.586  12.961  1.9974  1.4204 -0.4918
11542TIP3    H256042   3.320   6.686  12.909  0.2848 -0.7150 -1.4013
11543TIP3   OH256043   3.741   0.611  16.650  0.1064 -0.3216  0.3317
11543TIP3    H156044   3.721   0.534  16.596 -0.2313  0.1014 -0.1671
11543TIP3    H256045   3.678   0.606  16.722 -0.5602 -0.0156 -0.2110
11544TIP3   OH256046   3.750   5.202   5.015  0.0636  0.3049 -0.3339
11544TIP3    H156047   3.843   5.223   5.005 -0.5916  2.4501 -2.8960
11544TIP3    H256048   3.726   5.159   4.933 -1.3596  0.3771  0.0163
11545TIP3   OH256049   2.561   4.541   1.452  0.3175  0.3758 -0.1122
11545TIP3    H156050   2.593   4.498   1.532  0.3777 -1.1132 -0.9132
11545TIP3    H256051   2.615   4.619   1.444  0.8650  0.1150  0.8602
11546TIP3   OH256052   3.455   4.891   0.195 -0.0767 -0.0558 -0.1436
11546TIP3    H156053   3.378   4.911   0.248 -0.1063 -0.1735 -0.1425
11546TIP3    H256054   3.421   4.872   0.108 -0.2438 -2.0563  0.3149
11547TIP3   OH256055   4.776   5.108  11.086  0.2173  0.3186 -0.2827
11547TIP3    H156056   4.737   5.030  11.047 -1.4080  0.5188  0.8147
11547TIP3    H256057   4.869   5.088  11.093 -0.0028 -1.0631 -1.0665
11548TIP3   OH256058   3.817   0.264   1.659 -0.1114 -0.0307 -0.1513
11548TIP3    H156059   3.832   0.310   1.577 -1.8918 -0.4412 -0.7618
11548TIP3    H256060   3.774   0.329   1.716  1.0581  0.2341  0.4534
11549TIP3   OH256061   1.136   3.675   0.137 -0.2842  0.4534  0.1485
11549TIP3    H156062   1.085   3.661   0.057  0.3767 -0.2984 -0.1477
11549TIP3    H256063   1.071   3.672   0.207 -0.5335 -1.7251 -0.1149
11550TIP3   OH256064   0.502   3.274  10.424  0.3937  0.1110  0.4408
11550TIP3    H156065   0.430   3.284  10.486 -0.0297 -0.6171  0.0782
11550TIP3    H256066   0.557   3.205  10.461 -0.1149 -0.6605 -0.2151
11551TIP3   OH256067   2.752   0.956   0.633 -0.0577 -0.0856 -0.5692
11551TIP3    H156068   2.739   1.034   0.687  0.5149  0.0254 -0.5815
11551TIP3    H256069   2.814   0.902   0.682  0.9657  0.3034 -1.3797
11552TIP3   OH256070   0.400   6.673   0.180 -0.1483  0.5062 -0.1345
11552TIP3    H156071   0.367   6.592   0.143  1.1187  0.1972 -0.6399
11552TIP3    H256072   0.419   6.652   0.272 -2.3688  1.0081  0.4952
11553TIP3   OH256073   0.265   4.476   2.517 -0.4122 -0.3315 -0.5521
11553TIP3    H156074   0.297   4.534   2.587  0.3843 -0.9256 -0.4146
11553TIP3    H256075   0.333   4.480   2.450  0.0929 -1.7695 -0.1704
11554TIP3   OH256076   6.373   3.843  14.685  0.1046  0.8559  0.1927
11554TIP3    H156077   6.297   3.897  14.663 -2.3702 -1.7193  1.7033
11554TIP3    H256078   6.404   3.809  14.601 -1.0790  1.1581 -0.3870
11555TIP3   OH256079   3.847   0.509   4.167  0.2980 -0.2457  0.1067
11555TIP3    H156080   3.855   0.452   4.244 -3.1396  0.1937  0.9686
11555TIP3    H256081   3.846   0.597   4.204  1.8493  0.2146 -0.8508
11556TIP3   OH256082   5.901   0.551   5.570  0.1026 -0.0571 -0.5143
11556TIP3    H156083   5.985   0.543   5.615 -0.0720 -2.0239 -0.4647
11556TIP3    H256084   5.922   0.543   5.477 -0.1344 -1.7441 -0.4374
11557TIP3   OH256085   5.444   6.756   5.543  0.1246  0.0783  0.1693
11557TIP3    H156086   5.359   6.789   5.515 -0.0620 -1.3039 -1.0137
11557TIP3    H256087   5.462   6.802   5.625 -1.2717  1.1560 -0.0978
11558TIP3   OH256088   3.449   1.487  14.816 -0.0232  0.2984  0.5247
11558TIP3    H156089   3.430   1.579  14.838 -1.7091  0.4810 -1.3453
11558TIP3    H256090   3.421   1.438  14.894 -1.1528  1.2302  0.7466
11559TIP3   OH256091   0.690   3.321   4.927 -0.0191  0.4505  0.0641
11559TIP3    H156092   0.678   3.287   4.839 -1.5398 -1.1148  0.8025
11559TIP3    H256093   0.624   3.275   4.979  1.0680  1.0495  2.0823
11560TIP3   OH256094   6.312   3.110   0.638 -0.3357  0.7391 -0.5500
11560TIP3    H156095   6.376   3.042   0.616 -1.9473 -0.2575 -2.4751
11560TIP3    H256096   6.319   3.174   0.567 -1.2004  0.8079 -0.5874
11561TIP3   OH256097   4.950   0.831  16.456  0.1704  0.1066 -0.7541
11561TIP3    H156098   4.876   0.771  16.468 -1.0130  1.4828 -0.8570
11561TIP3    H256099   5.025   0.784  16.492 -1.2646 -0.2327  2.1071
11562TIP3   OH256100   5.748   5.435  16.317 -0.4976  0.2478 -0.3673
11562TIP3    H156101   5.709   5.514  16.279  0.4818  0.7739 -0.3120
11562TIP3    H256102   5.839   5.438  16.289 -0.2850 -0.5014  0.2242
11563TIP3   OH256103   1.630   2.842   2.360 -0.3218  0.2033  0.1901
11563TIP3    H156104   1.576   2.822   2.283 -1.1073  0.6715  0.6158
11563TIP3    H256105   1.635   2.759   2.408  1.3730 -0.4918 -1.0667
11564TIP3   OH256106   6.491   2.243   0.411  0.0190  0.0480  0.0133
11564TIP3    H156107   6.481   2.305   0.484 -1.4090  0.8134 -0.7838
11564TIP3    H256108   6.547   2.173   0.446  0.0117  0.7901  1.5807
11565TIP3   OH256109   4.695   5.034   4.570 -0.6781 -0.2470 -0.9251
11565TIP3    H156110   4.618   4.984   4.543 -2.6225  1.0151  1.7465
11565TIP3    H256111   4.665   5.125   4.570  0.7337  0.2651  0.3548
11566TIP3   OH256112   0.644   3.788  17.153 -0.0211  0.0410  0.1433
11566TIP3    H156113   0.694   3.853  17.202  0.9217 -0.4120 -0.1818
11566TIP3    H256114   0.710   3.728  17.119 -0.5728  0.6444 -2.1459
11567TIP3   OH256115   5.366   3.133  12.214 -0.2993 -0.0826  0.2793
11567TIP3    H156116   5.421   3.058  12.196  1.7414  1.6110 -1.0779
11567TIP3    H256117   5.337   3.122  12.304  1.2753 -1.6544  0.6366
11568TIP3   OH256118   3.278   2.730   0.324 -0.6138 -0.2435  0.1013
11568TIP3    H156119   3.369   2.760   0.325 -0.2882 -1.1382 -0.7697
11568TIP3    H256120   3.284   2.636   0.309 -1.7001 -0.2136 -0.6610
11569TIP3   OH256121   6.483   2.873   4.019 -0.1936  0.0029  0.4780
11569TIP3    H156122   6.455   2.888   3.929  2.5093  0.5302 -0.3585
11569TIP3    H256123   6.527   2.788   4.016  1.1264  0.6397  0.9436
11570TIP3   OH256124   6.064   6.692  13.414 -0.0547 -0.1189  0.0034
11570TIP3    H156125   6.027   6.733  13.336  1.6734  1.3962 -0.0996
11570TIP3    H256126   6.033   6.746  13.486  1.8290  1.2023 -0.0879
11571TIP3   OH256127   1.256   5.508   3.530  0.0023  0.1194 -0.8102
11571TIP3    H156128   1.183   5.453   3.561 -0.3954  1.3152  0.4716
11571TIP3    H256129   1.269   5.481   3.439  0.7605 -3.1059  0.1143
11572TIP3   OH256130   4.909   4.092   4.587  0.1576  0.4311 -0.0632
11572TIP3    H156131   4.879   4.175   4.551 -1.9302  0.0124  0.5831
11572TIP3    H256132   4.847   4.027   4.554  1.1634 -0.7393  0.2447
11573TIP3   OH256133   0.591   4.013   5.591  0.5841 -0.3779  0.0358
11573TIP3    H156134   0.514   4.033   5.539 -0.6593 -0.1726  1.8834
11573TIP3    H256135   0.625   4.098   5.619  0.5469 -0.5118  0.5058
11574TIP3   OH256136   5.813   6.685   1.910 -0.1519  0.4956 -0.3066
11574TIP3    H156137   5.869   6.629   1.963 -1.7020  0.4834  1.4286
11574TIP3    H256138   5.851   6.681   1.823  1.8637 -0.3753  0.5525
11575TIP3   OH256139   2.467   1.276   5.140  0.3254  0.2725 -0.2179
11575TIP3    H156140   2.499   1.318   5.220 -0.7584  3.0802 -1.1050
11575TIP3    H256141   2.539   1.285   5.077 -0.1023  1.4977 -0.5777
11576TIP3   OH256142   2.508   0.151  14.097  0.3787  0.0362  0.1674
11576TIP3    H156143   2.430   0.202  14.077 -0.7868 -2.2075 -1.5018
11576TIP3    H256144   2.475   0.065  14.124  2.2393  0.1234  3.1830
11577TIP3   OH256145   1.099   6.703   0.605  0.0637  0.4016  0.0605
11577TIP3    H156146   1.099   6.787   0.558  0.2504 -0.6318 -1.8697
11577TIP3    H256147   1.051   6.644   0.548  2.0874 -1.4554  0.1688
11578TIP3   OH256148   5.611   3.112  15.892  0.1644 -0.0164  0.7935
11578TIP3    H156149   5.626   3.085  15.983 -0.7565  0.1307  0.9908
11578TIP3    H256150   5.583   3.203  15.898 -0.7476 -0.2677  0.4314
11579TIP3   OH256151   5.197   0.163   0.957  0.5017 -0.5650 -0.4662
11579TIP3    H156152   5.179   0.249   0.919 -0.0959 -0.9162 -0.9994
11579TIP3    H256153   5.111   0.127   0.976  0.7737 -0.6240  0.7471
11580TIP3   OH256154   5.409   3.449   1.678  0.1066  0.0681 -0.3138
11580TIP3    H156155   5.321   3.443   1.639 -0.0214  0.4738 -0.0948
11580TIP3    H256156   5.394   3.482   1.766  0.4354 -0.4339 -0.0632
11581TIP3   OH256157   1.845   4.956  12.637  0.3163  0.1339 -0.1362
11581TIP3    H156158   1.810   5.001  12.714 -1.1669  0.0749 -0.7395
11581TIP3    H256159   1.793   4.989  12.564 -0.0880 -1.7144 -0.7452
11582TIP3   OH256160   1.119   5.069   4.782 -0.4963  0.7159 -0.2638
11582TIP3    H156161   1.032   5.098   4.755 -0.0476  0.3994 -2.2545
11582TIP3    H256162   1.110   5.048   4.875 -1.5226  4.5184  0.6507
11583TIP3   OH256163   6.124   4.640   1.194  0.4140  0.3291  0.6755
11583TIP3    H156164   6.212   4.619   1.162  0.7816  1.0961  1.1483
11583TIP3    H256165   6.107   4.575   1.262  1.4715  1.3807  2.0071
11584TIP3   OH256166   0.467   5.771   0.194  0.4753  0.1241  0.2179
11584TIP3    H156167   0.409   5.700   0.164  0.6007  0.2145 -0.2459
11584TIP3    H256168   0.525   5.729   0.257  0.4599 -0.1586  0.0489
11585TIP3   OH256169   1.327   5.910  16.063 -0.7726 -0.2402 -0.3072
11585TIP3    H156170   1.287   5.963  16.132 -1.2353 -0.4425 -0.4093
11585TIP3    H256171   1.392   5.856  16.107  1.0130  1.6907 -0.4672
11586TIP3   OH256172   3.426   4.935   1.179  0.4206 -0.1218  0.4567
11586TIP3    H156173   3.486   4.863   1.160 -0.7434 -1.1596  0.6325
11586TIP3    H256174   3.347   4.914   1.130 -0.1744  0.7121  1.0267
11587TIP3   OH256175   3.391   0.313  10.866 -0.4677 -0.0045 -0.2222
11587TIP3    H156176   3.407   0.227  10.826 -0.2726  0.1102 -0.3883
11587TIP3    H256177   3.380   0.372  10.791 -0.8471  0.0698 -0.1098
11588TIP3   OH256178   3.814   2.391   4.328 -0.3263 -0.0994  0.0537
11588TIP3    H156179   3.786   2.425   4.413 -0.8838 -0.2620 -0.0593
11588TIP3    H256180   3.732   2.371   4.283 -0.0256 -0.3167 -0.3970
11589TIP3   OH256181   0.346   6.583   0.427 -0.3451  0.1254  0.4805
11589TIP3    H156182   0.353   6.501   0.477 -0.8893 -0.6889 -0.7243
11589TIP3    H256183   0.348   6.652   0.493 -0.0489 -0.8713  1.5389
11590TIP3   OH256184   0.629   5.272   5.706 -0.2702 -0.5844  0.4970
11590TIP3    H156185   0.581   5.262   5.788 -1.3835 -1.4892 -0.2333
11590TIP3    H256186   0.637   5.367   5.694 -1.5023 -0.4173  0.8640
11591TIP3   OH256187   5.122   5.774  14.143  0.2343  0.2983 -0.2069
11591TIP3    H156188   5.057   5.842  14.161  1.2311  0.8269  1.6734
11591TIP3    H256189   5.185   5.816  14.085  0.8301  1.0063  0.9208
11592TIP3   OH256190   0.577   1.823   3.717  0.0963 -0.2603  0.6414
11592TIP3    H156191   0.599   1.774   3.797 -2.4563  0.0076  1.5862
11592TIP3    H256192   0.484   1.842   3.725  0.4439  2.6017 -0.9102
11593TIP3   OH256193   3.646   3.158   5.916  0.6330  0.2677 -0.0594
11593TIP3    H156194   3.650   3.095   5.844 -0.3584  2.0179 -1.7053
11593TIP3    H256195   3.672   3.241   5.878  1.6286  0.9685  1.9994
11594TIP3   OH256196   5.661   4.810   0.823  0.3955  0.2247  0.4450
11594TIP3    H156197   5.567   4.794   0.817  0.6104 -1.3964  0.8228
11594TIP3    H256198   5.701   4.737   0.775  1.4583  1.5293 -0.7448
11595TIP3   OH256199   0.353   4.841  15.386  0.2701  0.0296 -0.4460
11595TIP3    H156200   0.349   4.816  15.478 -0.6409 -0.7821 -0.6956
11595TIP3    H256201   0.433   4.800  15.353  0.3951  0.0028 -0.1112
11596TIP3   OH256202   0.291   4.227   5.984 -0.3179  0.1686  0.4817
11596TIP3    H156203   0.365   4.227   6.045  0.3115 -0.2272 -0.2694
11596TIP3    H256204   0.253   4.314   5.993 -0.3007  0.0874  1.5119
11597TIP3   OH256205   4.504   4.163   5.252 -0.0847  0.6991 -0.6387
11597TIP3    H156206   4.551   4.206   5.323  1.0685 -1.3545 -0.0757
11597TIP3    H256207   4.426   4.126   5.293  1.4313 -2.0035  0.1058
11598TIP3   OH256208   1.838   4.944   5.698  0.1804 -0.2200 -0.5346
11598TIP3    H156209   1.767   4.954   5.761 -1.1844  0.1429 -2.0652
11598TIP3    H256210   1.842   4.850   5.681  0.3338 -0.2815 -0.1828
11599TIP3   OH256211   0.961   5.874   0.933 -0.1014 -0.0911  0.1333
11599TIP3    H156212   0.999   5.939   0.992 -1.5787  0.6699  0.3112
11599TIP3    H256213   0.933   5.803   0.990 -0.8255  0.2974  0.2776
11600TIP3   OH256214   2.549   5.516   5.021 -0.0107  0.0508 -0.4326
11600TIP3    H156215   2.601   5.484   4.947 -0.3111  1.4064 -1.2681
11600TIP3    H256216   2.565   5.452   5.091  0.4208 -1.1772 -1.5993
11601TIP3   OH256217   0.733   2.260  11.959  0.0238 -0.2565 -0.0414
11601TIP3    H156218   0.728   2.301  11.872 -0.6034 -0.6354 -0.1911
11601TIP3    H256219   0.747   2.334  12.019 -0.2920  0.0932 -0.3899
11602TIP3   OH256220   3.343   0.410   2.279  0.3727 -0.1845 -0.2909
11602TIP3    H156221   3.438   0.415   2.292  0.2468 -1.4293  1.6490
11602TIP3    H256222   3.332   0.367   2.194  1.4954  0.9437 -1.0465
11603TIP3   OH256223   4.944   2.793  13.263 -0.0359 -0.0350  0.1473
11603TIP3    H156224   4.970   2.702  13.250  1.5690  0.0615  2.2246
11603TIP3    H256225   4.852   2.796  13.239 -0.0333 -2.1166 -0.2715
11604TIP3   OH256226   2.126   2.865   1.777 -0.1766  0.0061 -0.0326
11604TIP3    H156227   2.127   2.816   1.695 -0.0612  0.1209 -0.1008
11604TIP3    H256228   2.056   2.825   1.828 -0.1738 -0.1396 -0.1423
11605TIP3   OH256229   1.854   0.707   1.332 -0.1297  0.3784  0.1962
11605TIP3    H156230   1.783   0.716   1.269 -1.3513  1.0735  1.6141
11605TIP3    H256231   1.905   0.632   1.301 -1.9589 -0.6810 -0.3867
11606TIP3   OH256232   0.992   1.445  12.661 -0.5132 -0.0553 -0.0578
11606TIP3    H156233   1.019   1.452  12.569  0.7255  1.1802  0.3602
11606TIP3    H256234   1.025   1.526  12.701 -0.3233 -0.9406  1.6361
11607TIP3   OH256235   0.873   3.095  14.230  0.3002 -0.2360 -0.3264
11607TIP3    H156236   0.790   3.054  14.210 -0.4308  0.3239  1.3977
11607TIP3    H256237   0.912   3.041  14.298 -0.3766  1.4666  1.5068
11608TIP3   OH256238   4.375   5.697  12.051 -0.5199  0.2074  0.1277
11608TIP3    H156239   4.291   5.691  12.005 -0.6211  0.6424  0.2486
11608TIP3    H256240   4.432   5.635  12.006 -1.6701 -2.1554  1.7287
11609TIP3   OH256241   5.488   3.399  12.236  0.0082 -0.1639 -0.6978
11609TIP3    H156242   5.483   3.304  12.238 -0.0750 -0.1716  1.2594
11609TIP3    H256243   5.403   3.428  12.269  0.1579  0.5687 -0.9422
11610TIP3   OH256244   3.517   4.705   0.382  0.1505 -0.7208  0.0259
11610TIP3    H156245   3.516   4.798   0.361 -0.5600 -0.4134  1.2768
11610TIP3    H256246   3.541   4.661   0.301  3.4157  0.7036  0.0592
11611TIP3   OH256247   1.346   5.817  14.147  0.3024 -0.4101 -0.0720
11611TIP3    H156248   1.405   5.885  14.115 -0.2152  2.1558  3.8050
11611TIP3    H256249   1.352   5.822  14.242 -2.0586 -3.8595  0.4471
11612TIP3   OH256250   0.641   2.011  12.022  0.0690  0.7752  0.0105
11612TIP3    H156251   0.555   2.032  12.059 -0.3023  1.3244 -1.1312
11612TIP3    H256252   0.678   2.096  11.998 -0.4369  0.3654 -2.4811
11613TIP3   OH256253   1.603   5.574  14.909  0.0209  0.4312  0.3118
11613TIP3    H156254   1.513   5.560  14.880  0.1360 -0.5406  0.3915
11613TIP3    H256255   1.594   5.624  14.991 -0.5164 -0.7350  0.9867
11614TIP3   OH256256   6.183   2.462  10.942 -0.0137 -0.0604  0.0630
11614TIP3    H156257   6.142   2.381  10.973 -1.3717  0.1476 -1.0854
11614TIP3    H256258   6.189   2.450  10.847  0.3726  0.9297 -0.0424
11615TIP3   OH256259   4.680   0.026   1.009 -0.3414  0.2807  0.6426
11615TIP3    H156260   4.596  -0.017   1.029  0.9264 -1.6881  2.1694
11615TIP3    H256261   4.695   0.006   0.917 -0.7297 -0.8968  0.8128
11616TIP3   OH256262   3.076   4.343   4.242 -0.1381 -0.2108 -0.6806
11616TIP3    H156263   3.040   4.355   4.330  2.2864  0.0104  0.3620
11616TIP3    H256264   3.108   4.430   4.217 -0.8127 -0.2676 -1.8211
11617TIP3   OH256265   5.048   2.709  16.831  0.0744 -0.2166  0.4495
11617TIP3    H156266   4.994   2.710  16.752  1.4721  0.9969 -0.5574
11617TIP3    H256267   4.986   2.698  16.903 -1.4445  0.4780 -0.6909
11618TIP3   OH256268   2.426   1.716  11.880  0.2430 -0.3311  0.2546
11618TIP3    H156269   2.450   1.685  11.967 -0.6218  0.3266  0.7456
11618TIP3    H256270   2.470   1.801  11.872  0.8919 -0.7120 -0.2323
11619TIP3   OH256271   1.261   4.823  16.148  0.0627  0.4652 -0.1225
11619TIP3    H156272   1.290   4.911  16.124  1.2628 -0.2013 -1.1934
11619TIP3    H256273   1.339   4.769  16.142 -0.6769 -0.7060  0.4521
11620TIP3   OH256274   4.117   3.554   2.959 -0.0857  0.2396 -1.1303
11620TIP3    H156275   4.169   3.616   3.010 -2.3777  0.9470  0.5063
11620TIP3    H256276   4.030   3.558   2.998 -0.3753 -4.0783 -0.8903
11621TIP3   OH256277   2.712   1.643   2.563 -0.5121  0.0660  0.0795
11621TIP3    H156278   2.755   1.578   2.618  0.5269  0.9938  0.3945
11621TIP3    H256279   2.701   1.719   2.619 -1.6465  0.2022 -0.3058
11622TIP3   OH256280   1.649   5.073  16.130  0.8394  0.1941  0.3312
11622TIP3    H156281   1.649   5.007  16.199 -3.2203 -1.6218 -1.1088
11622TIP3    H256282   1.702   5.034  16.060  1.9409  0.4189  1.0197
11623TIP3   OH256283   6.265   3.814  15.576  0.6425 -0.1849  0.6654
11623TIP3    H156284   6.298   3.836  15.663  0.7746 -0.3432  0.6554
11623TIP3    H256285   6.343   3.787  15.527  0.5460 -0.2384  0.5423
11624TIP3   OH256286   2.139   3.687  16.541 -0.4582  0.1251  0.2631
11624TIP3    H156287   2.189   3.606  16.546  0.5906  0.7059 -0.4748
11624TIP3    H256288   2.136   3.708  16.447  0.5647  1.6915  0.5304
11625TIP3   OH256289   3.060   6.046   0.263 -0.2630  0.4648 -0.2215
11625TIP3    H156290   3.071   6.082   0.350  0.4157  0.6655 -0.3893
11625TIP3    H256291   3.118   5.970   0.260 -0.9961 -0.1131 -0.1815
11626TIP3   OH256292   5.180   2.190   3.362 -0.8095 -0.2926  0.0320
11626TIP3    H156293   5.258   2.157   3.406 -0.4062  0.0150 -0.4382
11626TIP3    H256294   5.183   2.152   3.275 -0.9082  0.1222 -0.1581
11627TIP3   OH256295   3.261   5.033   4.163  0.7630 -0.6156  0.2497
11627TIP3    H156296   3.193   5.099   4.174  0.7266 -0.3244 -1.4546
11627TIP3    H256297   3.343   5.082   4.159  0.6841 -0.5629 -1.6108
11628TIP3   OH256298   1.710   4.116   6.242 -0.3320 -0.0098  0.0578
11628TIP3    H156299   1.680   4.189   6.296  0.6182 -0.6591  1.5252
11628TIP3    H256300   1.781   4.153   6.189 -1.3846  0.6753 -0.9116
11629TIP3   OH256301   0.646   5.704  12.265  0.4004 -0.2271 -0.1360
11629TIP3    H156302   0.568   5.651  12.251  1.3752 -1.1934 -2.4790
11629TIP3    H256303   0.719   5.642  12.256  1.4693  0.6517  1.9338
11630TIP3   OH256304   1.095   4.016  15.679  0.1034 -0.1923 -0.3554
11630TIP3    H156305   1.053   3.986  15.759 -0.1519 -0.6612 -0.6673
11630TIP3    H256306   1.025   4.024  15.615  0.4711 -0.9190 -0.8591
11631TIP3   OH256307   0.392   6.085  13.191 -0.3640  0.1580 -0.3009
11631TIP3    H156308   0.396   6.161  13.133 -0.9696 -0.8720 -1.7415
11631TIP3    H256309   0.300   6.077  13.215 -0.4963 -0.7800 -1.0807
11632TIP3   OH256310   0.321   4.103  14.684  0.3126 -0.3538  0.0767
11632TIP3    H156311   0.277   4.045  14.622  1.4593  0.7949 -1.9103
11632TIP3    H256312   0.268   4.097  14.764 -1.4409 -1.6277 -1.1063
11633TIP3   OH256313   5.919   6.636  11.795 -0.3442  0.9035 -0.4285
11633TIP3    H156314   5.933   6.600  11.707 -1.7323  0.3710 -0.4517
11633TIP3    H256315   5.897   6.728  11.779  1.0923  1.2618 -0.5031
11634TIP3   OH256316   5.862   2.354  13.225 -0.2266 -0.0746 -0.8259
11634TIP3    H156317   5.817   2.399  13.297  0.1953  3.9819 -2.8366
11634TIP3    H256318   5.791   2.313  13.175 -1.0135  0.8090 -0.4757
11635TIP3   OH256319   1.374   2.107   6.019  0.5004 -0.4039 -0.0788
11635TIP3    H156320   1.448   2.165   6.001  1.0350 -0.9368  0.3574
11635TIP3    H256321   1.401   2.057   6.096  0.5793 -2.1101 -1.1729
11636TIP3   OH256322   5.649   2.294  11.882  0.0142  0.1073  0.2630
11636TIP3    H156323   5.690   2.373  11.918 -1.2183  1.3070 -0.8575
11636TIP3    H256324   5.622   2.319  11.793  1.8778 -2.3747 -1.1153
11637TIP3   OH256325   1.659   1.159   6.441  0.4448 -0.5735  0.1265
11637TIP3    H156326   1.716   1.136   6.516  0.8609  1.7699  0.6067
11637TIP3    H256327   1.715   1.146   6.364  0.2512 -2.2801  0.2303
11638TIP3   OH256328   0.046   1.080  16.436 -0.2233 -0.0151  0.2846
11638TIP3    H156329   0.123   1.073  16.492  0.4858  3.2116 -0.0896
11638TIP3    H256330   0.020   0.990  16.420  3.2590 -1.2537  0.7105
11639TIP3   OH256331   2.619   5.825   2.862  1.3023 -0.0266  0.5271
11639TIP3    H156332   2.692   5.795   2.916  3.0911  1.0370 -1.1906
11639TIP3    H256333   2.659   5.883   2.797 -1.0989  0.6958 -0.4147
11640TIP3   OH256334   4.676   6.457   3.766 -0.4067  0.0179  0.3932
11640TIP3    H156335   4.671   6.453   3.670  2.3158  1.0740  0.1178
11640TIP3    H256336   4.614   6.390   3.796 -1.2921 -0.3797 -2.0760
11641TIP3   OH256337   6.467   6.547   5.586 -0.0488  0.8446  0.2527
11641TIP3    H156338   6.402   6.605   5.625 -0.3516  0.1353  0.8129
11641TIP3    H256339   6.549   6.571   5.629 -0.3084  0.3455  1.0384
11642TIP3   OH256340   0.214   2.387   2.451  0.2255 -0.6282  0.1152
11642TIP3    H156341   0.272   2.455   2.485  0.0667  0.3712 -1.5274
11642TIP3    H256342   0.179   2.423   2.370 -0.5608 -2.3208 -0.3430
11643TIP3   OH256343   0.634   1.557  15.322 -0.1315 -0.0565 -0.2743
11643TIP3    H156344   0.564   1.495  15.340 -0.4921  0.4820  0.2120
11643TIP3    H256345   0.662   1.588  15.408  0.7489 -0.3043 -0.4595
11644TIP3   OH256346   3.188   2.840  11.881 -0.0276  0.2354  0.0660
11644TIP3    H156347   3.268   2.885  11.907  1.2919 -1.1245 -1.4542
11644TIP3    H256348   3.193   2.834  11.786 -1.7034 -0.3181 -0.0228
11645TIP3   OH256349   5.334   4.810  11.897  0.0672 -0.6277  0.4987
11645TIP3    H156350   5.380   4.729  11.873  0.3666 -0.4852  0.5902
11645TIP3    H256351   5.249   4.780  11.931 -0.1578 -0.8633 -0.2487
11646TIP3   OH256352   0.736   0.735  17.134  0.8121 -0.1683 -0.1587
11646TIP3    H156353   0.704   0.728  17.224 -0.2901 -1.1307 -0.5936
11646TIP3    H256354   0.680   0.800  17.093  0.8226 -0.2730 -0.3432
11647TIP3   OH256355   1.543   5.181   2.643  0.3768  0.1221  0.3663
11647TIP3    H156356   1.465   5.148   2.686 -1.0873  0.9550 -1.5202
11647TIP3    H256357   1.512   5.216   2.559  2.6432  1.2130 -0.1061
11648TIP3   OH256358   5.235   4.341  11.313  0.1518 -0.1991 -0.0381
11648TIP3    H156359   5.263   4.263  11.265  1.0826  0.0014  0.1560
11648TIP3    H256360   5.276   4.413  11.266  1.7037 -0.0446  1.4287
11649TIP3   OH256361   0.107   0.508   0.227  0.3316  0.1823 -0.1172
11649TIP3    H156362   0.054   0.528   0.303  1.3938  1.2410  0.3775
11649TIP3    H256363   0.092   0.414   0.211 -2.4452  0.6311 -0.6537
11650TIP3   OH256364   2.091   1.728   0.914 -0.1567  0.3856  0.4249
11650TIP3    H156365   2.157   1.661   0.930 -1.2791 -0.6272  1.0321
11650TIP3    H256366   2.132   1.810   0.943 -0.0291 -0.5665  3.2856
11651TIP3   OH256367   2.117   0.261  14.382  0.1617 -0.3337 -0.1602
11651TIP3    H156368   2.171   0.196  14.336 -1.6492 -2.4986  0.5747
11651TIP3    H256369   2.162   0.274  14.466  0.5203 -0.6684 -0.2967
11652TIP3   OH256370   2.920   4.815  13.197 -0.6401 -0.1948  0.6037
11652TIP3    H156371   2.991   4.788  13.138 -0.5369 -0.3468  0.7963
11652TIP3    H256372   2.866   4.873  13.143 -2.0812 -2.4481 -0.5016
11653TIP3   OH256373   0.785   4.955  15.281  0.6239 -1.0420  0.2787
11653TIP3    H156374   0.780   5.039  15.235  1.1506 -1.8733 -1.3668
11653TIP3    H256375   0.815   4.978  15.369 -0.3859  0.5989  0.2304
11654TIP3   OH256376   0.221   3.378  16.758 -0.6068 -0.2525 -0.6137
11654TIP3    H156377   0.292   3.443  16.764 -1.0913  0.1743  1.4210
11654TIP3    H256378   0.141   3.431  16.755 -0.9905 -0.7248  0.7728
11655TIP3   OH256379   4.183   6.155   6.290 -0.6502 -0.1762 -0.3346
11655TIP3    H156380   4.193   6.243   6.326  0.2289 -0.2460 -0.3768
11655TIP3    H256381   4.128   6.167   6.212  0.7630  0.5953 -1.2531
11656TIP3   OH256382   2.896   5.622   0.348  0.3116  0.7353  0.3105
11656TIP3    H156383   2.943   5.557   0.296 -0.8710 -0.5144  0.7381
11656TIP3    H256384   2.830   5.657   0.289 -0.7424 -0.3646  0.7939
11657TIP3   OH256385   0.637   1.802  16.194  0.2948 -0.2474  0.0877
11657TIP3    H156386   0.630   1.709  16.171 -0.1559  0.2141 -1.7220
11657TIP3    H256387   0.729   1.823  16.181  0.2933 -0.3056 -0.0145
11658TIP3   OH256388   2.480   4.096  11.212 -0.3051  0.1357 -0.3745
11658TIP3    H156389   2.572   4.112  11.232 -0.5679  1.4277 -0.1714
11658TIP3    H256390   2.451   4.036  11.281  0.0696  0.6878  0.2755
11659TIP3   OH256391   5.408   3.183   1.831 -0.0573  0.5243  0.2496
11659TIP3    H156392   5.493   3.164   1.793 -0.2005 -0.1733  0.2607
11659TIP3    H256393   5.394   3.276   1.814  0.2046  0.3914 -0.7579
11660TIP3   OH256394   5.201   2.676  14.553  0.6203  0.3277  0.0197
11660TIP3    H156395   5.117   2.702  14.514  0.5871  0.5944  0.2610
11660TIP3    H256396   5.179   2.651  14.642  0.6152 -0.8157 -0.2961
11661TIP3   OH256397   3.377   0.813  15.808 -0.2215 -0.6399  0.2140
11661TIP3    H156398   3.306   0.803  15.745 -0.2163  1.2051 -0.1618
11661TIP3    H256399   3.452   0.769  15.767 -0.2694  0.3681 -1.0244
11662TIP3   OH256400   2.416   3.483  13.673 -0.1098 -0.6105  0.4362
11662TIP3    H156401   2.321   3.490  13.679 -0.0601  0.0298  0.5505
11662TIP3    H256402   2.431   3.404  13.621 -0.7204 -0.3272 -0.1892
11663TIP3   OH256403   2.547   2.946  11.173  0.3472  0.2190  0.1476
11663TIP3    H156404   2.564   3.033  11.138 -0.4255  0.7542  1.0646
11663TIP3    H256405   2.569   2.887  11.101  0.9995  1.1567 -0.4414
11664TIP3   OH256406   2.791   6.572  13.027  0.3390 -0.6179  0.3303
11664TIP3    H156407   2.782   6.533  12.940  0.6545  1.3367 -0.6322
11664TIP3    H256408   2.715   6.541  13.075  0.1801 -1.7784 -0.6236
11665TIP3   OH256409   4.708   4.603  11.183  0.2624  0.6151  0.3961
11665TIP3    H156410   4.693   4.697  11.173  0.4825  0.5939 -0.1475
11665TIP3    H256411   4.716   4.570  11.093 -0.1849  0.0168  0.5691
11666TIP3   OH256412   4.550   2.892   1.917 -0.6653 -0.3483 -0.0367
11666TIP3    H156413   4.558   2.952   1.843 -1.4488  1.5343  1.3431
11666TIP3    H256414   4.579   2.808   1.882  0.9519  0.8997 -1.8990
11667TIP3   OH256415   1.949   6.571   4.568  0.1267  0.1410 -0.2317
11667TIP3    H156416   1.962   6.482   4.535 -1.3226 -0.1103 -0.1861
11667TIP3    H256417   1.968   6.565   4.662  1.6839  0.2791 -0.5085
11668TIP3   OH256418   3.659   3.008   1.931  0.1023  0.1840 -0.1175
11668TIP3    H156419   3.618   3.021   2.016  0.1781 -1.0679  0.1294
11668TIP3    H256420   3.683   2.915   1.930  1.8982  0.6169 -0.7156
11669TIP3   OH256421   1.361   0.516  13.023  0.5281 -0.1122 -0.0614
11669TIP3    H156422   1.394   0.538  13.110  0.7816  0.0788 -0.2067
11669TIP3    H256423   1.428   0.547  12.962 -0.7213  1.9945 -0.4713
11670TIP3   OH256424   1.249   3.689  12.950  0.1059  0.1145 -0.4782
11670TIP3    H156425   1.240   3.766  13.005  1.0899 -0.1809  0.1156
11670TIP3    H256426   1.333   3.700  12.906  0.2614 -0.6238 -0.3850
11671TIP3   OH256427   4.056   4.084  16.427  0.4598 -0.0486 -0.0110
11671TIP3    H156428   4.078   4.142  16.500 -1.3397  0.8878 -0.1525
11671TIP3    H256429   4.010   4.140  16.364  2.1836 -0.7806 -2.0263
11672TIP3   OH256430   1.758   0.897   2.754  0.3007 -0.0300  0.0619
11672TIP3    H156431   1.823   0.881   2.685 -0.9504 -1.0434 -0.9066
11672TIP3    H256432   1.784   0.838   2.825 -0.6459 -1.9046 -1.0788
11673TIP3   OH256433   5.202   0.243   1.970  0.0163  0.8809 -0.1468
11673TIP3    H156434   5.164   0.308   2.028 -0.7084  0.5284 -0.2055
11673TIP3    H256435   5.154   0.254   1.887 -0.6791 -0.2390  0.0819
11674TIP3   OH256436   3.641   0.764   1.577 -0.2135 -0.6828  0.6340
11674TIP3    H156437   3.548   0.776   1.561 -0.0387 -0.9057 -0.6926
11674TIP3    H256438   3.676   0.852   1.587 -0.4719 -0.5635  0.4816
11675TIP3   OH256439   3.859   3.894  15.283  0.2586  0.1835  0.5263
11675TIP3    H156440   3.765   3.906  15.271  0.3786  0.6477  0.0304
11675TIP3    H256441   3.867   3.807  15.324 -0.2079 -1.2574 -2.2132
11676TIP3   OH256442   4.886   6.740   0.459 -0.2096 -0.6234 -0.4497
11676TIP3    H156443   4.912   6.695   0.540  0.1720 -0.2757 -0.3751
11676TIP3    H256444   4.863   6.670   0.399 -0.1153 -0.9007 -0.1682
11677TIP3   OH256445   5.606   2.477   1.392  0.0107  0.0535 -0.6901
11677TIP3    H156446   5.690   2.510   1.425  0.8553 -2.2289 -0.3263
11677TIP3    H256447   5.543   2.546   1.411  1.5900  1.3005  0.2171
11678TIP3   OH256448   1.577   6.260   5.248  0.8538  0.2020 -0.3777
11678TIP3    H156449   1.631   6.199   5.298 -0.8738 -0.1241  1.2587
11678TIP3    H256450   1.637   6.329   5.222  1.9236  0.4175  2.2589
11679TIP3   OH256451   0.573   4.415   4.453  0.0536 -0.0206  0.1469
11679TIP3    H156452   0.539   4.356   4.385  3.1919 -1.9667  0.0451
11679TIP3    H256453   0.551   4.371   4.535  0.7247 -0.3433  0.1554
11680TIP3   OH256454   4.176   0.302  10.858  0.6484  0.1346 -0.4673
11680TIP3    H156455   4.198   0.227  10.803  1.8381 -1.1670  1.6648
11680TIP3    H256456   4.142   0.265  10.939 -2.1686  2.0139 -0.6210
11681TIP3   OH256457   3.729   2.517   5.341 -0.3666  0.0621  0.3414
11681TIP3    H156458   3.637   2.527   5.366  0.0102  0.8321  1.5588
11681TIP3    H256459   3.778   2.537   5.422  0.8909  0.7859 -0.5541
11682TIP3   OH256460   2.276   5.576  13.525 -0.8202 -0.1196 -0.9846
11682TIP3    H156461   2.364   5.547  13.503 -0.0135 -0.8794  2.6245
11682TIP3    H256462   2.287   5.665  13.557 -0.1923 -1.7807  4.4137
11683TIP3   OH256463   1.151   3.352  13.311 -0.1138  0.1199  0.3620
11683TIP3    H156464   1.164   3.270  13.358  1.7100  0.4615  0.5204
11683TIP3    H256465   1.159   3.420  13.377 -0.6974  0.4774  0.0767
11684TIP3   OH256466   5.380   4.781  10.843  0.7654  0.2253 -0.2266
11684TIP3    H156467   5.308   4.824  10.889  1.2955 -2.3668  3.5163
11684TIP3    H256468   5.339   4.709  10.796  0.5610  1.0528 -1.3520
11685TIP3   OH256469   2.074   0.930  15.924  0.2598 -0.0666 -0.7115
11685TIP3    H156470   1.979   0.937  15.920  0.3593  1.1018 -1.5219
11685TIP3    H256471   2.104   1.020  15.937  1.3411 -0.1205 -2.5393
11686TIP3   OH256472   0.054   1.249   3.314  0.0948  0.5935 -0.1811
11686TIP3    H156473   0.053   1.183   3.384  0.4397  0.5381 -0.2276
11686TIP3    H256474  -0.031   1.292   3.320 -0.7161 -0.8214 -1.0666
11687TIP3   OH256475   6.185   0.626   3.452  0.8970 -0.1505 -0.0614
11687TIP3    H156476   6.158   0.688   3.521  2.1100 -1.0243  1.2484
11687TIP3    H256477   6.178   0.540   3.494 -0.8405 -0.9753 -1.8777
11688TIP3   OH256478   2.730   1.903  17.062  0.7560 -0.4472 -0.6653
11688TIP3    H156479   2.793   1.883  16.992  1.8429 -2.0976  0.6815
11688TIP3    H256480   2.752   1.841  17.132 -0.3881  1.0096  1.0847
11689TIP3   OH256481   6.063   6.747   4.774  0.0964 -0.4022  0.2766
11689TIP3    H156482   6.083   6.828   4.820  0.3129  0.8322 -1.8872
11689TIP3    H256483   5.973   6.726   4.802 -0.1485  0.8457  0.4916
11690TIP3   OH256484   5.209   5.310   0.214 -0.1261  0.5037 -0.3585
11690TIP3    H156485   5.116   5.287   0.219  0.3762 -2.3925 -2.0985
11690TIP3    H256486   5.231   5.340   0.302 -2.3176 -0.3489  0.5612
11691TIP3   OH256487   6.066   5.880   0.413  0.3592 -0.7928  0.5916
11691TIP3    H156488   6.150   5.920   0.435  1.1520 -2.3465  0.4877
11691TIP3    H256489   6.053   5.814   0.481 -0.9754 -0.3418  0.8124
11692TIP3   OH256490   5.897   1.135  13.985  0.1279 -0.1116  0.0342
11692TIP3    H156491   5.949   1.057  14.001 -0.7643 -1.2261 -2.0677
11692TIP3    H256492   5.960   1.207  13.985  1.1967 -1.0177  0.4263
11693TIP3   OH256493   5.846   1.028  16.264 -0.0125 -0.1802  0.4449
11693TIP3    H156494   5.759   1.014  16.302 -0.0707  0.2106  0.4597
11693TIP3    H256495   5.848   1.121  16.242 -0.0232 -0.4163 -0.6079
11694TIP3   OH256496   3.264   4.398  16.259 -0.5343  0.3432  0.4374
11694TIP3    H156497   3.331   4.461  16.232  0.4215 -0.6015  0.5442
11694TIP3    H256498   3.286   4.379  16.351 -0.4304 -0.5994  0.2235
11695TIP3   OH256499   0.808   2.839  11.406  0.0245 -0.2588 -0.1384
11695TIP3    H156500   0.760   2.893  11.469 -0.2941 -2.1665  1.3463
11695TIP3    H256501   0.740   2.795  11.355  0.2795  0.2539 -0.9541
11696TIP3   OH256502   2.957   1.978   1.582 -0.1444 -0.2129 -0.1274
11696TIP3    H156503   3.028   1.919   1.607 -1.6908 -2.0132  0.2632
11696TIP3    H256504   2.965   1.986   1.487  2.5628  2.3868  0.1888
11697TIP3   OH256505   6.729   4.320   6.040  0.6833  0.8830  0.5526
11697TIP3    H156506   6.725   4.406   5.999 -0.4202  0.5303 -0.1116
11697TIP3    H256507   6.768   4.336   6.127 -1.8878  2.4654  1.5111
11698TIP3   OH256508   4.932   2.258   1.844  0.2786 -0.0292  0.1443
11698TIP3    H156509   5.000   2.252   1.776  1.7790  1.6767  1.3871
11698TIP3    H256510   4.901   2.348   1.839  0.5902  0.2041  1.8423
11699TIP3   OH256511   2.726   0.195  13.160 -0.2879 -0.1167 -0.0311
11699TIP3    H156512   2.662   0.171  13.093  1.1188 -0.5905 -1.2899
11699TIP3    H256513   2.767   0.112  13.185  0.9672  0.3265 -0.5072
11700TIP3   OH256514   6.465   5.333   4.544  0.1412  0.1480  0.2720
11700TIP3    H156515   6.417   5.271   4.489 -0.5171  0.3874  0.5620
11700TIP3    H256516   6.492   5.402   4.484 -1.2743  0.8211  0.3492
11701TIP3   OH256517   4.180   5.132  17.158  0.3345  0.3142  0.1136
11701TIP3    H156518   4.086   5.115  17.149  0.6585 -0.6395 -2.1826
11701TIP3    H256519   4.188   5.227  17.146 -0.4081  0.5726  1.4607
11702TIP3   OH256520   1.590   0.800  15.034 -0.3008 -0.2891  0.0837
11702TIP3    H156521   1.620   0.861  15.100 -1.7439  1.2384 -0.5926
11702TIP3    H256522   1.612   0.841  14.950 -1.9724 -0.2690 -0.3922
11703TIP3   OH256523   5.315   5.011  14.644 -0.0387  0.2421 -0.1795
11703TIP3    H156524   5.287   4.986  14.732 -1.5244 -0.9879 -0.9466
11703TIP3    H256525   5.353   5.098  14.654 -0.3806  0.2106  1.6354
11704TIP3   OH256526   0.377   2.421   2.782  0.3062 -0.2831 -0.0901
11704TIP3    H156527   0.435   2.364   2.731  1.4934 -0.2739  1.2211
11704TIP3    H256528   0.317   2.360   2.826  0.9325 -0.4710  0.5182
11705TIP3   OH256529   5.591   5.848  15.930  0.1156  0.1323 -0.1214
11705TIP3    H156530   5.563   5.867  16.019 -1.7817 -0.8433 -0.4569
11705TIP3    H256531   5.561   5.759  15.914  0.9521  0.0773 -1.5405
11706TIP3   OH256532   4.291   3.806  14.455  0.3669  0.2728  0.0086
11706TIP3    H156533   4.215   3.751  14.436 -1.1945  1.7100  1.6940
11706TIP3    H256534   4.300   3.861  14.377 -0.3166  0.0833 -0.2151
11707TIP3   OH256535   2.967   2.875   4.397  0.5353 -0.4010 -0.0215
11707TIP3    H156536   3.005   2.799   4.353  0.6015 -0.9061  0.8876
11707TIP3    H256537   3.040   2.912   4.447  0.5407  0.3556 -0.5714
11708TIP3   OH256538   6.198   4.314   5.567  1.0233 -0.1250 -0.5002
11708TIP3    H156539   6.203   4.397   5.520  0.1234  0.8649  1.0389
11708TIP3    H256540   6.136   4.331   5.638  2.6639 -1.3673  1.3292
11709TIP3   OH256541   5.185   2.724  11.485 -0.1827 -0.7343 -0.2285
11709TIP3    H156542   5.197   2.659  11.555  0.3978 -1.1088 -0.6592
11709TIP3    H256543   5.239   2.691  11.413  1.1846  0.8995 -0.0196
11710TIP3   OH256544   4.020   6.218  15.844  0.8119 -0.9310 -0.2038
11710TIP3    H156545   4.023   6.173  15.760 -0.6490 -1.1283 -0.1752
11710TIP3    H256546   4.075   6.166  15.902  2.2879 -0.4845 -1.1578
11711TIP3   OH256547   2.963   1.017  14.821  0.3866  0.0704  1.0191
11711TIP3    H156548   3.030   0.971  14.771 -1.4426 -0.9853 -0.5809
11711TIP3    H256549   2.905   1.055  14.754  0.4127  2.6210  2.3165
11712TIP3   OH256550   0.291   2.390   5.593 -0.5168  0.3108 -0.3051
11712TIP3    H156551   0.219   2.417   5.536  0.0406  0.4573 -0.9501
11712TIP3    H256552   0.322   2.307   5.556 -2.7660 -1.8071  2.1459
11713TIP3   OH256553   5.466   6.154   3.625 -0.2120  0.2095 -0.1598
11713TIP3    H156554   5.520   6.079   3.647  0.3549  0.1392 -1.6763
11713TIP3    H256555   5.394   6.152   3.689  1.5553  0.3441  1.9643
11714TIP3   OH256556   6.755   2.902  16.283  0.4091 -0.1445 -0.3553
11714TIP3    H156557   6.792   2.957  16.214 -1.9193 -0.1790 -1.7191
11714TIP3    H256558   6.758   2.957  16.361  0.9231  0.7808 -1.0022
11715TIP3   OH256559   0.464   0.377  11.064 -0.2842 -0.2013 -0.2388
11715TIP3    H156560   0.534   0.414  11.011  0.8560  0.0239  1.3687
11715TIP3    H256561   0.431   0.303  11.012  0.8245 -0.0286 -1.2287
11716TIP3   OH256562   2.931   3.661  12.772 -0.3429  0.1766  0.8302
11716TIP3    H156563   2.949   3.656  12.678 -0.4280 -1.4473  0.8736
11716TIP3    H256564   2.979   3.739  12.801 -0.4338  0.7987 -0.5663
11717TIP3   OH256565   3.174   5.742  14.960  1.0441  0.0795  0.1425
11717TIP3    H156566   3.098   5.755  15.017  1.1072  0.2293  0.1939
11717TIP3    H256567   3.195   5.829  14.927  2.0402  0.2755  1.2187
11718TIP3   OH256568   0.878   4.534   2.738  0.2048 -0.2848  0.2222
11718TIP3    H156569   0.851   4.442   2.735  1.8768 -0.8081  0.3629
11718TIP3    H256570   0.956   4.534   2.793  0.7213  1.0835 -0.4798
11719TIP3   OH256571   2.744   3.460   3.292  0.1296 -0.7032  0.3525
11719TIP3    H156572   2.741   3.365   3.283 -0.7204 -0.5785 -0.7861
11719TIP3    H256573   2.831   3.477   3.329  0.6633 -1.8523 -0.3198
11720TIP3   OH256574   0.474   1.663  13.216  0.2532  0.0046  0.4042
11720TIP3    H156575   0.469   1.704  13.302 -1.5357  0.9615 -0.0954
11720TIP3    H256576   0.414   1.714  13.162  1.5415 -0.3928 -1.4967
11721TIP3   OH256577   5.798   1.600  12.478 -0.2298  0.2876  0.3617
11721TIP3    H156578   5.738   1.582  12.549  0.8055 -1.6781  0.7960
11721TIP3    H256579   5.872   1.540  12.492 -0.5738 -1.1935 -3.0709
11722TIP3   OH256580   6.226   4.803  12.767  0.0877 -0.2412 -0.0105
11722TIP3    H156581   6.220   4.731  12.705  1.4274  0.0865 -0.5703
11722TIP3    H256582   6.222   4.882  12.713 -4.3205  0.3350  0.7916
11723TIP3   OH256583   6.668   5.207  13.590 -0.0444 -0.4769  0.1039
11723TIP3    H156584   6.638   5.130  13.541  1.2998 -0.9949  0.0239
11723TIP3    H256585   6.764   5.205  13.579 -0.0962  3.7798 -3.7684
11724TIP3   OH256586   2.569   1.445   3.670  0.1145 -0.1380  0.1201
11724TIP3    H156587   2.658   1.474   3.688  0.5276 -1.2673 -0.0029
11724TIP3    H256588   2.574   1.405   3.584 -0.4500 -0.4710  0.2384
11725TIP3   OH256589   2.269   5.390  12.179 -0.0215  0.3261  0.7464
11725TIP3    H156590   2.309   5.466  12.137  0.4114 -0.0920  0.3903
11725TIP3    H256591   2.279   5.320  12.115  0.0201 -0.1511  1.2699
11726TIP3   OH256592   4.053   3.852  12.756 -0.4839 -0.0481  0.0404
11726TIP3    H156593   4.077   3.797  12.682 -0.0684 -0.2761  0.3402
11726TIP3    H256594   4.052   3.792  12.831 -0.3708  0.2878  0.3120
11727TIP3   OH256595   6.233   1.560  17.065 -0.1016  0.2343 -0.3674
11727TIP3    H156596   6.255   1.648  17.034  0.3271 -0.0561 -0.9119
11727TIP3    H256597   6.225   1.569  17.160 -0.5782  0.9673 -0.4729
11728TIP3   OH256598   6.562   6.799   1.007 -0.2373  0.4495 -0.1959
11728TIP3    H156599   6.647   6.839   1.020  0.3781 -0.2728 -1.7690
11728TIP3    H256600   6.515   6.815   1.089  1.3357  1.0025  0.6340
11729TIP3   OH256601   5.099   6.309  13.072 -0.7740  0.6725 -0.3354
11729TIP3    H156602   5.093   6.286  13.165 -0.1797  1.4680 -0.0951
11729TIP3    H256603   5.193   6.318  13.055 -0.8125 -0.3958 -1.2529
11730TIP3   OH256604   5.360   2.583   3.557 -0.4268 -0.3367 -0.3478
11730TIP3    H156605   5.335   2.548   3.642 -1.9635 -0.8224 -0.9585
11730TIP3    H256606   5.334   2.675   3.561  0.6036 -0.0563  0.1120
11731TIP3   OH256607   1.800   3.315  16.223 -0.5803  0.1861 -0.0928
11731TIP3    H156608   1.867   3.261  16.266  1.9261  2.7622 -0.4185
11731TIP3    H256609   1.730   3.322  16.287  0.7941 -0.2056  1.5403
11732TIP3   OH256610   1.568   4.382  11.162 -0.3021 -0.3293  0.2966
11732TIP3    H156611   1.536   4.470  11.185 -1.4248 -0.5518 -0.3503
11732TIP3    H256612   1.496   4.342  11.115  1.2456 -0.5132 -2.0865
11733TIP3   OH256613   4.065   4.377   3.398 -0.1868  0.2343  0.1246
11733TIP3    H156614   4.101   4.326   3.325 -0.1350  2.3894 -1.4315
11733TIP3    H256615   4.120   4.455   3.401 -2.8056  2.2193 -0.3649
11734TIP3   OH256616   5.470   0.588   0.184 -0.0056  0.6225 -0.1624
11734TIP3    H156617   5.476   0.613   0.277 -1.3718 -0.4398  0.2455
11734TIP3    H256618   5.380   0.607   0.160  0.6817  2.1189 -1.6857
11735TIP3   OH256619   4.920   3.921   5.417  0.0249  0.5594 -0.0186
11735TIP3    H156620   4.988   3.863   5.451  0.2958 -0.2159 -1.7712
11735TIP3    H256621   4.937   4.005   5.460  1.7833  0.2578 -0.0347
11736TIP3   OH256622   5.460   0.909  16.070  0.3177  0.1396  0.5588
11736TIP3    H156623   5.478   0.839  16.008  0.8299  0.3585  0.4576
11736TIP3    H256624   5.365   0.903  16.085  0.2380 -0.1166  0.0006
11737TIP3   OH256625   1.695   1.010  13.035 -0.7209  0.0724  0.2878
11737TIP3    H156626   1.773   0.961  13.061 -1.0278 -0.2095  0.6969
11737TIP3    H256627   1.694   1.006  12.939 -1.6582 -2.2234  0.3260
11738TIP3   OH256628   3.465   5.472   2.469  0.3228  0.3117  0.9124
11738TIP3    H156629   3.491   5.545   2.525 -0.4971  1.2690  0.0736
11738TIP3    H256630   3.370   5.473   2.471  0.2920 -1.0266  1.2301
11739TIP3   OH256631   4.020   4.811   2.991 -0.1907 -0.5749 -0.0532
11739TIP3    H156632   3.984   4.750   3.055 -0.6214 -0.2846 -0.0092
11739TIP3    H256633   4.031   4.760   2.911  1.6873 -1.3099  0.6146
11740TIP3   OH256634   3.129   2.481   5.296  0.5466  0.5164 -0.1634
11740TIP3    H156635   3.117   2.518   5.383  0.0948  0.8901 -0.3774
11740TIP3    H256636   3.077   2.538   5.239  0.1353 -0.2351 -0.5518
11741TIP3   OH256637   5.964   3.513  14.540 -0.1191 -0.3011  0.6585
11741TIP3    H156638   6.043   3.496  14.489  0.0788 -0.0227  0.8693
11741TIP3    H256639   5.930   3.595  14.505 -0.2436 -0.3532  0.6558
11742TIP3   OH256640   1.356   0.600   3.700 -0.1675 -0.4908  0.1560
11742TIP3    H156641   1.440   0.641   3.681 -1.7936  3.1065  0.0709
11742TIP3    H256642   1.379   0.510   3.726  3.4093 -0.6399 -2.7049
11743TIP3   OH256643   0.721   6.265   4.308  0.4666 -0.1773 -0.1905
11743TIP3    H156644   0.794   6.290   4.251  1.6973 -0.2022  1.3379
11743TIP3    H256645   0.678   6.348   4.330 -0.1991 -0.1894 -1.3280
11744TIP3   OH256646   1.190   6.548  11.463  0.1506  0.0136  0.5117
11744TIP3    H156647   1.281   6.571  11.445 -0.2311  0.9375 -0.3015
11744TIP3    H256648   1.196   6.481  11.531  1.4730 -0.7192 -0.2797
11745TIP3   OH256649   4.171   5.417   2.544 -0.0108 -0.1039  0.2108
11745TIP3    H156650   4.144   5.469   2.619  2.4266  0.5088  0.7303
11745TIP3    H256651   4.186   5.329   2.579  3.3622  0.6824  1.0727
11746TIP3   OH256652   6.392   0.064  15.444 -0.0932 -0.3866  0.6357
11746TIP3    H156653   6.372   0.133  15.507 -0.4638  0.3629 -0.2743
11746TIP3    H256654   6.307   0.025  15.423  0.0390 -0.6964  0.6765
11747TIP3   OH256655   6.271   2.599   2.151 -0.1336  0.1468 -0.7524
11747TIP3    H156656   6.198   2.538   2.159  0.5209 -0.6270 -0.5161
11747TIP3    H256657   6.259   2.640   2.065 -1.0593  0.3292 -0.5490
11748TIP3   OH256658   6.697   3.080   2.174 -0.1261  0.0391 -0.2291
11748TIP3    H156659   6.649   3.029   2.239 -2.4867  3.1297  0.7082
11748TIP3    H256660   6.748   3.016   2.126 -3.9717 -3.4648 -0.2043
11749TIP3   OH256661   1.626   2.260   1.203  0.3020  0.3595 -0.0175
11749TIP3    H156662   1.665   2.327   1.259 -1.5057  1.7342 -0.3064
11749TIP3    H256663   1.624   2.300   1.116 -0.9666  0.0241 -0.1562
11750TIP3   OH256664   3.918   1.102  16.281 -0.0738  0.8108  0.2750
11750TIP3    H156665   3.836   1.151  16.283 -0.9223 -0.5698  0.6300
11750TIP3    H256666   3.944   1.103  16.189 -0.1771  1.7363  0.2424
11751TIP3   OH256667   6.650   0.501  11.584  0.1371 -0.0341  0.2157
11751TIP3    H156668   6.722   0.439  11.593 -0.0531 -0.2431  0.3124
11751TIP3    H256669   6.628   0.500  11.490  0.0377 -0.2242  0.2400
11752TIP3   OH256670   6.515   6.623   4.073 -0.0214 -0.1740  0.2535
11752TIP3    H156671   6.466   6.542   4.085 -0.8673  0.3300  0.2957
11752TIP3    H256672   6.458   6.678   4.021  0.2977  0.6135  0.7177
11753TIP3   OH256673   1.153   6.039   1.846 -0.8532  0.2665  0.5349
11753TIP3    H156674   1.169   5.956   1.892  0.2265  1.0339  1.5976
11753TIP3    H256675   1.079   6.078   1.892 -1.2829 -0.0408  0.1121
11754TIP3   OH256676   4.794   6.613  15.686  0.2271  0.1070 -0.3040
11754TIP3    H156677   4.887   6.607  15.665  0.2814 -3.6523  0.2288
11754TIP3    H256678   4.755   6.536  15.645 -2.2270  0.3196  1.3839
11755TIP3   OH256679   1.645   6.276   0.316  0.0422  0.1679 -0.3202
11755TIP3    H156680   1.644   6.370   0.300 -1.2868  0.6959  2.1947
11755TIP3    H256681   1.557   6.246   0.293  0.2972 -0.3704 -0.6218
11756TIP3   OH256682   3.564   3.451   0.579  0.5106 -0.2109 -0.0727
11756TIP3    H156683   3.548   3.365   0.540 -0.9066 -0.5057  1.0455
11756TIP3    H256684   3.509   3.511   0.528 -0.0378 -0.3165  0.3816
11757TIP3   OH256685   6.173   1.796   4.217 -0.3229  0.3222  0.0634
11757TIP3    H156686   6.082   1.817   4.238  0.2411  0.7208  2.3248
11757TIP3    H256687   6.216   1.787   4.302  1.9235  0.9135 -0.9419
11758TIP3   OH256688   5.322   4.480  12.109 -0.5926 -0.0907 -0.5856
11758TIP3    H156689   5.391   4.522  12.057 -0.6011 -1.0816 -1.4395
11758TIP3    H256690   5.254   4.460  12.045 -0.5469 -1.4682 -0.2277
11759TIP3   OH256691   4.602   2.361  12.817 -0.1389  0.1345 -0.3680
11759TIP3    H156692   4.667   2.291  12.821  1.2047  1.3995  1.1298
11759TIP3    H256693   4.629   2.423  12.885 -1.1665  2.2026 -1.7426
11760TIP3   OH256694   4.648   1.831   4.587 -0.0392  0.0570  0.0485
11760TIP3    H156695   4.561   1.860   4.613  0.3086  0.9478  0.2489
11760TIP3    H256696   4.664   1.752   4.640 -1.0168 -0.5689 -0.5520
11761TIP3   OH256697   5.127   0.700  15.404 -0.5802 -0.3950  0.3466
11761TIP3    H156698   5.193   0.634  15.428  0.6105  0.1672 -1.1750
11761TIP3    H256699   5.053   0.648  15.371 -0.0026 -1.0216 -0.0147
11762TIP3   OH256700   2.534   1.408  16.561  0.3665  1.0129 -0.3486
11762TIP3    H156701   2.569   1.488  16.600  1.9707  0.6229 -0.9130
11762TIP3    H256702   2.581   1.337  16.604  1.3496  0.5294 -2.1208
11763TIP3   OH256703   1.204   2.538  10.877  0.6808 -0.4734 -0.7629
11763TIP3    H156704   1.162   2.623  10.864  0.8364 -0.2912 -0.1019
11763TIP3    H256705   1.134   2.482  10.910  0.9345 -0.1791  0.3048
11764TIP3   OH256706   3.959   3.563   5.109  0.6166 -0.6455 -0.2110
11764TIP3    H156707   3.941   3.647   5.151  0.0651 -1.1826  0.6530
11764TIP3    H256708   3.952   3.582   5.015  1.4491  0.4766 -0.0797
11765TIP3   OH256709   3.105   2.422  16.124 -1.0426  0.0151  0.0854
11765TIP3    H156710   3.139   2.338  16.154 -2.5891 -0.3531  0.9096
11765TIP3    H256711   3.174   2.485  16.145  1.6732 -1.3789 -3.5795
11766TIP3   OH256712   6.462   0.117  12.984  0.1778  0.7231 -0.3720
11766TIP3    H156713   6.380   0.072  13.007  0.9651  1.3313  4.8533
11766TIP3    H256714   6.526   0.047  12.975 -0.0885  0.4605 -0.2638
11767TIP3   OH256715   2.285   0.767   1.395  0.3650 -0.0921 -0.4938
11767TIP3    H156716   2.379   0.749   1.398  0.2887 -0.6082 -1.1530
11767TIP3    H256717   2.259   0.769   1.488  1.0549  0.2559 -0.2986
11768TIP3   OH256718   0.379   0.142   3.660 -0.0552  0.1400  0.2943
11768TIP3    H156719   0.390   0.216   3.720  2.7875  0.1230 -0.0731
11768TIP3    H256720   0.397   0.065   3.714  0.7922  0.0103 -0.1525
11769TIP3   OH256721   3.793   0.488   5.717  0.1124 -0.1698 -0.0636
11769TIP3    H156722   3.787   0.575   5.676  1.9451  1.2168  2.3292
11769TIP3    H256723   3.703   0.468   5.743 -0.3518  1.0314 -0.6651
11770TIP3   OH256724   0.835   0.852   1.407 -0.5934  0.7346  0.1756
11770TIP3    H156725   0.835   0.945   1.383  0.2882  0.2384 -1.9627
11770TIP3    H256726   0.908   0.843   1.468  0.4311  1.1730 -0.9437
11771TIP3   OH256727   3.906   2.799   4.015  0.2105 -0.9341 -0.2830
11771TIP3    H156728   3.892   2.774   4.107  1.5165 -2.7165 -0.5147
11771TIP3    H256729   3.929   2.717   3.971  0.2408 -0.0054 -2.0893
11772TIP3   OH256730   0.274   1.090  11.809  0.2396 -0.5671  0.3639
11772TIP3    H156731   0.197   1.145  11.825  0.0272 -1.2781  1.9590
11772TIP3    H256732   0.264   1.017  11.870  0.4509 -2.4742 -1.7506
11773TIP3   OH256733   2.518   0.471   0.325 -0.8016 -0.4242 -0.1146
11773TIP3    H156734   2.569   0.390   0.312 -1.6359 -1.1598  0.9797
11773TIP3    H256735   2.572   0.523   0.385 -0.7595 -0.6600  0.0559
11774TIP3   OH256736   6.668   2.798  10.532 -0.1187  0.3516 -0.0114
11774TIP3    H156737   6.752   2.760  10.506  0.0266  0.2108  0.6446
11774TIP3    H256738   6.677   2.891  10.510  0.5827  0.5272  0.9068
11775TIP3   OH256739   2.185   0.793   4.281 -0.1462 -0.0060  0.3380
11775TIP3    H156740   2.165   0.883   4.255  0.1709  0.1374  0.5819
11775TIP3    H256741   2.103   0.758   4.313 -0.8320 -0.5247 -1.7972
11776TIP3   OH256742   6.428   5.402  14.433  0.3454 -0.4613 -0.2678
11776TIP3    H156743   6.464   5.371  14.516 -0.2487  0.4317  0.3389
11776TIP3    H256744   6.334   5.390  14.442  0.2297  0.1622 -0.5846
11777TIP3   OH256745   4.216   1.054   3.921  0.4704 -0.0018 -0.6172
11777TIP3    H156746   4.267   0.973   3.922  0.8143  0.1490 -2.5912
11777TIP3    H256747   4.131   1.028   3.886 -1.0085 -0.2880  2.8140
11778TIP3   OH256748   5.678   3.903   0.011  0.0611  0.1564  0.6598
11778TIP3    H156749   5.726   3.975  -0.030 -0.8263 -0.6645 -1.9938
11778TIP3    H256750   5.746   3.849   0.052  0.9383  1.2995  0.7612
11779TIP3   OH256751   4.270   5.294  11.209  0.1699 -0.2329  0.0423
11779TIP3    H156752   4.314   5.209  11.218  1.7573  0.6506  1.0996
11779TIP3    H256753   4.316   5.351  11.271 -0.0174  1.7301 -1.5368
11780TIP3   OH256754   0.251   0.944   3.526  0.1983 -0.3429  0.1445
11780TIP3    H156755   0.185   1.002   3.565  0.5160 -0.1690  0.4422
11780TIP3    H256756   0.325   1.002   3.509  0.9610 -0.8557  1.5240
11781TIP3   OH256757   3.057   4.539   5.776 -0.3435 -1.1161  0.1380
11781TIP3    H156758   3.150   4.523   5.795 -0.1847 -0.0223  0.3641
11781TIP3    H256759   3.057   4.585   5.692 -0.7319 -1.7232 -0.1988
11782TIP3   OH256760   0.590   3.312  15.755  0.2000  0.6424 -0.4489
11782TIP3    H156761   0.673   3.347  15.723  0.7912  0.4677  0.8443
11782TIP3    H256762   0.530   3.387  15.753  0.8790  1.2276  0.2865
11783TIP3   OH256763   2.118   0.658   1.775 -0.0372 -0.0266 -0.0277
11783TIP3    H156764   2.146   0.723   1.710 -2.0394 -0.8016 -1.8115
11783TIP3    H256765   2.182   0.588   1.767  0.0786  0.1490 -0.7567
11784TIP3   OH256766   5.482   6.048   0.122 -0.0369  0.0996  0.3992
11784TIP3    H156767   5.532   5.977   0.082  0.1814  0.8225 -0.6510
11784TIP3    H256768   5.525   6.128   0.090 -0.4611  0.7094  1.3196
11785TIP3   OH256769   2.856   2.441  16.268 -0.0317  0.0216  0.3336
11785TIP3    H156770   2.909   2.450  16.347 -0.7474 -0.0030  0.8307
11785TIP3    H256771   2.918   2.448  16.195  0.4132  1.7992  0.8418
11786TIP3   OH256772   3.366   3.447  12.507  0.1229 -0.2209 -0.0607
11786TIP3    H156773   3.406   3.362  12.527  0.4805  0.1386  0.7576
11786TIP3    H256774   3.423   3.511  12.548 -1.1188  0.3246  0.8572
11787TIP3   OH256775   3.876   4.631   4.466  0.3490 -0.2732 -0.2427
11787TIP3    H156776   3.895   4.646   4.559  0.8293  1.8508 -0.6110
11787TIP3    H256777   3.956   4.590   4.432  0.1365 -1.1457  0.2802
11788TIP3   OH256778   5.366   2.942   5.312  0.4644 -0.5342 -0.1841
11788TIP3    H156779   5.394   2.861   5.269  0.5631  0.0740 -1.3003
11788TIP3    H256780   5.440   3.002   5.302  0.1934 -0.1274  0.1841
11789TIP3   OH256781   5.786   5.922  11.869 -0.2556 -0.2301 -0.1140
11789TIP3    H156782   5.836   5.861  11.923  0.4211  1.2093  0.9445
11789TIP3    H256783   5.738   5.976  11.931 -0.4634  0.6277 -0.9866
11790TIP3   OH256784   5.707   2.629  13.398 -0.2674  0.1379  0.0925
11790TIP3    H156785   5.716   2.537  13.421 -0.2055  0.0494 -0.2896
11790TIP3    H256786   5.774   2.644  13.332  1.8113  1.1769  2.2533
11791TIP3   OH256787   3.387   4.167  15.992  0.3874 -0.5202 -0.3537
11791TIP3    H156788   3.459   4.103  15.988  1.3560  0.5639 -1.4282
11791TIP3    H256789   3.415   4.231  16.057  1.2376  0.7885 -1.9164
11792TIP3   OH256790   3.673   5.443  13.247  0.1977 -0.2475 -0.4869
11792TIP3    H156791   3.751   5.445  13.302  0.0629 -1.9539 -0.2124
11792TIP3    H256792   3.607   5.397  13.298 -0.4289 -0.4451 -1.4371
11793TIP3   OH256793   0.976   2.612  16.037  0.1528  0.3916 -0.4308
11793TIP3    H156794   0.959   2.526  15.998  0.8873  0.2208 -0.3779
11793TIP3    H256795   1.071   2.621  16.037  0.1026  1.0165 -0.0206
11794TIP3   OH256796   3.068   6.303   5.677  0.0711 -1.2789  0.0274
11794TIP3    H156797   3.149   6.339   5.714 -0.0062 -0.8827 -0.1785
11794TIP3    H256798   3.052   6.356   5.598  0.0780 -1.9253 -0.4090
11795TIP3   OH256799   3.446   1.490  13.004 -0.0938  0.0450  0.6021
11795TIP3    H156800   3.534   1.520  12.983 -0.7292  1.6708  0.1027
11795TIP3    H256801   3.450   1.394  12.996  1.4604  0.1432  0.0149
11796TIP3   OH256802   5.245   5.873   3.971 -0.2575 -0.1726 -0.1397
11796TIP3    H156803   5.321   5.825   4.003 -2.0461 -1.2333  2.9848
11796TIP3    H256804   5.180   5.865   4.041 -3.1115  1.0648 -2.4091
11797TIP3   OH256805   5.344   0.672  13.133 -0.3690 -0.0647 -0.3035
11797TIP3    H156806   5.427   0.646  13.093 -0.5832 -0.0303 -0.7811
11797TIP3    H256807   5.357   0.658  13.227  1.3006  2.9320  0.0430
11798TIP3   OH256808   2.168   1.779  16.988  0.4428  0.4220 -0.0805
11798TIP3    H156809   2.087   1.743  17.024 -0.0041  1.1009 -0.3865
11798TIP3    H256810   2.237   1.739  17.040 -0.0680 -0.3848  0.0047
11799TIP3   OH256811   0.760   5.667   4.070  0.2389 -0.2915  0.2659
11799TIP3    H156812   0.701   5.635   4.138 -0.5320  0.1819 -0.1602
11799TIP3    H256813   0.807   5.739   4.111 -0.2059 -0.0237  0.3091
11800TIP3   OH256814   4.920   3.899   1.025 -0.2492  0.1625  0.4854
11800TIP3    H156815   5.011   3.927   1.030 -0.3803  0.6558  0.1335
11800TIP3    H256816   4.899   3.903   0.932 -1.2426  2.0276  0.7411
11801TIP3   OH256817   1.107   5.137   2.064 -0.3017 -0.4137  0.1097
11801TIP3    H156818   1.170   5.075   2.026 -1.7674 -1.0544 -1.3867
11801TIP3    H256819   1.123   5.132   2.158  2.2579 -0.1073 -0.2495
11802TIP3   OH256820   0.351   0.842   0.712 -0.0946 -0.1032  0.1634
11802TIP3    H156821   0.431   0.872   0.755  0.0812 -1.4223  0.8067
11802TIP3    H256822   0.357   0.747   0.714 -0.3576 -0.2497 -2.2857
11803TIP3   OH256823   3.259   4.357  13.456 -0.0791 -0.5922 -0.1639
11803TIP3    H156824   3.297   4.417  13.521 -2.0365  1.0596 -0.4378
11803TIP3    H256825   3.265   4.404  13.373 -0.2243 -1.4696 -0.6883
11804TIP3   OH256826   1.548   1.418   6.357 -0.1213 -0.4243  0.5919
11804TIP3    H156827   1.619   1.474   6.388  2.0102 -1.6727 -1.6506
11804TIP3    H256828   1.568   1.331   6.393 -1.8237 -0.3977  1.7384
11805TIP3   OH256829   4.222   5.777   2.505 -0.4427  0.3936  0.4743
11805TIP3    H156830   4.232   5.725   2.425 -0.3304 -0.2582  0.9015
11805TIP3    H256831   4.311   5.795   2.534 -0.4754  1.4700 -0.0740
11806TIP3   OH256832   3.002   0.707  11.443 -0.4503 -0.3986  0.0065
11806TIP3    H156833   2.925   0.692  11.497  0.6105 -3.0394  0.9698
11806TIP3    H256834   3.026   0.798  11.460 -2.9770  0.3156  0.0948
11807TIP3   OH256835   1.304   3.789   2.917  0.3744 -0.3545 -0.3053
11807TIP3    H156836   1.245   3.740   2.975 -0.5064  0.7495 -0.2381
11807TIP3    H256837   1.285   3.755   2.829  1.1784 -1.4991 -0.0575
11808TIP3   OH256838   3.930   4.342  12.603  0.2750  0.2665 -0.4979
11808TIP3    H156839   3.951   4.254  12.573 -2.0118  0.0498 -1.6664
11808TIP3    H256840   3.837   4.338  12.626  0.4927  2.0079  0.8772
11809TIP3   OH256841   4.607   4.912   5.710 -0.2678  0.3395 -0.1654
11809TIP3    H156842   4.696   4.929   5.677 -0.5072  1.1815 -0.4063
11809TIP3    H256843   4.613   4.929   5.804 -0.5386  2.0523 -0.4205
11810TIP3   OH256844   3.238   2.939   2.073  0.3988 -0.3950  0.3724
11810TIP3    H156845   3.253   3.032   2.055  0.9386 -0.4734  0.4069
11810TIP3    H256846   3.152   2.936   2.115  0.1665  0.0359 -0.0604
11811TIP3   OH256847   0.256   5.113   3.027  0.3069  0.4794 -0.0576
11811TIP3    H156848   0.332   5.137   2.974  0.8043  0.6396  0.7260
11811TIP3    H256849   0.225   5.196   3.064 -0.3908  0.4487 -0.5476
11812TIP3   OH256850   3.821   2.701   4.264  0.3808  0.0048  0.0461
11812TIP3    H156851   3.865   2.763   4.322  0.4943 -0.0233 -0.0098
11812TIP3    H256852   3.803   2.625   4.320 -0.9423  0.6058  0.4543
11813TIP3   OH256853   6.773   2.446   2.183  0.1265 -0.3432  0.6061
11813TIP3    H156854   6.824   2.385   2.130  0.5904  0.2449  0.3701
11813TIP3    H256855   6.700   2.471   2.127 -0.4040 -1.1192  0.9144
11814TIP3   OH256856   4.757   6.124  10.377 -0.3076 -0.1971 -0.0586
11814TIP3    H156857   4.742   6.211  10.413  1.3017  0.2781 -0.4481
11814TIP3    H256858   4.849   6.105  10.397 -0.2493 -1.2296 -1.1594
11815TIP3   OH256859   4.004   4.640   0.689 -0.0083 -0.0492  0.2180
11815TIP3    H156860   3.953   4.682   0.619  2.1988  2.1712 -0.2221
11815TIP3    H256861   3.972   4.681   0.770  1.6255  2.1084 -0.1448
11816TIP3   OH256862   5.744   1.151  15.940  0.1498 -0.2162 -0.1693
11816TIP3    H156863   5.833   1.115  15.945  0.3205  0.2361  0.0937
11816TIP3    H256864   5.737   1.207  16.017 -0.2838 -0.0699 -0.3168
11817TIP3   OH256865   6.153   0.646  14.930  0.1019  0.0306  0.0195
11817TIP3    H156866   6.176   0.635  14.838  2.4187  1.5318  0.3360
11817TIP3    H256867   6.057   0.643  14.931 -0.0432  1.0056 -2.5874
11818TIP3   OH256868   2.089   4.731   0.907 -0.0534  0.1165 -0.0557
11818TIP3    H156869   2.072   4.759   0.817  0.3656 -0.0472 -0.1903
11818TIP3    H256870   2.174   4.769   0.928 -0.1932  0.2291  0.3026
11819TIP3   OH256871   4.964   4.225   5.943 -0.0460 -0.2215  0.5316
11819TIP3    H156872   4.877   4.202   5.976  0.1299 -1.8505 -0.0602
11819TIP3    H256873   5.016   4.242   6.022 -1.1743  2.0371  0.8747
11820TIP3   OH256874   0.442   1.482   2.281 -0.4610 -0.0814  0.0024
11820TIP3    H156875   0.445   1.467   2.187  0.2048 -0.1285  0.0243
11820TIP3    H256876   0.365   1.536   2.295  0.1354  0.9874 -0.7192
11821TIP3   OH256877   1.640   3.860   3.793 -0.4013  0.2781 -0.0550
11821TIP3    H156878   1.642   3.774   3.835 -1.5081 -0.9031 -2.2272
11821TIP3    H256879   1.590   3.915   3.853  0.2119 -0.6085  1.3161
11822TIP3   OH256880   4.728   0.129  13.584 -0.3132  0.2348 -0.0040
11822TIP3    H156881   4.737   0.079  13.665  0.3127 -0.2410 -0.3533
11822TIP3    H256882   4.685   0.069  13.523 -1.6452  0.9081  0.2384
11823TIP3   OH256883   2.154   2.765  11.214  0.3123  0.3887  0.0054
11823TIP3    H156884   2.194   2.851  11.205 -0.0295  0.6223  0.6371
11823TIP3    H256885   2.061   2.780  11.200  0.0013  0.4568  1.8093
11824TIP3   OH256886   2.672   3.392  11.681  0.6179  0.3664  0.7202
11824TIP3    H156887   2.652   3.323  11.745  0.6209  1.1217  1.5561
11824TIP3    H256888   2.639   3.358  11.598 -0.2778 -0.2243  1.2958
11825TIP3   OH256889   4.299   1.529   0.080  0.0292  0.3911  0.2918
11825TIP3    H156890   4.212   1.527   0.120  0.6021  0.8193  1.6073
11825TIP3    H256891   4.295   1.463   0.011 -0.8600 -0.6971  1.3504
11826TIP3   OH256892   0.089   5.078  12.830 -0.2199 -0.5784 -0.3426
11826TIP3    H156893   0.070   4.998  12.879  1.2865 -1.0248 -0.4533
11826TIP3    H256894   0.143   5.130  12.889  0.8775 -0.7362 -1.1806
11827TIP3   OH256895   5.046   1.917   5.747 -0.0385 -0.7557  0.3026
11827TIP3    H156896   5.037   1.823   5.762  0.2438 -0.5744  1.7068
11827TIP3    H256897   5.125   1.926   5.694  0.0866 -1.2863  0.3989
11828TIP3   OH256898   2.989   5.549   3.816  0.2310 -0.3023  0.2693
11828TIP3    H156899   3.061   5.540   3.755  0.0670 -2.1813  0.2786
11828TIP3    H256900   3.000   5.636   3.855  1.6341  0.0083 -0.7588
11829TIP3   OH256901   4.881   2.862  12.060  0.2583 -0.7352  0.5900
11829TIP3    H156902   4.799   2.845  12.106 -1.1976  1.1136 -1.1360
11829TIP3    H256903   4.867   2.830  11.971 -0.9083  4.2700 -1.4139
11830TIP3   OH256904   0.438   6.314  12.731 -0.4363  0.1421  0.0632
11830TIP3    H156905   0.482   6.230  12.720  0.6917  0.7162 -0.0682
11830TIP3    H256906   0.468   6.345  12.817 -0.3426  0.6837 -0.1635
11831TIP3   OH256907   2.884   6.531   1.046  0.2199  0.6333  0.2195
11831TIP3    H156908   2.966   6.493   1.078  0.9178  0.3711 -1.7362
11831TIP3    H256909   2.835   6.552   1.125  1.5855 -0.4864  1.4228
11832TIP3   OH256910   0.228   2.703   5.689 -0.3208  0.2330 -0.4660
11832TIP3    H156911   0.220   2.673   5.598  1.1064 -2.9160  0.3289
11832TIP3    H256912   0.144   2.680   5.729 -1.2917  2.4172 -1.0940
11833TIP3   OH256913   0.364   0.184   6.663 -0.1473 -0.2428 -0.3272
11833TIP3    H156914   0.372   0.266   6.712 -0.0730  0.4457 -1.4469
11833TIP3    H256915   0.451   0.169   6.627 -0.1156 -0.9252  0.0268
11834TIP3   OH256916   5.930   3.255  13.745 -0.5336  0.0002  0.6893
11834TIP3    H156917   5.876   3.224  13.672 -0.3774  1.8799 -0.3110
11834TIP3    H256918   6.010   3.203  13.739 -1.9022 -2.4139  1.8289
11835TIP3   OH256919   0.750   4.375   5.443  0.1248  0.1093  0.0871
11835TIP3    H156920   0.671   4.358   5.390  1.6293 -0.6254 -2.0494
11835TIP3    H256921   0.731   4.334   5.528 -2.1074  0.7056 -0.0665
11836TIP3   OH256922   2.360   6.022   3.926  0.0003 -0.3713  0.0790
11836TIP3    H156923   2.285   5.989   3.876 -0.0882 -0.5488  0.3271
11836TIP3    H256924   2.415   6.066   3.861 -0.3576 -0.1734 -0.0917
11837TIP3   OH256925   5.256   0.389   0.455 -0.2243 -0.4701 -0.2979
11837TIP3    H156926   5.274   0.424   0.368 -1.2406 -0.9080 -0.7063
11837TIP3    H256927   5.199   0.313   0.439 -0.1778 -0.7411  0.7272
11838TIP3   OH256928   0.829   1.158   5.553  0.3236 -0.6067  0.3344
11838TIP3    H156929   0.831   1.098   5.628 -0.0293 -0.4827  0.4429
11838TIP3    H256930   0.921   1.181   5.538  0.6428 -2.3731 -0.6734
11839TIP3   OH256931   1.631   0.147  12.629  0.0422 -0.0321 -0.1228
11839TIP3    H156932   1.686   0.192  12.564  1.2575 -0.2125  0.7603
11839TIP3    H256933   1.635   0.055  12.604 -1.2787  0.1337 -1.0688
11840TIP3   OH256934   3.167   5.526  16.173 -0.2873  0.0908 -0.2336
11840TIP3    H156935   3.230   5.582  16.127 -0.2679 -0.4352 -0.8621
11840TIP3    H256936   3.220   5.454  16.207 -0.3848  0.2146  0.1897
11841TIP3   OH256937   5.047   2.529   2.807  0.4326 -0.1688 -0.4772
11841TIP3    H156938   5.032   2.568   2.893 -2.3194 -0.8508 -0.5485
11841TIP3    H256939   5.118   2.467   2.820  1.7684  1.5268  0.6817
11842TIP3   OH256940   6.549   6.208   2.363 -0.1088 -0.6357 -0.2677
11842TIP3    H156941   6.617   6.179   2.424  0.4432  0.7805 -0.1690
11842TIP3    H256942   6.569   6.301   2.348 -1.7607 -0.3026 -0.5727
11843TIP3   OH256943   6.213   5.899   1.375 -0.5784  0.2091 -0.3297
11843TIP3    H156944   6.153   5.829   1.349 -1.5015  1.5084 -1.9458
11843TIP3    H256945   6.277   5.903   1.304  0.5784 -0.2127  0.6751
11844TIP3   OH256946   6.342   5.409   5.058 -0.1120  0.0678  0.4309
11844TIP3    H156947   6.351   5.404   4.963 -0.0142 -1.2106  0.4860
11844TIP3    H256948   6.431   5.413   5.091 -0.0940 -0.7983  0.5094
11845TIP3   OH256949   3.758   5.515   5.069  0.2477  0.0894 -0.5523
11845TIP3    H156950   3.762   5.479   5.158 -2.4066 -1.2308 -0.8650
11845TIP3    H256951   3.761   5.439   5.012 -1.8185  0.5759 -1.3963
11846TIP3   OH256952   2.485   0.358  15.675 -0.2376  0.4690  0.0118
11846TIP3    H156953   2.416   0.332  15.615  0.0686 -0.2196 -0.0582
11846TIP3    H256954   2.466   0.449  15.696 -3.4379 -0.6662  3.0182
11847TIP3   OH256955   1.884   2.485   0.365 -0.5034  0.2772 -0.4226
11847TIP3    H156956   1.894   2.398   0.403 -0.2091  0.9527  1.1436
11847TIP3    H256957   1.800   2.516   0.399 -0.4780  0.7064 -0.7408
11848TIP3   OH256958   1.348   4.770  11.770 -0.1794  0.3053 -0.0302
11848TIP3    H156959   1.316   4.788  11.858 -1.5597  0.0566 -0.4580
11848TIP3    H256960   1.333   4.851  11.722  0.9844  0.5882  0.0632
11849TIP3   OH256961   3.517   1.881  11.170  0.5955 -0.2720 -0.2592
11849TIP3    H156962   3.569   1.961  11.165 -0.6891  0.7460  1.4180
11849TIP3    H256963   3.431   1.907  11.137  0.4923 -1.3163 -0.8526
11850TIP3   OH256964   6.796   5.960   1.255 -0.2951  0.0067 -0.1770
11850TIP3    H156965   6.880   5.916   1.248  0.3539  1.1922 -0.0203
11850TIP3    H256966   6.810   6.031   1.316 -1.3797  0.3193 -0.2581
11851TIP3   OH256967   3.301   3.790  14.695  0.5169 -0.0702  0.0586
11851TIP3    H156968   3.307   3.852  14.767  1.4908 -1.0002  0.7994
11851TIP3    H256969   3.341   3.835  14.621  1.7851 -0.0141  0.7473
11852TIP3   OH256970   1.435   3.899  13.963  0.1709  0.0453  0.3343
11852TIP3    H156971   1.387   3.966  13.915  0.2376 -0.0502  0.1364
11852TIP3    H256972   1.431   3.821  13.908 -2.2471 -0.9370  1.7519
11853TIP3   OH256973   1.641   0.305   0.695  0.9223 -0.4734 -0.6805
11853TIP3    H156974   1.642   0.271   0.785  3.0346 -0.6887 -0.7235
11853TIP3    H256975   1.579   0.378   0.698  0.7262 -0.6548  0.8790
11854TIP3   OH256976   6.553   0.016   2.083  0.1843 -0.1469 -0.2824
11854TIP3    H156977   6.638  -0.025   2.101  0.2532  0.3251  0.5090
11854TIP3    H256978   6.510   0.019   2.169  0.1027  1.2517 -0.3556
11855TIP3   OH256979   5.092   5.061  16.718 -0.1139  0.2625 -0.3284
11855TIP3    H156980   5.056   5.005  16.649  2.0440 -0.2740 -1.1013
11855TIP3    H256981   5.085   5.009  16.798 -1.1452  0.2368 -0.4245
11856TIP3   OH256982   2.241   6.677  15.090  0.0216  0.0710 -0.4244
11856TIP3    H156983   2.287   6.758  15.069 -0.0116  0.1383 -0.2362
11856TIP3    H256984   2.173   6.703  15.152  0.6711 -0.2689  0.4392
11857TIP3   OH256985   4.952   2.508   1.347 -0.6369 -0.5769 -0.2075
11857TIP3    H156986   5.040   2.483   1.376 -0.1857  0.0663 -0.9860
11857TIP3    H256987   4.900   2.428   1.358 -0.0406 -0.8709  0.5688
11858TIP3   OH256988   5.200   3.603   0.566  0.1017  0.0353  0.5046
11858TIP3    H156989   5.203   3.633   0.475  1.9423  1.6710  1.0249
11858TIP3    H256990   5.112   3.568   0.577 -0.0265 -0.6579 -2.0207
11859TIP3   OH256991   0.112   3.667  15.017 -0.1172  0.0252 -0.2321
11859TIP3    H156992   0.082   3.656  14.927 -2.6886  0.6320  0.4607
11859TIP3    H256993   0.167   3.591  15.033  0.9897  0.2516 -2.4855
11860TIP3   OH256994   2.227   3.607  12.622  0.1066  0.2790  0.0028
11860TIP3    H156995   2.140   3.643  12.605  0.5512  2.0672  1.2007
11860TIP3    H256996   2.212   3.540  12.689 -0.5073 -0.5675 -0.9390
11861TIP3   OH256997   4.610   5.945  13.875 -0.8352  0.6194  0.2211
11861TIP3    H156998   4.570   5.926  13.790 -0.6453  1.8524 -0.1551
11861TIP3    H256999   4.684   5.884  13.881 -0.1477  1.2857 -1.0258
11862TIP3   OH257000   5.145   5.578  14.336  0.0075 -0.7516  0.0216
11862TIP3    H157001   5.093   5.603  14.413 -0.1398  1.4062 -0.7021
11862TIP3    H257002   5.117   5.640  14.268  0.5622 -2.2268 -1.6115
11863TIP3   OH257003   4.701   6.030   6.191 -0.6214  0.0746 -0.1945
11863TIP3    H157004   4.615   5.991   6.207 -0.1279 -1.3241 -0.8333
11863TIP3    H257005   4.695   6.117   6.230 -1.6821 -0.7187  1.5569
11864TIP3   OH257006   3.875   5.367  14.741 -0.0428  0.2623 -0.2337
11864TIP3    H157007   3.888   5.289  14.795  2.4901  2.1427  2.1197
11864TIP3    H257008   3.790   5.401  14.767  0.6465  0.5150  1.8148
11865TIP3   OH257009   1.530   1.192  11.917 -0.6077  0.2883  0.6214
11865TIP3    H157010   1.453   1.226  11.872  0.5611  4.5750  1.3693
11865TIP3    H257011   1.602   1.206  11.856  0.1026  0.1080  1.3907
11866TIP3   OH257012   3.425   6.516  15.990  0.0394  0.4689  0.3331
11866TIP3    H157013   3.364   6.464  16.042 -1.8530  0.9613 -1.2573
11866TIP3    H257014   3.425   6.602  16.033 -2.8326  1.4050 -1.2386
11867TIP3   OH257015   0.638   5.353  14.215 -0.3995 -0.6683 -0.5173
11867TIP3    H157016   0.580   5.408  14.268  1.7932  2.1729 -0.7927
11867TIP3    H257017   0.596   5.349  14.129  0.3171  2.5030 -1.1209
11868TIP3   OH257018   1.083   1.352   2.796 -0.1613 -0.6521  0.8651
11868TIP3    H157019   1.009   1.323   2.744  0.3609  0.6569 -0.6828
11868TIP3    H257020   1.089   1.288   2.867 -2.0531 -1.4169  0.3920
11869TIP3   OH257021   3.333   3.844  13.972 -0.3157  0.3294  0.1285
11869TIP3    H157022   3.328   3.915  13.908  0.3761 -0.4659 -0.8352
11869TIP3    H257023   3.367   3.769  13.923  0.4520 -0.2476  1.4803
11870TIP3   OH257024   0.538   5.687   0.812 -0.0209  0.3279  0.2732
11870TIP3    H157025   0.592   5.644   0.745  1.3201  1.8483  0.3115
11870TIP3    H257026   0.574   5.656   0.895 -0.7509 -0.4426  0.3180
11871TIP3   OH257027   2.972   0.234  13.286 -0.3003 -0.1928  0.0378
11871TIP3    H157028   3.038   0.174  13.251 -0.5292 -0.9490  0.8712
11871TIP3    H257029   2.893   0.214  13.237  0.0891  0.7893 -1.0387
11872TIP3   OH257030   6.192   2.189   1.452 -0.2861 -0.2538  0.3050
11872TIP3    H157031   6.171   2.096   1.459 -0.8826 -0.6589 -4.2224
11872TIP3    H257032   6.106   2.232   1.444  0.0190  0.0048 -2.3762
11873TIP3   OH257033   6.131   3.280  15.645  0.4211  0.0150  0.0143
11873TIP3    H157034   6.156   3.341  15.576 -1.7144  0.4943 -0.4108
11873TIP3    H257035   6.088   3.335  15.711 -1.9786 -1.0170 -0.5904
11874TIP3   OH257036   2.464   0.761   3.345 -0.2445 -0.1304  0.5822
11874TIP3    H157037   2.433   0.674   3.371  0.4597 -1.0548 -1.4434
11874TIP3    H257038   2.472   0.756   3.250  0.5418  1.9289  0.4873
11875TIP3   OH257039   5.456   0.021  15.837  0.0945 -0.3190  0.3309
11875TIP3    H157040   5.514   0.072  15.781 -0.1745 -0.5019 -0.1225
11875TIP3    H257041   5.514  -0.042  15.881  0.3938  0.2365  0.7379
11876TIP3   OH257042   5.506   0.823   5.800 -0.0811  0.0568 -0.1729
11876TIP3    H157043   5.529   0.823   5.707  1.2873  0.4776  0.1376
11876TIP3    H257044   5.486   0.915   5.820 -2.0268 -0.2811 -0.4042
11877TIP3   OH257045   2.656   3.995   4.771 -0.2764 -0.3151  0.1994
11877TIP3    H157046   2.666   3.958   4.859  0.3505 -1.9818 -0.5369
11877TIP3    H257047   2.565   3.977   4.748 -0.0805 -1.0786 -0.0020
11878TIP3   OH257048   5.378   4.890   6.437  0.2613  0.1258  0.0639
11878TIP3    H157049   5.424   4.973   6.427 -2.2211  1.7877  1.3837
11878TIP3    H257050   5.349   4.868   6.348  1.5604  0.2539 -0.4046
11879TIP3   OH257051   2.505   4.325   2.044  0.1485  0.4433 -0.7287
11879TIP3    H157052   2.543   4.315   2.131 -1.0618  0.0928 -0.2142
11879TIP3    H257053   2.517   4.418   2.024 -1.2173  0.9686  0.6461
11880TIP3   OH257054   1.523   6.031  16.243 -0.0478  0.2754 -0.3957
11880TIP3    H157055   1.559   6.092  16.178 -0.3935  0.4716 -0.4047
11880TIP3    H257056   1.590   5.963  16.252 -0.5542 -0.4556 -1.9175
11881TIP3   OH257057   2.491   1.463  13.102 -0.2295 -0.0993  0.3890
11881TIP3    H157058   2.554   1.533  13.083 -0.6033 -0.2234 -1.4730
11881TIP3    H257059   2.436   1.499  13.172 -0.0337  1.2253 -0.1052
11882TIP3   OH257060   3.720   2.495   5.056  0.5095 -0.6236 -0.5025
11882TIP3    H157061   3.693   2.474   5.146  1.9404  1.1381  0.4185
11882TIP3    H257062   3.663   2.567   5.030  0.8984 -0.3109 -0.5101
11883TIP3   OH257063   4.266   5.542   0.520  0.4425  0.6865 -0.1656
11883TIP3    H157064   4.309   5.588   0.592  1.1606 -0.6281  0.2643
11883TIP3    H257065   4.192   5.598   0.497 -0.2390  0.7925  2.0866
11884TIP3   OH257066   5.963   3.313   3.126  0.4483  0.1036  0.0046
11884TIP3    H157067   5.902   3.251   3.166  1.1706  0.3974  1.6859
11884TIP3    H257068   5.923   3.337   3.043 -0.4664 -1.6379 -0.1029
11885TIP3   OH257069   5.997   2.066   0.813 -0.5135  0.0086  0.1555
11885TIP3    H157070   5.925   2.114   0.853  0.5562  1.4583  0.4268
11885TIP3    H257071   6.012   2.111   0.730  1.7664  1.4403  1.2691
11886TIP3   OH257072   1.665   0.273   5.901  0.6140 -0.1305  0.0639
11886TIP3    H157073   1.748   0.272   5.948  0.8512 -0.0617 -0.3471
11886TIP3    H257074   1.677   0.338   5.832  0.1916 -0.0662  0.0492
11887TIP3   OH257075   3.382   0.013  16.034  0.2440 -0.5840  0.1113
11887TIP3    H157076   3.439   0.002  15.958 -1.3991  0.6103 -1.3712
11887TIP3    H257077   3.389   0.106  16.055 -0.8389 -0.5099  0.1632
11888TIP3   OH257078   3.291   4.140   5.727  0.1400  0.2104 -0.3439
11888TIP3    H157079   3.294   4.184   5.642  0.4281 -0.8472 -0.8937
11888TIP3    H257080   3.355   4.069   5.721  0.9851  0.8010  1.1594
11889TIP3   OH257081   0.871   4.120   5.910 -0.6669  0.0923  0.0447
11889TIP3    H157082   0.901   4.211   5.917 -1.7503  0.3969  0.9964
11889TIP3    H257083   0.776   4.127   5.904 -0.6772 -0.9061 -1.8773
11890TIP3   OH257084   3.648   5.477  12.269  0.0595 -0.0216  0.1534
11890TIP3    H157085   3.731   5.511  12.303  0.5467 -2.0135  1.1119
11890TIP3    H257086   3.617   5.417  12.336 -0.3941 -1.9523 -1.6501
11891TIP3   OH257087   1.498   2.495   2.226 -0.0616  0.1337 -0.4373
11891TIP3    H157088   1.456   2.547   2.295 -2.6773 -0.6658 -1.3136
11891TIP3    H257089   1.579   2.464   2.266 -1.0528  0.3956  1.9944
11892TIP3   OH257090   0.347   2.965  17.138 -0.5366  0.2524 -0.9292
11892TIP3    H157091   0.317   2.880  17.168  1.3612  0.5134  2.2529
11892TIP3    H257092   0.424   2.946  17.083 -0.0662 -0.1195 -0.1552
11893TIP3   OH257093   1.887   5.726   2.297 -0.2848  0.1058 -0.0449
11893TIP3    H157094   1.798   5.731   2.263  0.0915  1.8078 -0.8857
11893TIP3    H257095   1.934   5.673   2.231 -0.0577  1.5852 -1.1234
11894TIP3   OH257096   2.380   5.524  12.730 -0.2792 -0.3264  0.1306
11894TIP3    H157097   2.320   5.597  12.744 -1.3501 -1.2405  0.5614
11894TIP3    H257098   2.361   5.464  12.802  2.1087 -0.0721  1.0500
11895TIP3   OH257099   3.772   5.077   3.302  0.4245 -0.0028 -0.0646
11895TIP3    H157100   3.762   4.982   3.289 -1.8703  0.2527 -0.4246
11895TIP3    H257101   3.839   5.102   3.239 -2.3485 -0.6650 -3.5822
11896TIP3   OH257102   1.093   1.053   1.549 -0.0071  0.2891 -0.2978
11896TIP3    H157103   1.132   0.984   1.604 -2.8658 -0.0322  1.5502
11896TIP3    H257104   1.135   1.133   1.580 -0.2950 -0.0907  1.1679
11897TIP3   OH257105   2.449   1.428  13.404  0.3707  0.3318  0.2195
11897TIP3    H157106   2.381   1.401  13.465 -1.5167 -2.8189 -2.8975
11897TIP3    H257107   2.506   1.351  13.396 -0.5144 -0.1546 -3.1212
11898TIP3   OH257108   0.294   5.999  16.816 -0.3709 -0.2965 -0.4607
11898TIP3    H157109   0.305   6.083  16.861 -2.0661 -0.6233  0.6296
11898TIP3    H257110   0.232   6.018  16.745 -0.7462 -0.6188 -0.2207
11899TIP3   OH257111   2.338   1.005   2.627 -0.1007  0.2478 -0.0702
11899TIP3    H157112   2.362   1.041   2.542 -0.0258  0.1688 -0.0824
11899TIP3    H257113   2.250   1.038   2.643 -0.4034 -0.3391 -0.5124
11900TIP3   OH257114   1.045   6.092  16.945  0.1124 -0.1251 -0.2073
11900TIP3    H157115   1.137   6.120  16.942  0.3550 -0.7305  0.9680
11900TIP3    H257116   1.025   6.087  17.039 -0.7943 -1.0449 -0.4333
11901TIP3   OH257117   2.965   3.743   3.187 -0.3378 -0.2241  0.4550
11901TIP3    H157118   2.923   3.763   3.271 -1.7008 -0.5237 -0.1180
11901TIP3    H257119   2.893   3.748   3.124  0.7414  0.3961 -0.7599
11902TIP3   OH257120   6.784   4.516   5.840 -0.4748 -0.3143 -0.3418
11902TIP3    H157121   6.879   4.525   5.843 -0.4101  0.0540 -2.1925
11902TIP3    H257122   6.751   4.606   5.832 -1.2494 -0.0891  3.4812
11903TIP3   OH257123   0.386   3.821  16.728 -0.3194 -0.2462  0.2424
11903TIP3    H157124   0.364   3.801  16.638 -0.1330 -4.1005  0.8878
11903TIP3    H257125   0.304   3.853  16.767 -0.8638 -0.2885 -0.8462
11904TIP3   OH257126   0.901   1.366  17.127  0.2488  0.2987  0.3515
11904TIP3    H157127   0.881   1.441  17.071  2.5655  0.5832 -0.2100
11904TIP3    H257128   0.889   1.290  17.071 -1.2280  0.2742  0.6606
11905TIP3   OH257129   0.406   1.476   2.005 -0.1458  0.2415 -0.0785
11905TIP3    H157130   0.355   1.405   1.966  1.3252 -0.8673 -0.0575
11905TIP3    H257131   0.363   1.556   1.975 -1.8503 -0.6377 -0.0883
11906TIP3   OH257132   3.142   4.672   5.012 -0.4392  0.5393  0.3581
11906TIP3    H157133   3.224   4.670   4.964 -1.6599  0.3558 -1.8844
11906TIP3    H257134   3.141   4.757   5.056  1.0252  0.4362  0.6200
11907TIP3   OH257135   2.058   4.283  15.573 -0.0176 -0.6202 -0.8060
11907TIP3    H157136   2.076   4.354  15.635  1.1904  0.1964 -2.0218
11907TIP3    H257137   2.105   4.208  15.608  0.2794 -0.2859 -0.4774
11908TIP3   OH257138   4.808   3.178   4.462  0.1440  0.3007 -0.2969
11908TIP3    H157139   4.785   3.114   4.530  2.0132  0.6354  0.7107
11908TIP3    H257140   4.735   3.240   4.462 -0.2944 -0.1863  0.8088
11909TIP3   OH257141   1.973   0.388   2.946 -0.0067 -0.1109 -0.1946
11909TIP3    H157142   2.018   0.383   2.862  2.7147 -1.5495  1.2297
11909TIP3    H257143   2.023   0.453   2.996 -2.2482  1.5513  0.0273
11910TIP3   OH257144   5.629   3.736  15.770  0.7054  0.3850 -0.0349
11910TIP3    H157145   5.710   3.685  15.769  0.4464 -0.1304  1.4115
11910TIP3    H257146   5.564   3.675  15.808  0.0262  1.2854  0.2797
11911TIP3   OH257147   1.907   4.681   0.155 -0.1546  0.4735 -0.5590
11911TIP3    H157148   1.975   4.717   0.212 -0.5718 -0.0099  0.2658
11911TIP3    H257149   1.864   4.758   0.118  0.0543  0.8046 -0.1261
11912TIP3   OH257150   2.769   0.923  14.262 -0.1365  0.5065 -0.4157
11912TIP3    H157151   2.739   0.837  14.230 -0.6158  0.8696 -0.9757
11912TIP3    H257152   2.816   0.961  14.188  2.5001 -0.3637  0.6796
11913TIP3   OH257153   3.895   5.841  11.185  0.0124 -0.0562  0.3148
11913TIP3    H157154   3.950   5.893  11.127 -0.2378  1.3119  1.2512
11913TIP3    H257155   3.835   5.795  11.126  0.3667  0.5783 -0.5628
11914TIP3   OH257156   6.492   4.022  17.162 -0.6444 -0.7985  0.1589
11914TIP3    H157157   6.526   4.086  17.225  0.2348 -1.9983  0.9412
11914TIP3    H257158   6.459   4.075  17.090  4.0457  0.5211 -1.3643
11915TIP3   OH257159   0.489   6.637  15.013  0.0390 -0.5502 -0.1467
11915TIP3    H157160   0.521   6.727  15.011 -0.6993 -0.2836 -0.5798
11915TIP3    H257161   0.559   6.585  14.973 -0.2414  0.0854 -1.5252
11916TIP3   OH257162   1.746   5.809   4.054 -0.1804  0.0931  0.5333
11916TIP3    H157163   1.727   5.893   4.012 -0.1718  0.1452  0.6351
11916TIP3    H257164   1.712   5.744   3.992 -1.6933  0.1986  1.2093
11917TIP3   OH257165   3.074   2.196   4.444 -0.1948  0.3292  0.5721
11917TIP3    H157166   3.130   2.136   4.493 -2.9368 -0.4524  3.0882
11917TIP3    H257167   3.019   2.139   4.390 -0.7040  0.7863  0.5895
11918TIP3   OH257168   0.680   4.496   1.641  0.3987  0.3114  0.0754
11918TIP3    H157169   0.713   4.547   1.567  0.9796  0.5624  0.4962
11918TIP3    H257170   0.664   4.561   1.709 -1.9580  0.3458 -0.4177
11919TIP3   OH257171   3.160   2.572   1.251 -0.0649  0.2457  0.4606
11919TIP3    H157172   3.107   2.494   1.268  1.0298 -0.6213 -0.0187
11919TIP3    H257173   3.201   2.592   1.336  1.5167 -1.1421  0.0634
11920TIP3   OH257174   1.112   4.739   0.896  0.2641 -0.2877  0.0659
11920TIP3    H157175   1.091   4.651   0.866  2.5032 -0.5611 -0.9595
11920TIP3    H257176   1.096   4.795   0.820 -0.5594  0.1001  0.5198
11921TIP3   OH257177   0.859   3.185  10.227  0.3980 -0.3465 -0.2593
11921TIP3    H157178   0.863   3.124  10.301 -0.0404 -0.5770 -0.4205
11921TIP3    H257179   0.898   3.266  10.260  1.2607 -0.8071 -0.1377
11922TIP3   OH257180   2.006   1.202  16.729 -0.7264 -0.6488 -0.2339
11922TIP3    H157181   1.916   1.233  16.717  0.1791  2.4189 -0.0198
11922TIP3    H257182   2.022   1.212  16.822 -0.1751 -1.2198 -0.2665
11923TIP3   OH257183   3.180   6.080   3.124  0.3710 -0.5551 -0.1821
11923TIP3    H157184   3.087   6.104   3.121  0.6438  0.5670 -0.3343
11923TIP3    H257185   3.222   6.142   3.065  1.5077  0.4695  1.5794
11924TIP3   OH257186   3.211   5.133   5.049 -0.2842  0.0035  0.5373
11924TIP3    H157187   3.304   5.111   5.043 -0.5252 -0.8069 -0.6471
11924TIP3    H257188   3.210   5.228   5.061  0.7041  0.0143  0.6311
11925TIP3   OH257189   4.451   5.067   2.742 -0.3154 -0.3851  0.9167
11925TIP3    H157190   4.371   5.026   2.710  0.4457 -0.1627 -1.4736
11925TIP3    H257191   4.427   5.159   2.757 -0.5800 -0.3879  0.5051
11926TIP3   OH257192   1.128   6.337   1.157  0.2319 -0.4097 -0.2982
11926TIP3    H157193   1.208   6.359   1.205  0.3652 -3.1725  0.9780
11926TIP3    H257194   1.159   6.299   1.075  0.1303  0.6116 -0.8189
11927TIP3   OH257195   4.131   6.138  16.789 -0.0183  0.3509 -0.2207
11927TIP3    H157196   4.059   6.104  16.842 -1.6322  0.6361 -2.1184
11927TIP3    H257197   4.186   6.186  16.852 -0.0607 -1.9587  1.7223
11928TIP3   OH257198   4.717   5.897   1.809 -0.0077  0.4387  0.1950
11928TIP3    H157199   4.801   5.883   1.766  1.2009  0.9468  2.2490
11928TIP3    H257200   4.732   5.972   1.867 -2.6458  2.2390 -1.2589
11929TIP3   OH257201   0.847   6.272   3.281  0.0887 -0.3098 -0.5592
11929TIP3    H157202   0.843   6.249   3.188 -0.0918 -1.2603 -0.3267
11929TIP3    H257203   0.803   6.357   3.286 -3.1318 -1.8293 -0.8445
11930TIP3   OH257204   3.891   6.365   3.836  0.5073  0.3254 -0.0570
11930TIP3    H157205   3.852   6.353   3.922  0.1637 -0.8004 -0.3433
11930TIP3    H257206   3.878   6.457   3.815 -0.4873  0.3377  0.5825
11931TIP3   OH257207   5.677   2.396   4.823  0.4155  0.5064 -0.3468
11931TIP3    H157208   5.673   2.463   4.755 -1.6469  0.4197 -0.3639
11931TIP3    H257209   5.651   2.441   4.903 -1.0719 -0.2475 -0.3710
11932TIP3   OH257210   0.587   5.069   2.638 -0.2445  0.0943 -0.7138
11932TIP3    H157211   0.665   5.040   2.590  0.8531 -1.3697  1.7341
11932TIP3    H257212   0.611   5.155   2.673  0.5926 -0.6199  0.5537
11933TIP3   OH257213   2.785   2.580   3.836  0.4776  0.0742 -0.0867
11933TIP3    H157214   2.801   2.631   3.915  0.8370 -2.6652  1.7286
11933TIP3    H257215   2.692   2.591   3.819  0.5630  1.3730  0.1928
11934TIP3   OH257216   1.169   4.562  11.668  0.5428  0.0511  0.6981
11934TIP3    H157217   1.245   4.620  11.676  0.2353  0.8959 -1.5601
11934TIP3    H257218   1.097   4.613  11.705  0.4278  0.8543 -0.5464
11935TIP3   OH257219   3.453   2.099  11.754  0.3814  0.5890  1.1119
11935TIP3    H157220   3.507   2.128  11.827  0.5627 -0.6781  1.5198
11935TIP3    H257221   3.456   2.170  11.691 -0.1560  1.9294  2.5351
11936TIP3   OH257222   2.803   5.801  14.150  0.1401 -0.5553  0.5592
11936TIP3    H157223   2.814   5.712  14.115  1.8565  0.4830 -1.7484
11936TIP3    H257224   2.877   5.812  14.210 -0.1552 -0.7039  0.9577
11937TIP3   OH257225   3.388   2.046  13.639  0.5104 -0.5664  0.0751
11937TIP3    H157226   3.324   2.025  13.706  0.3671 -1.0709 -0.2124
11937TIP3    H257227   3.336   2.085  13.568  0.4776 -1.1931 -0.2564
11938TIP3   OH257228   1.219   3.070  13.824  0.2502 -0.0673  0.3595
11938TIP3    H157229   1.160   3.038  13.755 -1.1848  1.3458  0.8807
11938TIP3    H257230   1.176   3.044  13.905  0.7204  0.3591  0.7421
11939TIP3   OH257231   3.291   4.332   0.712 -0.1175  0.1709 -0.0959
11939TIP3    H157232   3.329   4.414   0.681  0.5107 -0.6377 -1.5691
11939TIP3    H257233   3.347   4.305   0.785 -0.2010  0.9262  0.2579
11940TIP3   OH257234   5.256   1.745  12.371  0.1311 -0.3409  0.1799
11940TIP3    H157235   5.261   1.705  12.284 -0.6279 -1.2399  0.5290
11940TIP3    H257236   5.333   1.801  12.376  0.0768 -0.1158 -1.1486
11941TIP3   OH257237   5.606   6.474  15.382  0.6766  0.3718 -0.1316
11941TIP3    H157238   5.546   6.479  15.456  0.9945  0.4463  0.1262
11941TIP3    H257239   5.556   6.432  15.312 -0.2046  1.8845 -0.4488
11942TIP3   OH257240   4.017   3.771   6.195  0.2780  0.2058 -0.2678
11942TIP3    H157241   4.059   3.686   6.181 -0.5635  0.1420 -2.9434
11942TIP3    H257242   4.084   3.824   6.239  0.6437 -1.9261  1.9692
11943TIP3   OH257243   0.487   6.352   2.091  0.2835  0.0272  0.1442
11943TIP3    H157244   0.500   6.273   2.143  0.2294  0.4310  0.7857
11943TIP3    H257245   0.548   6.344   2.018  0.9669 -0.1457  0.7321
11944TIP3   OH257246   3.487   5.357   3.929  0.6729 -0.6447  0.1056
11944TIP3    H157247   3.466   5.381   3.839 -0.1487 -1.0372  0.1906
11944TIP3    H257248   3.577   5.388   3.941  0.6078 -0.1241 -0.6791
11945TIP3   OH257249   3.704   3.091   3.511  0.1338 -0.1031 -0.4740
11945TIP3    H157250   3.648   3.166   3.493  1.9704  0.8099 -2.9750
11945TIP3    H257251   3.760   3.119   3.583  0.5626  0.8206 -1.1531
11946TIP3   OH257252   4.784   5.387   4.027  0.0915 -0.0788 -0.2861
11946TIP3    H157253   4.796   5.356   4.117  0.7315  1.7116  0.2810
11946TIP3    H257254   4.860   5.352   3.980  0.7448  0.4899  0.3167
11947TIP3   OH257255   0.596   4.305  15.062  0.8018  0.6205 -0.6901
11947TIP3    H157256   0.621   4.271  14.976 -2.0063  1.7201 -2.0772
11947TIP3    H257257   0.546   4.234  15.103  0.4184  0.8001 -0.8416
11948TIP3   OH257258   6.612   3.372   1.296 -0.6456  0.4885  0.6643
11948TIP3    H157259   6.553   3.384   1.221 -1.1784  1.6011  1.2382
11948TIP3    H257260   6.697   3.353   1.257 -0.4865  2.8761 -0.3026
11949TIP3   OH257261   1.703   2.191  11.003  0.3125 -0.1490 -0.0403
11949TIP3    H157262   1.709   2.219  10.911 -2.1269 -1.4671 -0.7058
11949TIP3    H257263   1.723   2.270  11.053 -0.4656  1.2136 -1.7470
11950TIP3   OH257264   1.914   2.056  17.037  0.3993  0.4940 -0.4802
11950TIP3    H157265   1.875   2.084  16.955  0.4064  0.7390 -0.4009
11950TIP3    H257266   1.899   1.961  17.041 -0.4321  0.6243 -0.3190
11951TIP3   OH257267   0.305   2.699  13.780  0.7532 -0.1909 -0.4509
11951TIP3    H157268   0.315   2.698  13.684  1.8067 -0.3082 -0.3502
11951TIP3    H257269   0.243   2.627  13.798 -0.3554  0.5684 -1.1203
11952TIP3   OH257270   2.038   2.079   5.697 -0.1074  0.2117  0.4651
11952TIP3    H157271   2.083   1.998   5.718  0.0159  0.6579  2.1014
11952TIP3    H257272   1.950   2.068   5.734 -1.3903 -0.5696 -2.4972
11953TIP3   OH257273   1.468   4.635   4.102  0.3925 -0.1940 -0.2065
11953TIP3    H157274   1.425   4.720   4.090 -0.4213 -0.4110  1.0022
11953TIP3    H257275   1.536   4.652   4.168 -0.9928 -0.8222  1.4719
11954TIP3   OH257276   2.515   1.924  13.102 -0.1714  0.0274  0.1768
11954TIP3    H157277   2.570   1.846  13.096  0.3892  0.4184  0.2493
11954TIP3    H257278   2.435   1.900  13.054  0.3661 -0.2756 -0.5870
11955TIP3   OH257279   5.304   6.237   1.462  0.2528 -0.2131  0.3337
11955TIP3    H157280   5.312   6.302   1.392  2.4340 -1.0092 -0.2383
11955TIP3    H257281   5.374   6.260   1.524  1.2228 -2.1004  0.0040
11956TIP3   OH257282   1.226   5.349   5.230  0.3418  0.7590 -0.3497
11956TIP3    H157283   1.172   5.365   5.152  0.3078  1.1684 -0.2443
11956TIP3    H257284   1.248   5.437   5.262  1.7771  0.6280 -0.8790
11957TIP3   OH257285   6.059   5.009  14.303 -0.5702 -0.0958  0.0068
11957TIP3    H157286   5.998   5.062  14.354  0.8101 -0.4665  2.2407
11957TIP3    H257287   6.032   4.918  14.320  0.9327 -0.3040  1.6586
11958TIP3   OH257288   6.427   0.325  12.341 -0.1004 -0.1103 -0.4579
11958TIP3    H157289   6.480   0.381  12.397  0.0393 -1.4725  0.8420
11958TIP3    H257290   6.359   0.291  12.399 -3.1841  2.3718 -2.2617
11959TIP3   OH257291   6.106   1.024  16.386  0.3807 -0.2273  0.4971
11959TIP3    H157292   6.019   1.016  16.347  0.0946  0.5635  0.9575
11959TIP3    H257293   6.159   1.068  16.319 -0.1609  1.3089  1.0358
11960TIP3   OH257294   1.632   6.533   0.296 -0.0456 -0.4031 -0.3084
11960TIP3    H157295   1.584   6.548   0.377  0.0242  0.1812 -0.3699
11960TIP3    H257296   1.571   6.556   0.227 -0.2932 -1.4295 -0.4489
11961TIP3   OH257297   4.596   6.812  10.275  0.2064  0.1008  0.0410
11961TIP3    H157298   4.658   6.838  10.207 -1.4835  1.2267 -1.1226
11961TIP3    H257299   4.635   6.733  10.314  1.6519 -0.0478 -1.6036
11962TIP3   OH257300   0.718   3.819  15.864  0.0617  0.2246 -0.5350
11962TIP3    H157301   0.680   3.841  15.779  0.3227  0.9420 -0.4735
11962TIP3    H257302   0.667   3.744  15.895  0.3072 -0.3905 -1.5571
11963TIP3   OH257303   4.360   5.060   5.171 -0.2388  0.1587 -0.7982
11963TIP3    H157304   4.280   5.013   5.196  0.1283  0.0742  0.2390
11963TIP3    H257305   4.381   5.114   5.247  1.4340 -0.8146 -0.5197
11964TIP3   OH257306   6.712   5.429  12.318 -0.6505 -0.2415  0.1124
11964TIP3    H157307   6.670   5.342  12.320 -0.1253 -0.5018 -0.1207
11964TIP3    H257308   6.663   5.479  12.384 -1.7485 -0.3416 -0.5930
11965TIP3   OH257309   1.320   4.846   0.673  0.3987 -0.0571  0.0105
11965TIP3    H157310   1.379   4.906   0.628  0.5124  0.9529  1.4547
11965TIP3    H257311   1.377   4.794   0.730 -0.0903  1.3004  1.8284
11966TIP3   OH257312   4.457   5.081   1.275  0.5144 -0.0995  0.6784
11966TIP3    H157313   4.406   5.025   1.334 -1.1543 -1.0601 -1.5372
11966TIP3    H257314   4.504   5.019   1.219  0.5969  0.7697 -0.2298
11967TIP3   OH257315   4.443   6.770   1.854  0.2845  0.0878 -0.2000
11967TIP3    H157316   4.393   6.781   1.773 -1.0268 -1.0467  0.4169
11967TIP3    H257317   4.402   6.831   1.916 -0.2664 -0.7268  0.2594
11968TIP3   OH257318   5.157   3.240  14.953  0.3337  0.6968  0.1694
11968TIP3    H157319   5.128   3.180  14.884  2.3436 -2.6464  1.9617
11968TIP3    H257320   5.229   3.288  14.913  1.5854 -1.3212 -0.1734
11969TIP3   OH257321   4.837   0.461   3.245  0.2634  0.9409 -0.3203
11969TIP3    H157322   4.905   0.514   3.286  0.2542  1.3742 -0.8435
11969TIP3    H257323   4.756   0.510   3.262  0.0860  0.4716  0.2278
11970TIP3   OH257324   2.212   1.552  11.956  0.0871  0.1260  0.1783
11970TIP3    H157325   2.162   1.613  11.902 -0.0541 -0.8149 -0.8022
11970TIP3    H257326   2.303   1.578  11.942  0.1879 -1.0566 -1.8405
11971TIP3   OH257327   2.985   1.139   4.424  0.1277  0.3907 -0.2842
11971TIP3    H157328   3.074   1.167   4.447  0.1959 -1.2481  1.7963
11971TIP3    H257329   2.955   1.203   4.360  2.4933  1.4739 -0.4009
11972TIP3   OH257330   5.378   6.134  15.513  0.1034  0.7539 -0.8596
11972TIP3    H157331   5.437   6.085  15.570 -1.0969  0.9353  0.5971
11972TIP3    H257332   5.326   6.068  15.468 -0.7399  0.6302  0.2572
11973TIP3   OH257333   4.969   3.052   0.550 -0.0530  0.5044 -0.4273
11973TIP3    H157334   4.942   2.972   0.595  0.8651 -1.0807 -2.5141
11973TIP3    H257335   4.936   3.123   0.605 -0.2679 -1.2755  1.9030
11974TIP3   OH257336   4.967   4.307  14.289 -0.5500  0.1212 -0.1876
11974TIP3    H157337   5.005   4.380  14.339  0.4439 -2.6106  3.4968
11974TIP3    H257338   5.033   4.286  14.223  1.0342  0.1521  1.3067
11975TIP3   OH257339   5.855   2.517  14.647  0.6265  0.3033 -0.3058
11975TIP3    H157340   5.909   2.459  14.593  0.1216 -0.4828  0.0081
11975TIP3    H257341   5.804   2.568  14.584  1.1462  0.4739 -0.5902
11976TIP3   OH257342   5.126   4.328  12.294  0.1938 -0.2426  0.0512
11976TIP3    H157343   5.161   4.319  12.383  1.7372  0.4433 -0.4345
11976TIP3    H257344   5.188   4.387  12.251 -1.0116  0.1348 -1.2332
11977TIP3   OH257345   6.693   2.810  17.061 -0.4799 -0.3031  0.2950
11977TIP3    H157346   6.654   2.733  17.102  0.1922  0.4396  2.4978
11977TIP3    H257347   6.652   2.815  16.974 -2.8916 -1.3449  1.2749
11978TIP3   OH257348   2.809   5.056  16.899  0.3013  0.0352 -0.2837
11978TIP3    H157349   2.748   5.129  16.890  0.0236 -0.2257 -0.5551
11978TIP3    H257350   2.888   5.094  16.938 -0.2116  0.2860  0.5189
11979TIP3   OH257351   4.738   4.530  12.572 -0.3471 -0.3506  0.2499
11979TIP3    H157352   4.809   4.592  12.588 -2.4086  2.1926  0.2588
11979TIP3    H257353   4.744   4.467  12.643 -0.2854  1.9926  2.4600
11980TIP3   OH257354   0.767   2.130  16.308  0.3170 -0.1111  0.0253
11980TIP3    H157355   0.793   2.054  16.256  0.1499 -0.3534  0.2947
11980TIP3    H257356   0.740   2.195  16.243 -0.4598 -0.6250 -0.1767
11981TIP3   OH257357   5.959   4.828   4.292  0.2498 -0.2873 -0.3041
11981TIP3    H157358   5.904   4.760   4.255 -2.6974  1.5920  0.2516
11981TIP3    H257359   6.000   4.788   4.369 -1.1915 -1.4957 -0.1480
11982TIP3   OH257360   6.541   6.309  15.901 -0.3130  0.3098  0.4743
11982TIP3    H157361   6.569   6.353  15.981 -0.1718  1.9345 -0.4147
11982TIP3    H257362   6.464   6.359  15.872  0.9456  1.2017 -1.5496
11983TIP3   OH257363   5.207   0.920   2.821  0.4343 -0.5769 -0.0758
11983TIP3    H157364   5.173   0.975   2.892 -0.7871 -1.0780 -0.2662
11983TIP3    H257365   5.302   0.936   2.823  0.3116  0.1420  1.0460
11984TIP3   OH257366   3.366   4.634   2.777  0.2914  0.0005  0.1809
11984TIP3    H157367   3.356   4.719   2.820  1.7065 -0.6671  1.9422
11984TIP3    H257368   3.291   4.583   2.808  0.8759 -0.2183  1.2793
11985TIP3   OH257369   1.828   6.476   5.346  0.0361 -0.3698 -0.2397
11985TIP3    H157370   1.764   6.505   5.411  1.1268 -0.8684  1.0977
11985TIP3    H257371   1.899   6.540   5.353  0.2074 -0.4873 -0.8852
11986TIP3   OH257372   4.659   0.231  12.137 -0.7471 -0.0189  0.2348
11986TIP3    H157373   4.636   0.267  12.222 -0.2341  1.2831 -0.1611
11986TIP3    H257374   4.744   0.189  12.151 -0.1866  1.0640  0.1529
11987TIP3   OH257375   3.310   5.463  13.032  0.3081  0.4915  0.7403
11987TIP3    H157376   3.241   5.524  13.007  0.1915 -0.1881 -0.7231
11987TIP3    H257377   3.295   5.446  13.125 -1.6168  0.2208  0.4149
11988TIP3   OH257378   3.970   6.304  15.361  0.1132  0.5286  0.0856
11988TIP3    H157379   4.017   6.362  15.300  0.7616 -0.6259 -0.5424
11988TIP3    H257380   3.925   6.242  15.304 -0.5623  0.3930  0.7598
11989TIP3   OH257381   3.640   2.308   2.442 -0.0495  0.7802  0.1464
11989TIP3    H157382   3.684   2.330   2.360  4.1935  0.7396  2.1116
11989TIP3    H257383   3.699   2.246   2.485 -3.3929 -1.3235  2.1486
11990TIP3   OH257384   5.009   2.170  16.252  0.2113 -0.5221  0.0413
11990TIP3    H157385   5.088   2.191  16.203  0.1627 -0.2997  0.0547
11990TIP3    H257386   4.990   2.250  16.302 -0.4273 -0.3069 -0.5151
11991TIP3   OH257387   0.309   5.006   4.012 -0.2222  0.4771  0.0143
11991TIP3    H157388   0.381   5.003   4.076  0.6429 -1.1388 -0.9724
11991TIP3    H257389   0.345   5.056   3.939 -0.7011  1.0616  0.1672
11992TIP3   OH257390   1.729   2.538  12.331 -0.4750  0.4302 -0.4836
11992TIP3    H157391   1.638   2.523  12.359 -0.0604  0.5882  1.0183
11992TIP3    H257392   1.742   2.632  12.344  0.2082  0.2390  0.3040
11993TIP3   OH257393   5.413   4.181   0.721  0.4234  0.0440  0.2130
11993TIP3    H157394   5.437   4.272   0.733  1.9971 -0.1027 -1.4703
11993TIP3    H257395   5.429   4.140   0.806 -1.5305  1.5195  1.3864
11994TIP3   OH257396   4.639   6.686  11.817  0.9599 -0.4430  0.1771
11994TIP3    H157397   4.705   6.755  11.824  0.0617  0.2996  1.7680
11994TIP3    H257398   4.688   6.605  11.832  1.6052  0.0461  0.7558
11995TIP3   OH257399   2.806   0.830  12.573 -0.5365  0.4014  0.1461
11995TIP3    H157400   2.854   0.872  12.644 -1.0718 -1.8150  1.9326
11995TIP3    H257401   2.853   0.748  12.557 -1.6829 -0.1494 -0.5273
11996TIP3   OH257402   6.302   5.674  15.625  0.8460  0.4158  0.5677
11996TIP3    H157403   6.304   5.665  15.721  3.1691  3.2623  0.9405
11996TIP3    H257404   6.326   5.765  15.610  0.0205  0.1887 -2.7743
11997TIP3   OH257405   4.325   3.576   3.163 -0.3499  0.3702 -0.4119
11997TIP3    H157406   4.406   3.535   3.193 -0.3513  0.8398  0.2542
11997TIP3    H257407   4.256   3.534   3.213 -0.5362 -0.0838 -1.0361
11998TIP3   OH257408   4.159   2.320   5.157  0.0067  0.0774  0.3447
11998TIP3    H157409   4.109   2.273   5.091  0.9145 -0.0565 -0.2695
11998TIP3    H257410   4.138   2.276   5.239 -0.8211 -0.0142  0.0933
11999TIP3   OH257411   0.428   6.243   4.270  0.4805  0.3454  0.3244
11999TIP3    H157412   0.438   6.163   4.218 -0.1956 -0.6018  1.6095
11999TIP3    H257413   0.480   6.228   4.349  0.0167  1.0142  0.7680
12000TIP3   OH257414   3.351   5.227  16.743 -0.0464 -0.1461 -0.7917
12000TIP3    H157415   3.258   5.205  16.748 -0.0278 -0.2858 -1.0251
12000TIP3    H257416   3.392   5.171  16.809 -0.1359 -0.0389 -0.6444
12001TIP3   OH257417   1.452   5.189   5.636 -0.2736  0.1401  0.4689
12001TIP3    H157418   1.423   5.187   5.546 -0.1402  2.0683  0.3386
12001TIP3    H257419   1.548   5.195   5.630 -0.2546  0.1321  0.7491
12002TIP3   OH257420   1.180   0.545   3.370 -0.0591 -0.5003 -0.2708
12002TIP3    H157421   1.232   0.549   3.289 -0.7378  0.6772 -0.6824
12002TIP3    H257422   1.224   0.606   3.429 -0.4467 -0.1845 -0.3039
12003TIP3   OH257423   2.414   0.646   1.845 -0.1749 -0.5349  0.0715
12003TIP3    H157424   2.389   0.664   1.936 -1.2831 -1.2369 -0.0721
12003TIP3    H257425   2.454   0.728   1.814  0.1099 -0.2533  1.1468
12004TIP3   OH257426   4.272   2.419   1.016 -0.0142 -0.0427  0.1658
12004TIP3    H157427   4.310   2.365   1.085 -1.8884 -0.7217  0.7271
12004TIP3    H257428   4.179   2.397   1.017 -0.2861  0.8128 -1.7946
12005TIP3   OH257429   2.271   4.528  13.778 -0.1537 -0.1073  0.4479
12005TIP3    H157430   2.241   4.512  13.868 -0.0506  0.7027  0.6340
12005TIP3    H257431   2.335   4.599  13.786 -0.1458 -0.0242 -0.2666
12006TIP3   OH257432   5.803   1.199  17.108 -0.1178 -0.3345  0.7426
12006TIP3    H157433   5.832   1.286  17.080  0.6507 -0.8043  0.0203
12006TIP3    H257434   5.761   1.162  17.031 -2.3647  0.1728  1.6590
12007TIP3   OH257435   6.239   1.934   0.061 -0.8363  0.0723  0.2135
12007TIP3    H157436   6.304   1.996   0.094 -1.1615  1.5991 -1.8213
12007TIP3    H257437   6.241   1.861   0.123  0.8479  1.3110  1.6953
12008TIP3   OH257438   3.058   4.368   2.415 -0.1202  0.5801 -0.8963
12008TIP3    H157439   2.989   4.411   2.364  1.7805  1.7808 -2.6233
12008TIP3    H257440   3.103   4.440   2.459  0.9406  0.0112 -1.0281
12009TIP3   OH257441   6.726   3.961   6.880 -0.4200 -0.0169 -0.3479
12009TIP3    H157442   6.725   3.971   6.784 -0.5708  1.6933 -0.2030
12009TIP3    H257443   6.806   3.912   6.898 -0.9858 -1.3994 -1.4125
12010TIP3   OH257444   0.644   2.696   5.108  0.6828  0.4081 -0.3832
12010TIP3    H157445   0.632   2.629   5.175  0.4966  0.6095 -0.2164
12010TIP3    H257446   0.737   2.690   5.085  0.6698  0.0978 -0.3652
12011TIP3   OH257447   6.656   1.977  16.400 -0.6741  0.2509  0.5832
12011TIP3    H157448   6.605   1.983  16.319 -0.7836  0.4939  0.6671
12011TIP3    H257449   6.618   1.903  16.447  0.1024 -0.5873 -0.0780
12012TIP3   OH257450   5.549   2.751  11.144  0.7678  0.0261 -0.0173
12012TIP3    H157451   5.587   2.692  11.209 -1.7561 -1.5384  0.1843
12012TIP3    H257452   5.583   2.719  11.060  1.1765 -0.2679  0.2547
12013TIP3   OH257453   3.587   5.207  15.412 -0.0968 -0.1976  0.4108
12013TIP3    H157454   3.535   5.181  15.336 -1.0545 -1.2690  1.3873
12013TIP3    H257455   3.676   5.180  15.392 -0.6744 -2.2702  0.4564
12014TIP3   OH257456   3.534   4.812   4.428  0.2132  0.0002 -0.1937
12014TIP3    H157457   3.558   4.876   4.494  0.0144 -1.5196  1.4401
12014TIP3    H257458   3.616   4.789   4.384  0.5806  0.0236  0.4738
12015TIP3   OH257459   4.023   4.947   1.611  0.1912  0.7813  0.3502
12015TIP3    H157460   4.072   4.876   1.570 -0.4410  0.7710 -0.4083
12015TIP3    H257461   4.038   5.023   1.554 -1.4214  0.5473 -0.4399
12016TIP3   OH257462   6.148   3.530   0.417 -0.1246 -0.1468 -0.3645
12016TIP3    H157463   6.149   3.612   0.467  0.1049 -0.9070  0.9285
12016TIP3    H257464   6.146   3.557   0.325 -1.0323  1.3045  0.0520
12017TIP3   OH257465   6.126   2.494  16.287  0.3261 -0.1704  0.2870
12017TIP3    H157466   6.083   2.517  16.204  2.1225  0.5674 -0.4775
12017TIP3    H257467   6.214   2.529  16.279 -0.1704  2.2234  3.5916
12018TIP3   OH257468   6.097   6.656  12.454 -0.1776 -0.3806  0.9158
12018TIP3    H157469   6.164   6.616  12.399 -1.6806 -0.1393 -1.1983
12018TIP3    H257470   6.064   6.584  12.508  1.1932 -0.6619  1.4291
12019TIP3   OH257471   6.436   6.648  16.595  0.4088  0.5102 -0.9048
12019TIP3    H157472   6.419   6.729  16.546 -0.1029 -0.1574 -1.8777
12019TIP3    H257473   6.380   6.653  16.672 -0.7248  0.4464 -1.7009
12020TIP3   OH257474   0.420   2.110  12.179  0.3101  0.2408  0.0351
12020TIP3    H157475   0.390   2.174  12.243 -1.2324  1.2224 -1.5542
12020TIP3    H257476   0.456   2.039  12.231 -0.2983  1.2549  1.9513
12021TIP3   OH257477   3.029   5.423   0.192 -0.2020 -0.0413  0.2549
12021TIP3    H157478   3.091   5.479   0.146 -0.1494  1.6619  2.2463
12021TIP3    H257479   3.083   5.366   0.246 -0.3306  0.8431  1.3322
12022TIP3   OH257480   2.365   6.098  13.820  0.4121 -0.6751 -0.8390
12022TIP3    H157481   2.369   6.022  13.877  2.9435 -1.9183 -2.4998
12022TIP3    H257482   2.375   6.173  13.879  1.7441 -1.8436  0.4872
12023TIP3   OH257483   3.542   4.691  12.093 -0.2666  0.3674  0.0857
12023TIP3    H157484   3.479   4.710  12.024 -0.4208  0.0371  0.1338
12023TIP3    H257485   3.605   4.763  12.089  0.2350 -0.1084 -0.9876
12024TIP3   OH257486   4.720   6.362  10.505  0.0985 -0.0479  0.2245
12024TIP3    H157487   4.791   6.393  10.563 -0.3378  0.1082  0.6857
12024TIP3    H257488   4.641   6.374  10.557 -0.1595 -1.2379  0.1247
12025TIP3   OH257489   1.901   2.976  13.201  0.4034 -0.3713  0.3111
12025TIP3    H157490   1.852   2.893  13.202  0.4047 -0.4051 -1.0451
12025TIP3    H257491   1.951   2.974  13.120 -0.6009  1.5313 -0.4220
12026TIP3   OH257492   3.762   3.881  12.249 -0.9104 -0.0599 -0.1536
12026TIP3    H157493   3.842   3.916  12.209  0.0495 -0.9110  0.9231
12026TIP3    H257494   3.709   3.958  12.270  1.3127  0.9179  2.5511
12027TIP3   OH257495   2.231   5.419  12.925  0.0523  0.4938 -0.2585
12027TIP3    H157496   2.204   5.417  13.017  0.5740  2.5852 -0.0148
12027TIP3    H257497   2.150   5.403  12.877 -0.5281  0.9069  0.5484
12028TIP3   OH257498   5.242   6.053   3.787 -0.0445 -0.4471 -0.0573
12028TIP3    H157499   5.240   5.982   3.852 -0.1266 -0.8629 -0.5104
12028TIP3    H257500   5.165   6.036   3.732  0.9203 -1.0493 -1.2614
12029TIP3   OH257501   2.564   2.093   0.040 -0.4140 -0.4052  0.7412
12029TIP3    H157502   2.625   2.062  -0.027  0.6164  1.1559  0.8917
12029TIP3    H257503   2.597   2.056   0.122 -1.2947 -1.7863  0.4906
12030TIP3   OH257504   1.869   2.810  12.139  0.2943 -0.0429 -0.3084
12030TIP3    H157505   1.823   2.813  12.223  0.4889 -2.0098 -0.0720
12030TIP3    H257506   1.800   2.804  12.074  0.1316  1.8401 -0.3475
12031TIP3   OH257507   2.873   0.195   2.221 -0.0794  0.2897 -0.0753
12031TIP3    H157508   2.934   0.244   2.276 -0.7415  0.5422  0.4422
12031TIP3    H257509   2.841   0.124   2.278 -1.8492  1.3784  0.3716
12032TIP3   OH257510   3.556   0.636   2.690 -0.3498  0.2878 -0.5267
12032TIP3    H157511   3.620   0.623   2.620  1.0458  1.2311  0.4973
12032TIP3    H257512   3.589   0.582   2.762 -1.0739  0.2871 -0.1903
12033TIP3   OH257513   0.915   3.532   5.731 -0.5566 -0.4134 -0.8353
12033TIP3    H157514   0.941   3.466   5.667  1.2479 -0.6466  0.0606
12033TIP3    H257515   0.895   3.610   5.679  0.8924 -0.5868 -1.7162
12034TIP3   OH257516   1.707   1.712   2.908 -0.2592  0.3550  0.0753
12034TIP3    H157517   1.787   1.732   2.859 -0.5578  1.0062 -0.1638
12034TIP3    H257518   1.673   1.798   2.935 -0.7955  0.0783  0.3065
12035TIP3   OH257519   5.517   2.861  16.664 -0.1722 -0.1071 -0.6382
12035TIP3    H157520   5.507   2.779  16.712 -1.4955  0.2466 -0.2927
12035TIP3    H257521   5.612   2.877  16.666 -0.0554 -0.7769  0.7005
12036TIP3   OH257522   1.341   0.250  16.164  0.0690  0.1361 -0.1664
12036TIP3    H157523   1.276   0.247  16.235  0.4916 -0.6379  0.2004
12036TIP3    H257524   1.356   0.343  16.149  1.9260  0.3965  2.6022
12037TIP3   OH257525   1.095   2.834   0.882 -0.7357 -0.3659 -0.1167
12037TIP3    H157526   1.124   2.922   0.905  0.5495 -0.3014 -1.7909
12037TIP3    H257527   1.080   2.791   0.966  1.7806  0.4352  0.8200
12038TIP3   OH257528   1.878   3.676  11.629  0.3864  0.1046 -0.0854
12038TIP3    H157529   1.833   3.651  11.549  1.6259 -0.2406 -0.7005
12038TIP3    H257530   1.935   3.602  11.649  0.0985  0.1859  1.1306
12039TIP3   OH257531   3.968   4.901   0.287 -0.1123 -0.0085  0.9876
12039TIP3    H157532   3.899   4.953   0.246  0.3638  0.7862  1.1797
12039TIP3    H257533   3.934   4.811   0.285 -0.6648  0.2018  0.0661
12040TIP3   OH257534   2.251   1.268  15.162  0.0011  0.0405 -0.5605
12040TIP3    H157535   2.315   1.339  15.156 -2.4040  2.5846  1.4350
12040TIP3    H257536   2.190   1.284  15.091 -2.0994  1.8539  1.4659
12041TIP3   OH257537   1.712   1.401   5.672  0.0457  0.1574  0.4034
12041TIP3    H157538   1.694   1.308   5.655  0.4279  0.0587  0.5435
12041TIP3    H257539   1.679   1.416   5.760 -1.3699  0.5199 -0.1528
12042TIP3   OH257540   4.211   3.506  12.694  0.0680 -0.0969 -0.6584
12042TIP3    H157541   4.283   3.498  12.632  1.3558  0.1201  0.7639
12042TIP3    H257542   4.249   3.485  12.779 -1.6761 -0.5209  0.0710
12043TIP3   OH257543   0.062   2.977  16.541 -0.0289 -0.4338  0.0143
12043TIP3    H157544   0.152   2.999  16.517 -0.2561 -1.3292 -1.8939
12043TIP3    H257545   0.020   3.061  16.556  0.7644  0.0752 -0.5367
12044TIP3   OH257546   3.198   4.850   5.458  0.8663 -0.0123 -0.1808
12044TIP3    H157547   3.227   4.759   5.468  2.9988  0.0724 -3.9383
12044TIP3    H257548   3.271   4.902   5.491  1.2192  0.2770 -1.3827
12045TIP3   OH257549   2.127   2.441  16.281 -0.3734  0.3843  0.3307
12045TIP3    H157550   2.181   2.496  16.224  1.4640 -0.6785  0.9425
12045TIP3    H257551   2.074   2.389  16.221  0.2849  0.4937 -0.3651
12046TIP3   OH257552   2.773   0.586  12.840 -0.0997 -0.7994  0.3509
12046TIP3    H157553   2.820   0.515  12.883  0.1477 -0.7290  0.2039
12046TIP3    H257554   2.816   0.594  12.754 -0.7347 -1.0907  0.0017
12047TIP3   OH257555   4.597   6.101   2.504 -0.2487 -0.4954 -0.4341
12047TIP3    H157556   4.665   6.034   2.493 -0.2634 -0.5411 -0.2338
12047TIP3    H257557   4.618   6.167   2.438  1.7335  0.9597  1.5234
12048TIP3   OH257558   6.421   1.770  13.296  0.1687  0.0859  0.1635
12048TIP3    H157559   6.370   1.766  13.215  1.3855 -0.9868 -0.5899
12048TIP3    H257560   6.448   1.680  13.312  0.7367  0.4319  1.2454
12049TIP3   OH257561   2.057   0.941  13.854 -0.0908  0.3052 -0.4337
12049TIP3    H157562   2.131   0.987  13.893 -0.4998 -0.4983  1.4044
12049TIP3    H257563   2.094   0.861  13.818  0.0194  0.1895 -0.0609
12050TIP3   OH257564   6.171   1.144   6.597 -0.0074  0.8766 -0.5930
12050TIP3    H157565   6.220   1.071   6.558 -0.9053 -0.0454 -0.0403
12050TIP3    H257566   6.160   1.207   6.526 -0.0317  0.0568 -1.3263
12051TIP3   OH257567   3.394   2.182  10.368 -0.2969 -0.1500 -0.2006
12051TIP3    H157568   3.331   2.148  10.304 -0.0590 -0.4395 -0.2827
12051TIP3    H257569   3.451   2.108  10.387 -0.9590 -0.3519  1.0860
12052TIP3   OH257570   0.428   5.950  10.626 -0.1569 -0.0191 -0.9168
12052TIP3    H157571   0.346   5.977  10.586 -1.0385 -1.3598 -0.0854
12052TIP3    H257572   0.484   5.925  10.552 -0.3248  1.2822 -1.5116
12053TIP3   OH257573   6.699   4.864  16.711 -0.3816 -0.2159  0.0392
12053TIP3    H157574   6.640   4.789  16.702 -1.5162  0.7409 -0.8826
12053TIP3    H257575   6.686   4.894  16.801 -0.5719 -0.6014  0.1409
12054TIP3   OH257576   5.386   5.882   5.874 -0.4414  0.5358 -1.0169
12054TIP3    H157577   5.339   5.958   5.908 -0.0847  0.0882  0.6027
12054TIP3    H257578   5.378   5.816   5.944  0.7036 -0.3062 -1.6351
12055TIP3   OH257579   4.315   6.801  11.571 -0.0389 -0.2170  0.2849
12055TIP3    H157580   4.243   6.738  11.574 -0.2628 -0.0016 -0.4085
12055TIP3    H257581   4.372   6.776  11.644 -0.9668 -0.1950  1.0305
12056TIP3   OH257582   5.000   2.790   5.468 -0.6278 -0.6298  0.1800
12056TIP3    H157583   4.939   2.760   5.401 -1.2066  0.7133  0.0728
12056TIP3    H257584   4.966   2.876   5.494  1.9250  0.7781 -0.8143
12057TIP3   OH257585   2.072   5.672  15.403  0.0854 -0.1117  0.2509
12057TIP3    H157586   2.160   5.643  15.379  0.4132  0.6386  0.5264
12057TIP3    H257587   2.086   5.739  15.470 -0.6477  0.7613 -0.4415
12058TIP3   OH257588   0.585   3.625   3.975 -0.2036  0.1229  0.4433
12058TIP3    H157589   0.553   3.713   3.956  0.3114  0.1895 -0.1266
12058TIP3    H257590   0.582   3.619   4.070 -4.9640 -1.0028  0.5044
12059TIP3   OH257591   3.880   5.205  11.570 -0.1339 -0.3455 -0.1158
12059TIP3    H157592   3.810   5.261  11.605  0.4868  0.6624 -0.4293
12059TIP3    H257593   3.842   5.166  11.492 -0.6269 -0.4722  0.1841
12060TIP3   OH257594   6.440   3.251  14.694 -0.5738 -0.0207  0.3348
12060TIP3    H157595   6.379   3.184  14.723 -1.1249  0.5544  0.5351
12060TIP3    H257596   6.520   3.236  14.745 -1.2257  0.4292  1.5081
12061TIP3   OH257597   0.266   4.416   1.860  0.5153  0.7820 -0.1726
12061TIP3    H157598   0.174   4.403   1.834  1.3844  0.2256 -3.4080
12061TIP3    H257599   0.267   4.400   1.954 -2.7132  0.9266 -0.0079
12062TIP3   OH257600   2.473   5.018   2.172 -0.5193 -0.0155 -0.5988
12062TIP3    H157601   2.462   4.989   2.082 -2.2244 -3.6094  0.5339
12062TIP3    H257602   2.562   4.993   2.195  0.7190  2.9442 -1.7905
12063TIP3   OH257603   4.614   0.737   4.808 -0.1639  0.2132 -0.1463
12063TIP3    H157604   4.550   0.690   4.861 -1.0603  0.8870 -0.6081
12063TIP3    H257605   4.575   0.823   4.793  0.5171  0.3816 -1.0597
12064TIP3   OH257606   2.234   5.436   0.198  0.2581  0.8305 -1.3400
12064TIP3    H157607   2.147   5.398   0.191  1.2741 -2.0266 -0.0510
12064TIP3    H257608   2.223   5.512   0.255 -1.3191  0.1978 -0.7569
12065TIP3   OH257609   4.198   0.975  15.683 -0.2491  0.1518  0.2040
12065TIP3    H157610   4.120   0.919  15.684 -1.6947  2.0132 -0.8908
12065TIP3    H257611   4.164   1.063  15.698  1.7554  0.9537  0.3121
12066TIP3   OH257612   3.253   0.465  14.226 -0.0945  0.5696  0.1877
12066TIP3    H157613   3.328   0.467  14.166  0.1534 -0.2263  0.4519
12066TIP3    H257614   3.224   0.373  14.225 -1.1084  0.8793  0.0413
12067TIP3   OH257615   2.801   1.288   6.033 -0.0371 -0.2298 -0.5221
12067TIP3    H157616   2.747   1.258   5.960 -1.7801  0.8363  0.2560
12067TIP3    H257617   2.779   1.229   6.105  0.5217 -0.3420 -0.4421
12068TIP3   OH257618   2.954   1.533   4.608 -0.2450 -0.1854  0.1479
12068TIP3    H157619   2.887   1.524   4.541 -0.9478  1.2010  0.6184
12068TIP3    H257620   3.024   1.582   4.566 -0.8918  1.1154  0.5074
12069TIP3   OH257621   1.436   3.050  14.086 -0.2340 -0.1486 -0.0788
12069TIP3    H157622   1.428   3.134  14.041 -0.6214  0.0402  0.3287
12069TIP3    H257623   1.451   3.074  14.178  0.8131 -0.5245 -0.1418
12070TIP3   OH257624   0.357   2.098  10.418 -1.2440 -0.1628 -0.3984
12070TIP3    H157625   0.287   2.111  10.354 -0.6379 -1.9653 -1.5141
12070TIP3    H257626   0.315   2.050  10.490 -2.1234  2.5830  1.0505
12071TIP3   OH257627   1.693   4.169   4.754  0.3115  1.2820  0.4415
12071TIP3    H157628   1.717   4.139   4.842  1.0211 -1.5817 -0.6239
12071TIP3    H257629   1.775   4.197   4.715  0.2054  1.3175  0.2448
12072TIP3   OH257630   3.844   1.672   3.122 -0.5941  0.0215 -0.2857
12072TIP3    H157631   3.749   1.666   3.109 -0.5732 -0.5181 -0.2204
12072TIP3    H257632   3.880   1.607   3.062 -0.2963 -0.1513  0.0812
12073TIP3   OH257633   1.644   0.578   4.330 -0.1469 -0.8900 -0.0681
12073TIP3    H157634   1.573   0.613   4.277  0.8265  1.1000 -0.1716
12073TIP3    H257635   1.680   0.506   4.279 -0.8622 -0.6603 -0.9091
12074TIP3   OH257636   5.563   3.626   2.798 -0.3883  0.1209  0.1322
12074TIP3    H157637   5.605   3.552   2.843 -0.7962 -0.2161 -0.0280
12074TIP3    H257638   5.503   3.662   2.863 -0.0428  0.4367  0.2756
12075TIP3   OH257639   0.101   4.780   6.084 -0.0228 -0.1659  0.3878
12075TIP3    H157640   0.073   4.796   5.994 -0.0264 -2.1724 -0.0216
12075TIP3    H257641   0.196   4.797   6.082  0.2173 -1.4636 -0.3569
12076TIP3   OH257642   0.484   3.582   3.374  0.5047 -0.2317  0.5280
12076TIP3    H157643   0.394   3.550   3.370  0.1787  0.5911  1.0298
12076TIP3    H257644   0.514   3.560   3.462  0.6624 -0.1516  0.4950
12077TIP3   OH257645   2.832   3.388   5.473  0.5107 -0.2586  0.2232
12077TIP3    H157646   2.769   3.414   5.406  0.1734  2.7858  1.5406
12077TIP3    H257647   2.918   3.401   5.432  0.3104  1.6368  0.2885
12078TIP3   OH257648   0.310   1.401   2.517  0.1041 -0.0089  0.1495
12078TIP3    H157649   0.228   1.445   2.492  0.1786  1.7659  2.6250
12078TIP3    H257650   0.367   1.410   2.441 -1.2287  0.7802 -0.7998
12079TIP3   OH257651   5.534   1.652  13.422 -0.0810  0.7244  0.4300
12079TIP3    H157652   5.560   1.677  13.334 -0.0494 -3.2170 -0.8638
12079TIP3    H257653   5.614   1.620  13.463 -0.1980  2.0392  1.7765
12080TIP3   OH257654   4.849   1.568  10.934 -0.2105  0.3850  0.1676
12080TIP3    H157655   4.859   1.499  10.868 -2.4271  1.3840 -1.3258
12080TIP3    H257656   4.835   1.648  10.883  1.2950  1.8203  1.8546
12081TIP3   OH257657   2.753   3.875  17.158 -0.6167  0.1338  0.2710
12081TIP3    H157658   2.707   3.857  17.076  1.1142  0.4752 -0.8299
12081TIP3    H257659   2.702   3.944  17.200 -1.4294  0.0820 -0.6036
12082TIP3   OH257660   1.792   5.536  16.702  0.1695  0.7349  0.6391
12082TIP3    H157661   1.805   5.553  16.608  2.1749 -0.1634  0.6894
12082TIP3    H257662   1.720   5.473  16.705  0.8807 -0.1895 -0.4359
12083TIP3   OH257663   5.453   4.252   1.370 -0.3886  0.1680 -0.5727
12083TIP3    H157664   5.383   4.317   1.363  1.2559  2.2434  0.9771
12083TIP3    H257665   5.528   4.301   1.402  1.2512 -2.3536 -0.2765
12084TIP3   OH257666   1.904   3.427   6.072 -0.1731  0.3856  0.5490
12084TIP3    H157667   1.837   3.368   6.107  0.5286 -0.6762  0.1641
12084TIP3    H257668   1.969   3.434   6.142 -1.4939  2.8907  1.6625
12085TIP3   OH257669   1.393   1.018  16.670  0.2436  0.2802 -0.2006
12085TIP3    H157670   1.432   0.963  16.738 -1.0354  0.1052  0.4299
12085TIP3    H257671   1.397   1.107  16.705  1.0639  0.4173 -0.6229
12086TIP3   OH257672   3.238   2.158  16.186 -0.3141  0.3604  0.4563
12086TIP3    H157673   3.281   2.157  16.271  0.4364 -0.7997  0.0856
12086TIP3    H257674   3.308   2.141  16.123 -0.9698  0.5239 -0.3367
12087TIP3   OH257675   4.685   2.139   0.751  0.0765 -0.6046  0.0032
12087TIP3    H157676   4.732   2.056   0.759 -0.3693 -0.8197  0.4732
12087TIP3    H257677   4.674   2.151   0.656  1.6431 -0.2135 -0.1517
12088TIP3   OH257678   4.466   1.316  16.851 -0.5640 -0.0420 -0.4566
12088TIP3    H157679   4.503   1.227  16.858 -0.4233  0.1006  0.8877
12088TIP3    H257680   4.536   1.368  16.812 -0.1705 -0.2649 -0.0584
12089TIP3   OH257681   0.413   5.119   0.826  0.0826  0.0208  0.1651
12089TIP3    H157682   0.483   5.067   0.864  1.1606  0.3451 -1.3161
12089TIP3    H257683   0.395   5.079   0.742 -1.0735  0.3365  0.2428
12090TIP3   OH257684   0.185   0.766   3.782  0.2430 -1.3100 -0.7205
12090TIP3    H157685   0.206   0.782   3.690  0.9096 -0.0411 -0.3621
12090TIP3    H257686   0.270   0.762   3.826 -0.1068  0.9558  0.2797
12091TIP3   OH257687   0.908   1.425   4.069 -0.2147  0.2074  0.3034
12091TIP3    H157688   0.947   1.411   4.155 -1.0283  0.2432  0.6916
12091TIP3    H257689   0.835   1.363   4.066  0.4542 -0.5573 -0.7931
12092TIP3   OH257690   6.454   1.969   3.007  0.3844  0.1726  0.4005
12092TIP3    H157691   6.471   2.050   3.056 -1.1694 -0.0728  1.4185
12092TIP3    H257692   6.408   1.998   2.929 -2.0815  0.1891  1.7587
12093TIP3   OH257693   6.042   2.154  13.241 -0.4745  0.3447  0.3809
12093TIP3    H157694   6.041   2.141  13.336  0.9283 -0.3212  0.3299
12093TIP3    H257695   5.971   2.216  13.225  0.1487  1.5504  2.0277
12094TIP3   OH257696   2.881   2.711   5.734 -0.3204 -0.3391 -0.0407
12094TIP3    H157697   2.927   2.665   5.804  1.9801  1.0270 -0.5558
12094TIP3    H257698   2.854   2.794   5.774 -0.8788 -0.4317 -0.2171
12095TIP3   OH257699   4.316   3.335  13.507 -0.5300 -0.6141  0.6573
12095TIP3    H157700   4.321   3.410  13.566 -1.2563 -0.6673  0.7973
12095TIP3    H257701   4.228   3.340  13.470  0.1329 -0.1770 -0.9772
12096TIP3   OH257702   2.556   4.693  11.943 -1.1736 -0.2048 -0.0676
12096TIP3    H157703   2.582   4.729  12.028 -1.8571 -0.7768  0.3942
12096TIP3    H257704   2.476   4.643  11.961  0.0300 -2.4690 -0.5416
12097TIP3   OH257705   0.762   0.922  15.588 -0.4275  0.2388  0.0768
12097TIP3    H157706   0.751   0.834  15.551 -1.0622  1.6547 -3.5179
12097TIP3    H257707   0.852   0.923  15.620 -0.3116 -1.6067 -0.0534
12098TIP3   OH257708   3.108   4.896   1.848 -0.5343 -0.0445 -0.1955
12098TIP3    H157709   3.110   4.818   1.793 -2.1022 -1.4939  1.6579
12098TIP3    H257710   3.129   4.865   1.936 -0.7461  1.7009  0.5220
12099TIP3   OH257711   2.664   2.051   0.652  1.0359  0.2882  0.2284
12099TIP3    H157712   2.622   1.969   0.627  0.3354  0.6852  0.0412
12099TIP3    H257713   2.755   2.041   0.625  0.9519 -0.4146  0.1872
12100TIP3   OH257714   1.997   0.288   1.660  0.1283 -0.3527  0.0657
12100TIP3    H157715   1.998   0.264   1.568  1.7702  1.0324 -0.3420
12100TIP3    H257716   1.946   0.369   1.663  2.5077  1.2669 -0.1934
12101TIP3   OH257717   1.235   2.345  13.803  0.1806  0.3683  0.5776
12101TIP3    H157718   1.165   2.406  13.781  1.1094  0.3536 -3.1310
12101TIP3    H257719   1.197   2.258  13.787 -0.2212  0.0399  2.9363
12102TIP3   OH257720   1.815   2.878   3.929 -0.6445  0.1511 -0.4044
12102TIP3    H157721   1.775   2.802   3.971  0.8188 -1.4124 -1.6922
12102TIP3    H257722   1.761   2.895   3.853 -1.1642  0.6275  0.0651
12103TIP3   OH257723   0.456   5.777  10.887  0.4771 -0.5628 -0.1872
12103TIP3    H157724   0.415   5.837  10.825  2.7726  1.0100 -0.2940
12103TIP3    H257725   0.387   5.756  10.950 -0.5696  1.7858 -0.4641
12104TIP3   OH257726   2.355   0.318  15.924  0.5374 -0.0688 -0.3950
12104TIP3    H157727   2.391   0.338  15.837  0.7996  0.4300 -0.1735
12104TIP3    H257728   2.279   0.262  15.906 -0.3460  1.2886 -1.0540
12105TIP3   OH257729   1.912   5.070   5.334 -0.2345  0.4571 -0.0714
12105TIP3    H157730   1.901   5.052   5.427  2.9575  0.6947  0.4585
12105TIP3    H257731   1.923   5.165   5.329 -4.2256  1.0474 -1.2975
12106TIP3   OH257732   3.117   2.220  16.911 -0.0399 -0.0942 -0.0463
12106TIP3    H157733   3.149   2.303  16.946 -0.9379  0.4268 -0.4348
12106TIP3    H257734   3.027   2.214  16.944 -0.5372 -0.1116 -1.3668
12107TIP3   OH257735   6.106   4.620   5.794  0.1110  0.2410 -0.1481
12107TIP3    H157736   6.099   4.527   5.774  1.9807 -0.0142  0.1771
12107TIP3    H257737   6.026   4.642   5.841  0.8840 -1.9170  2.4103
12108TIP3   OH257738   4.684   4.010  13.872 -0.3599 -0.6413 -0.1847
12108TIP3    H157739   4.618   4.075  13.850 -0.9459 -1.9382 -2.5284
12108TIP3    H257740   4.711   4.033  13.961 -3.8761 -0.0048  0.8679
12109TIP3   OH257741   6.649   5.583   4.915  0.0060  0.0709  0.2804
12109TIP3    H157742   6.727   5.547   4.875  0.7853  3.3308 -1.4534
12109TIP3    H257743   6.681   5.638   4.987 -0.9041 -0.3242  1.0238
12110TIP3   OH257744   2.109   4.973  13.043 -0.1471 -0.0271  0.0923
12110TIP3    H157745   2.024   4.983  13.085 -1.1639 -1.5070 -1.4392
12110TIP3    H257746   2.167   5.032  13.090 -2.2581  1.8352  0.5151
12111TIP3   OH257747   1.152   4.575   4.335 -0.4344 -0.5273 -0.4620
12111TIP3    H157748   1.074   4.631   4.324  0.1363  0.2287 -0.7689
12111TIP3    H257749   1.137   4.529   4.417 -2.2582 -2.1326 -1.5959
12112TIP3   OH257750   2.657   3.395   5.253 -0.0138  0.5355  0.2280
12112TIP3    H157751   2.645   3.479   5.209 -1.1667  0.0215 -0.4920
12112TIP3    H257752   2.714   3.345   5.195 -1.3459 -0.0578 -0.6138
12113TIP3   OH257753   6.000   1.794   3.526  0.5564 -0.3557  0.3646
12113TIP3    H157754   5.922   1.765   3.574  0.9923 -0.5076  0.9980
12113TIP3    H257755   5.991   1.754   3.440 -0.1765 -0.1926  0.3577
12114TIP3   OH257756   6.408   2.457   4.187  0.1257 -0.2364 -0.4880
12114TIP3    H157757   6.370   2.539   4.157 -1.7252 -1.0354 -0.4633
12114TIP3    H257758   6.489   2.482   4.230 -0.7007  1.6453  0.0471
12115TIP3   OH257759   5.042   2.820  12.983  0.2886 -0.4332 -0.3714
12115TIP3    H157760   5.032   2.816  13.079  1.2390 -0.4385 -0.2631
12115TIP3    H257761   4.960   2.860  12.953 -0.0004 -0.3745  0.4500
12116TIP3   OH257762   2.721   3.598   3.859  0.3219  0.0469  0.2803
12116TIP3    H157763   2.807   3.610   3.899  0.4218 -0.0954  0.1053
12116TIP3    H257764   2.727   3.515   3.812  0.3542  0.4395 -0.4245
12117TIP3   OH257765   4.710   5.982   4.973 -0.3702  0.0567  0.2070
12117TIP3    H157766   4.783   5.967   4.913 -2.4943  0.1404 -2.6114
12117TIP3    H257767   4.716   6.075   4.996  0.4383  0.0366  0.0922
12118TIP3   OH257768   0.984   5.794  16.663 -0.1155 -0.2844  0.5477
12118TIP3    H157769   0.960   5.883  16.639  0.6659 -0.4633 -1.0573
12118TIP3    H257770   0.911   5.763  16.716 -1.0289  0.8591  0.0128
12119TIP3   OH257771   2.048   0.524   3.171  0.3123 -0.2015 -0.3979
12119TIP3    H157772   2.060   0.596   3.233 -0.0371  0.1838 -0.7729
12119TIP3    H257773   2.134   0.483   3.165  0.7569  0.7590 -0.8785
12120TIP3   OH257774   0.578   2.240   0.805  0.1292  0.0005 -0.5693
12120TIP3    H157775   0.484   2.254   0.803  0.1198  0.0732  0.2963
12120TIP3    H257776   0.598   2.219   0.896  1.0226  0.5306 -0.6316
12121TIP3   OH257777   5.411   5.818   4.208 -0.1145 -0.5969 -0.1025
12121TIP3    H157778   5.475   5.761   4.165  0.4909  1.4389 -2.0824
12121TIP3    H257779   5.453   5.844   4.290  0.6013 -1.1059 -0.2987
12122TIP3   OH257780   3.497   6.736  13.391 -0.7383  1.0090  0.2866
12122TIP3    H157781   3.579   6.689  13.404 -0.1287  2.2325  1.0145
12122TIP3    H257782   3.429   6.669  13.404  0.1093  0.2363  0.8375
12123TIP3   OH257783   5.089   5.893  11.344 -0.4949  0.0005  0.2809
12123TIP3    H157784   5.013   5.914  11.290 -0.5171  2.0730  1.0406
12123TIP3    H257785   5.129   5.817  11.300 -1.9290  0.0362 -1.1797
12124TIP3   OH257786   3.606   0.425  13.390  0.4593  0.7991 -0.6443
12124TIP3    H157787   3.591   0.478  13.468 -0.1314  1.3084 -1.0954
12124TIP3    H257788   3.679   0.468  13.345  1.6436 -0.1964  0.2260
12125TIP3   OH257789   6.184   4.100  14.106 -0.4803 -0.1839  0.3911
12125TIP3    H157790   6.194   4.078  14.013 -0.2326 -1.1345  0.6266
12125TIP3    H257791   6.191   4.015  14.151  1.1418  0.4585  1.4287
12126TIP3   OH257792   0.814   3.852  15.505  0.1771 -0.3137 -0.3761
12126TIP3    H157793   0.855   3.939  15.508 -1.9279  0.7194  0.5222
12126TIP3    H257794   0.788   3.840  15.414  2.3382 -0.9931 -0.9686
12127TIP3   OH257795   3.122   6.756  11.290  0.9171 -0.2771 -0.3567
12127TIP3    H157796   3.093   6.724  11.204 -1.6362  1.0253 -0.0492
12127TIP3    H257797   3.125   6.678  11.345 -1.3006 -0.6043 -0.6321
12128TIP3   OH257798   2.313   0.960   4.593 -0.1484  0.2377  0.3567
12128TIP3    H157799   2.275   1.018   4.528 -1.7624  0.4678  1.4292
12128TIP3    H257800   2.251   0.886   4.598  0.2735 -0.0756  1.1556
12129TIP3   OH257801   1.609   2.939  15.877 -0.3908  0.0389  0.0593
12129TIP3    H157802   1.693   2.913  15.915 -0.2895 -0.4046 -0.4616
12129TIP3    H257803   1.584   3.018  15.926  0.8390  0.8013 -0.5029
12130TIP3   OH257804   1.859   2.744   2.564 -0.1295  0.0622  0.2864
12130TIP3    H157805   1.828   2.692   2.638 -0.6647  1.3332  0.9878
12130TIP3    H257806   1.943   2.780   2.595 -1.6458  2.8747  1.4527
12131TIP3   OH257807   3.986   4.891  11.501  0.0271  0.0901 -0.3953
12131TIP3    H157808   3.996   4.933  11.415  1.4804 -0.3220 -0.4411
12131TIP3    H257809   4.074   4.864  11.525 -0.3388  0.3351  1.3129
12132TIP3   OH257810   5.732   5.176  15.081  0.3470  0.4852 -0.4506
12132TIP3    H157811   5.737   5.100  15.023  1.8949  0.4255 -0.2738
12132TIP3    H257812   5.823   5.194  15.105 -0.2400  0.0544  2.5572
12133TIP3   OH257813   5.544   2.741  12.996  0.5556  0.1533  0.0278
12133TIP3    H157814   5.553   2.813  12.933  0.4410  2.6198  2.6295
12133TIP3    H257815   5.452   2.742  13.022  0.4938 -1.1352 -0.0922
12134TIP3   OH257816   2.775   6.016   0.567  0.1083 -0.4277  0.0969
12134TIP3    H157817   2.804   5.984   0.482  0.1774 -0.9324  0.3070
12134TIP3    H257818   2.781   5.940   0.625 -1.7839 -0.6013  0.1115
12135TIP3   OH257819   3.646   6.344   2.177  0.4003  0.3717 -0.1221
12135TIP3    H157820   3.626   6.345   2.083  1.2039  0.1715 -0.3048
12135TIP3    H257821   3.677   6.255   2.193 -0.4322  0.1810  0.4980
12136TIP3   OH257822   2.480   3.084   0.331  0.0998 -0.0356 -0.8111
12136TIP3    H157823   2.472   3.018   0.400 -1.1320  0.7214 -0.1841
12136TIP3    H257824   2.559   3.133   0.354 -0.0111 -0.1253 -0.2105
12137TIP3   OH257825   1.617   6.603  12.753  0.0102 -0.5338  0.3928
12137TIP3    H157826   1.699   6.627  12.708  0.3135 -0.0358  1.1907
12137TIP3    H257827   1.590   6.684  12.797 -0.8812 -0.7135  0.1915
12138TIP3   OH257828   1.534   3.282  15.350 -0.9431 -0.1145 -0.5258
12138TIP3    H157829   1.604   3.290  15.415 -0.4329 -0.9216 -0.9630
12138TIP3    H257830   1.535   3.190  15.324 -1.8210 -0.0239 -0.9281
12139TIP3   OH257831   1.070   6.062  10.684  0.1758 -0.0809 -0.4565
12139TIP3    H157832   1.028   5.977  10.669 -0.1433  0.0643 -0.3942
12139TIP3    H257833   1.003   6.127  10.661  0.4693  0.1556 -0.6508
12140TIP3   OH257834   6.101   1.258   0.021 -0.2158 -0.1888  0.0092
12140TIP3    H157835   6.098   1.326  -0.047  0.2371 -0.0452  0.1289
12140TIP3    H257836   6.032   1.196  -0.003 -0.0901 -0.1115 -0.5542
12141TIP3   OH257837   2.686   5.445  17.150  0.2935  0.2703 -0.3858
12141TIP3    H157838   2.634   5.521  17.124  1.5287  1.5193  0.6040
12141TIP3    H257839   2.621   5.377  17.168 -0.7595 -0.0239 -4.3190
12142TIP3   OH257840   5.022   4.568   6.184  0.3850  0.2576  0.3144
12142TIP3    H157841   5.009   4.474   6.196  0.2695  0.1272 -0.7825
12142TIP3    H257842   5.096   4.575   6.125  0.2674  0.8554  0.2320
12143TIP3   OH257843   5.381   2.549  13.268  0.1778  0.6883 -0.2875
12143TIP3    H157844   5.468   2.589  13.278  0.1694  0.8763 -0.8801
12143TIP3    H257845   5.343   2.594  13.192 -0.0883 -0.0032 -0.5731
12144TIP3   OH257846   2.186   2.020   5.163 -0.0056  0.4717  0.4130
12144TIP3    H157847   2.259   1.972   5.123  0.3227  0.9722  0.3996
12144TIP3    H257848   2.149   2.071   5.091 -0.2634  0.3473  0.4576
12145TIP3   OH257849   6.692   3.466   0.558 -0.2277 -0.1671 -0.1860
12145TIP3    H157850   6.689   3.557   0.528  0.0203  0.0459  0.4209
12145TIP3    H257851   6.762   3.426   0.507 -0.5346 -0.1017 -0.6698
12146TIP3   OH257852   3.224   1.975  14.079 -0.4055 -0.1389 -0.6358
12146TIP3    H157853   3.271   1.944  14.002  3.5884 -0.8435  1.7673
12146TIP3    H257854   3.237   2.070  14.079  0.6068 -0.2700 -0.2714
12147TIP3   OH257855   2.167   6.095  14.135  0.2815 -0.0927 -0.1435
12147TIP3    H157856   2.173   6.000  14.135 -1.2523 -0.2468  1.2013
12147TIP3    H257857   2.255   6.125  14.156  0.7758 -1.2070 -0.5595
12148TIP3   OH257858   0.675   2.503   0.727 -0.2025 -0.1228 -0.8341
12148TIP3    H157859   0.659   2.419   0.771  1.3618 -0.6079 -1.1375
12148TIP3    H257860   0.751   2.486   0.671  0.1042  1.4864 -0.9336
12149TIP3   OH257861   5.844   5.114  11.006 -0.0734  0.2304  0.5442
12149TIP3    H157862   5.850   5.209  11.005  1.3427  0.1572 -0.3423
12149TIP3    H257863   5.818   5.091  10.916 -1.1621 -0.2072  0.9481
12150TIP3   OH257864   4.216   1.952  11.666 -0.2221 -0.1991  0.0697
12150TIP3    H157865   4.152   1.990  11.725  0.6403  1.3885  0.0152
12150TIP3    H257866   4.163   1.909  11.598 -1.2212  0.3560  0.4770
12151TIP3   OH257867   0.531   5.545   4.176 -0.0363  0.2172  0.4255
12151TIP3    H157868   0.480   5.563   4.255  0.2735  0.9666  0.4615
12151TIP3    H257869   0.475   5.575   4.104 -0.1658 -0.1324  0.3749
12152TIP3   OH257870   0.905   2.791   5.180  0.3793  0.3148  0.7300
12152TIP3    H157871   0.984   2.738   5.194  0.9651  1.2151  0.9020
12152TIP3    H257872   0.854   2.777   5.260  1.1069  0.9771  1.3298
12153TIP3   OH257873   1.364   4.435   5.478 -0.2663  0.3358  0.5168
12153TIP3    H157874   1.388   4.527   5.472 -2.5330  0.8776 -2.2362
12153TIP3    H257875   1.268   4.435   5.481 -0.3299 -1.9268  0.6317
12154TIP3   OH257876   1.633   3.216   5.690 -0.1574  0.1120  0.6306
12154TIP3    H157877   1.715   3.236   5.734  0.7239 -0.3814 -0.7120
12154TIP3    H257878   1.577   3.292   5.706  1.3797  1.5113 -0.3289
12155TIP3   OH257879   2.359   1.276  12.104 -0.0653 -0.3175  0.1838
12155TIP3    H157880   2.269   1.256  12.130 -0.4908  0.5596 -0.5391
12155TIP3    H257881   2.401   1.305  12.185 -0.4487 -0.6965  0.5207
12156TIP3   OH257882   1.677   2.440  11.763 -0.1574  0.6788 -0.3019
12156TIP3    H157883   1.718   2.471  11.682  0.3515  0.7982 -0.0012
12156TIP3    H257884   1.737   2.372  11.795 -0.3545  0.6362 -0.0233
12157TIP3   OH257885   5.916   1.988  11.567  0.0864 -0.1121  0.3384
12157TIP3    H157886   5.999   1.966  11.525 -0.1279  0.7015 -0.5361
12157TIP3    H257887   5.939   2.049  11.637  0.3431 -0.8073  0.8786
12158TIP3   OH257888   1.777   6.701  15.815  0.0537 -0.1366 -0.2641
12158TIP3    H157889   1.749   6.768  15.752 -0.7970 -0.9163 -0.7446
12158TIP3    H257890   1.726   6.623  15.791 -1.4382 -0.0725  2.2606
12159TIP3   OH257891   1.276   0.591  14.688  0.3334  0.8267 -0.1275
12159TIP3    H157892   1.236   0.672  14.655 -0.4566  0.6731  0.4333
12159TIP3    H257893   1.271   0.530  14.614 -0.0536  0.9501 -0.2031
12160TIP3   OH257894   1.978   2.276  15.160 -0.0176 -0.7466 -0.0796
12160TIP3    H157895   2.000   2.252  15.250 -1.4943  0.4542  0.6596
12160TIP3    H257896   1.938   2.363  15.167  0.1252 -0.4737 -1.9468
12161TIP3   OH257897   2.523   2.590   2.528 -0.0943  0.0147 -0.1949
12161TIP3    H157898   2.578   2.668   2.529 -0.4246  0.2442  0.5700
12161TIP3    H257899   2.471   2.595   2.608  1.1963 -1.9175  0.8643
12162TIP3   OH257900   2.720   6.224   2.421  0.2098  0.3172 -0.7483
12162TIP3    H157901   2.770   6.239   2.501  0.9542 -1.3725 -0.8627
12162TIP3    H257902   2.767   6.274   2.354  0.0009  1.1512 -0.2817
12163TIP3   OH257903   4.553   0.158   0.357 -0.0740  0.4176  0.0856
12163TIP3    H157904   4.506   0.237   0.330  0.9712  1.2630  0.6466
12163TIP3    H257905   4.602   0.132   0.279  1.3294  1.6558  0.5149
12164TIP3   OH257906   0.324   0.621  10.702 -0.5638 -0.4526 -0.2307
12164TIP3    H157907   0.278   0.612  10.619 -1.5380 -0.5664  0.3061
12164TIP3    H257908   0.295   0.546  10.753 -1.1942  0.4590  0.7811
12165TIP3   OH257909   2.096   2.391  15.745 -0.2636  0.0258 -0.0768
12165TIP3    H157910   2.184   2.404  15.711  0.0386 -0.5921  0.4330
12165TIP3    H257911   2.090   2.296  15.759 -2.0395 -0.3986 -2.8475
12166TIP3   OH257912   5.885   0.711   1.691 -0.3125  1.2489  0.4648
12166TIP3    H157913   5.978   0.718   1.712 -0.1308  0.4553 -0.0342
12166TIP3    H257914   5.860   0.800   1.664 -0.2252  1.9660  2.6035
12167TIP3   OH257915   3.818   1.244  16.860 -0.0493  0.4848  0.3675
12167TIP3    H157916   3.736   1.235  16.810 -0.2744 -1.0804  0.9553
12167TIP3    H257917   3.799   1.310  16.926 -0.3897  1.1402 -0.3802
12168TIP3   OH257918   2.654   3.612  13.627 -0.0739 -0.2200 -0.9241
12168TIP3    H157919   2.668   3.578  13.538 -0.6308 -0.6576 -0.8485
12168TIP3    H257920   2.575   3.568  13.658 -0.4237  0.6407 -0.5599
12169TIP3   OH257921   0.903   1.100   5.152 -0.1714 -0.5355 -0.2586
12169TIP3    H157922   0.824   1.149   5.175 -1.0955 -1.7049 -0.8365
12169TIP3    H257923   0.897   1.019   5.204  1.1491 -0.2418  0.4159
12170TIP3   OH257924   0.833   6.635   4.596 -0.1807 -0.0737 -0.0438
12170TIP3    H157925   0.795   6.708   4.547 -1.2008 -0.4531  0.1697
12170TIP3    H257926   0.824   6.659   4.688  1.5353  0.5356 -0.0024
12171TIP3   OH257927   0.698   1.653  13.726 -0.1247  0.2388  0.1131
12171TIP3    H157928   0.699   1.678  13.634 -0.1754  0.7310  0.2426
12171TIP3    H257929   0.745   1.569  13.729  0.1294  0.3638 -0.3186
12172TIP3   OH257930   1.730   1.091   1.518  0.4722 -0.0754  0.2163
12172TIP3    H157931   1.648   1.043   1.509  0.5101 -0.5456  2.0569
12172TIP3    H257932   1.798   1.023   1.516  0.9312  0.3653 -2.0286
12173TIP3   OH257933   0.673   4.928   3.547  0.1092 -0.4662  0.2026
12173TIP3    H157934   0.641   4.909   3.635 -1.3187  0.6019 -0.0486
12173TIP3    H257935   0.685   5.023   3.545  0.2604 -0.4923 -0.7057
12174TIP3   OH257936   1.460   0.612  13.555 -0.3512  0.1271 -0.1612
12174TIP3    H157937   1.440   0.705  13.555 -0.4680  0.1083  0.6967
12174TIP3    H257938   1.441   0.583  13.466  0.9704  1.1920 -0.8299
12175TIP3   OH257939   0.921   5.557  14.070  0.0687 -0.1797  0.6879
12175TIP3    H157940   0.865   5.627  14.104  0.0598  1.1101 -1.7246
12175TIP3    H257941   1.007   5.575  14.106 -0.3060  0.0135  1.4964
12176TIP3   OH257942   0.480   4.379   2.702 -0.2727 -0.0558  0.4366
12176TIP3    H157943   0.510   4.365   2.612 -1.6404 -0.4442  0.0113
12176TIP3    H257944   0.462   4.291   2.734 -1.3370  0.1886  0.5237
12177TIP3   OH257945   0.695   3.742  12.661  0.2603 -0.3499  0.0344
12177TIP3    H157946   0.744   3.662  12.644 -0.2967 -0.6241 -0.3085
12177TIP3    H257947   0.745   3.810  12.615  0.1162 -0.6911 -0.6498
12178TIP3   OH257948   3.917   2.126  16.578 -0.5670 -0.0898  0.7715
12178TIP3    H157949   3.885   2.196  16.635 -2.3062 -0.8635  0.7859
12178TIP3    H257950   3.998   2.096  16.621 -0.6761  0.7919  1.6358
12179TIP3   OH257951   0.193   4.677   0.596  0.4891 -0.3527  0.0803
12179TIP3    H157952   0.260   4.613   0.620  0.4434 -0.3518  0.2091
12179TIP3    H257953   0.241   4.756   0.574  0.4429  0.1840  1.8149
12180TIP3   OH257954   3.680   3.317  13.992 -0.2578 -0.1334  0.4923
12180TIP3    H157955   3.591   3.282  13.992 -1.2166  2.1541  0.6160
12180TIP3    H257956   3.711   3.306  14.082 -0.9640  0.3780  0.8005
12181TIP3   OH257957   2.370   3.059  12.020 -0.9150  0.5664 -0.3464
12181TIP3    H157958   2.463   3.084  12.021 -0.4504 -1.0656  0.1063
12181TIP3    H257959   2.359   3.013  11.937 -1.7027  1.9411 -1.0534
12182TIP3   OH257960   4.340   0.121  15.299  0.4947 -0.2730 -0.3538
12182TIP3    H157961   4.402   0.121  15.372  0.4132  3.1449 -0.1080
12182TIP3    H257962   4.382   0.172  15.231 -0.9359 -0.2130 -1.2449
12183TIP3   OH257963   4.152   6.241   3.083  0.4694  0.0425 -0.2110
12183TIP3    H157964   4.135   6.274   3.171 -1.0964 -1.8243  0.2670
12183TIP3    H257965   4.071   6.196   3.058  0.9535  0.3295 -2.5294
12184TIP3   OH257966   4.100   2.321  16.392 -0.5726  0.3764 -1.4241
12184TIP3    H157967   4.078   2.325  16.299 -2.8792  1.0877 -0.9124
12184TIP3    H257968   4.017   2.334  16.437  0.6378  1.0480  0.7641
12185TIP3   OH257969   1.667   6.141   0.556 -0.0336 -0.3090 -0.0858
12185TIP3    H157970   1.691   6.150   0.463  0.9920 -2.1904 -0.0447
12185TIP3    H257971   1.681   6.049   0.576 -1.6035 -0.2475  1.6040
12186TIP3   OH257972   0.580   0.314  14.479  0.3846 -0.5079  0.1020
12186TIP3    H157973   0.605   0.305  14.387 -0.5298 -0.6185 -0.1491
12186TIP3    H257974   0.511   0.380  14.479  0.1014 -0.7955  0.6589
12187TIP3   OH257975   0.489   4.613  16.747  0.4010 -0.5311  0.1077
12187TIP3    H157976   0.527   4.538  16.792  1.7829  0.7791  1.2711
12187TIP3    H257977   0.449   4.665  16.818 -0.0630  0.0948 -0.5942
12188TIP3   OH257978   4.484   1.325   1.128 -0.5480  0.0448  0.1360
12188TIP3    H157979   4.476   1.390   1.057 -2.3047  0.5140  0.7082
12188TIP3    H257980   4.437   1.248   1.095  0.5755 -0.5692 -0.0869
12189TIP3   OH257981   6.584   3.266   1.996  0.5111 -0.4058  0.4057
12189TIP3    H157982   6.610   3.206   2.066  0.8710 -0.2115  0.4384
12189TIP3    H257983   6.661   3.273   1.940 -0.3684 -2.0248 -1.0663
12190TIP3   OH257984   1.144   6.327   2.386 -0.3008 -0.2761  0.2721
12190TIP3    H157985   1.113   6.339   2.476  3.0521 -0.3471  1.5990
12190TIP3    H257986   1.158   6.416   2.353 -0.9895 -0.2578  0.0233
12191TIP3   OH257987   5.484   2.343  15.262 -0.0520  0.5033  0.0119
12191TIP3    H157988   5.463   2.308  15.175 -1.8530 -0.5551  0.8077
12191TIP3    H257989   5.532   2.272  15.305 -0.8776  0.2430  0.5252
12192TIP3   OH257990   6.067   1.200  12.656 -0.0368 -0.5773 -0.2206
12192TIP3    H157991   6.022   1.243  12.728  0.1597 -0.1544 -0.3510
12192TIP3    H257992   6.041   1.108  12.664 -0.4045 -0.4491  0.0931
12193TIP3   OH257993   2.252   3.134   5.386 -0.5921  0.0813  0.3107
12193TIP3    H157994   2.278   3.215   5.344  2.8696 -0.5287  0.9908
12193TIP3    H257995   2.204   3.086   5.318  0.6197  1.1291 -1.3423
12194TIP3   OH257996   0.837   2.778  13.273 -0.5411  0.3479 -0.0403
12194TIP3    H157997   0.902   2.847  13.255 -0.5886  0.2781 -0.4896
12194TIP3    H257998   0.789   2.769  13.191 -0.0910 -0.6977 -0.1992
12195TIP3   OH257999   6.349   1.106  10.716  0.3681 -0.1286 -0.2884
12195TIP3    H158000   6.255   1.093  10.699  0.1751  1.1461 -0.2764
12195TIP3    H258001   6.385   1.017  10.717 -0.4831 -0.5754 -2.3428
12196TIP3   OH258002   3.346   3.744   1.845 -0.6978 -0.3728 -0.2533
12196TIP3    H158003   3.293   3.753   1.766 -0.5561  0.8012 -0.2304
12196TIP3    H258004   3.404   3.821   1.844  0.9262 -1.5400 -0.2190
12197TIP3   OH258005   1.848   4.383   1.151  0.2267  0.5383  0.5770
12197TIP3    H158006   1.758   4.372   1.121  0.2770 -2.1938  1.1342
12197TIP3    H258007   1.874   4.469   1.117 -2.2126  0.9522 -0.4969
12198TIP3   OH258008   5.286   2.017   0.464  0.2533 -0.6580  0.2441
12198TIP3    H158009   5.327   2.004   0.378  1.2379 -1.5584  0.8309
12198TIP3    H258010   5.215   1.954   0.467 -2.7650  2.2866 -1.6303
12199TIP3   OH258011   0.317   6.051   1.391  0.2827  0.4109 -0.3644
12199TIP3    H158012   0.309   6.022   1.482 -0.6265 -0.4082 -0.6871
12199TIP3    H258013   0.230   6.082   1.367 -0.0281 -1.2382 -1.5432
12200TIP3   OH258014   1.104   0.630  14.151 -0.0631  0.1502 -0.5819
12200TIP3    H158015   1.029   0.578  14.179 -1.2514  2.0974  0.0562
12200TIP3    H258016   1.146   0.657  14.232 -0.1220  1.0509 -0.8379
12201TIP3   OH258017   5.889   3.736   5.613  0.0434  0.6593 -0.1956
12201TIP3    H158018   5.857   3.665   5.668 -0.0523  0.3218 -0.6796
12201TIP3    H258019   5.984   3.721   5.608  0.0171  0.5307 -0.3367
12202TIP3   OH258020   5.246   5.710  12.415 -0.0402  0.3552  0.2740
12202TIP3    H158021   5.196   5.710  12.334  0.6425  1.4988 -0.1646
12202TIP3    H258022   5.275   5.801  12.426  4.0374 -0.6207 -0.8165
12203TIP3   OH258023   0.195   4.081   3.473 -0.3842 -0.1387  0.1471
12203TIP3    H158024   0.101   4.069   3.464 -0.3813 -0.4057  0.4713
12203TIP3    H258025   0.233   4.009   3.423 -0.3353  0.6847 -1.0458
12204TIP3   OH258026   5.740   1.123   0.699 -0.2257  0.1634 -0.2946
12204TIP3    H158027   5.752   1.212   0.734  0.8637  0.1430 -0.5725
12204TIP3    H258028   5.772   1.129   0.609  1.8626 -0.9854  0.3169
12205TIP3   OH258029   4.009   6.071   3.971 -0.2272  0.9531  0.5583
12205TIP3    H158030   3.972   6.156   3.946  2.1621  1.8599 -0.1458
12205TIP3    H258031   3.961   6.008   3.917 -1.9832  1.8373  1.0220
12206TIP3   OH258032   2.154   3.277   3.133 -0.1718  0.0432 -0.6115
12206TIP3    H158033   2.180   3.369   3.128  1.1392 -0.1527  1.3301
12206TIP3    H258034   2.166   3.254   3.225 -0.7183 -2.0122 -1.0064
12207TIP3   OH258035   4.657   0.789  14.686  0.5203  0.6493 -0.0298
12207TIP3    H158036   4.597   0.800  14.613  0.2458 -0.6914 -0.0273
12207TIP3    H258037   4.606   0.744  14.753  1.5235 -0.5881 -0.0514
12208TIP3   OH258038   4.126   5.807  12.856 -0.3012  0.0259  0.3005
12208TIP3    H158039   4.049   5.794  12.912 -0.7295 -1.8647 -0.6302
12208TIP3    H258040   4.165   5.719  12.850 -0.0081  0.2721 -1.9510
12209TIP3   OH258041   4.519   2.505   0.904  0.1818  0.0939 -0.3034
12209TIP3    H158042   4.446   2.453   0.939  1.4333 -3.9091 -2.9576
12209TIP3    H258043   4.585   2.502   0.973 -1.2319  1.8828  1.2374
12210TIP3   OH258044   2.748   4.184  11.529 -0.7914 -0.0073  0.3318
12210TIP3    H158045   2.662   4.226  11.524 -0.4971  0.6209  0.4341
12210TIP3    H258046   2.796   4.218  11.454 -0.2653  0.4937  0.8925
12211TIP3   OH258047   6.461   0.577   0.334 -0.0160  0.4128  0.3397
12211TIP3    H158048   6.419   0.614   0.257  2.8264 -0.2320 -1.6582
12211TIP3    H258049   6.424   0.489   0.341 -1.8985  1.1977  1.1425
12212TIP3   OH258050   0.223   4.071   2.084 -0.3058  0.0866  0.7524
12212TIP3    H158051   0.230   4.031   2.171 -1.3442  1.6444  1.6034
12212TIP3    H258052   0.129   4.080   2.070 -0.1715  3.1413  1.1172
12213TIP3   OH258053   0.532   3.793   5.964 -0.5730  0.1079 -0.1604
12213TIP3    H158054   0.512   3.875   5.918  0.5662 -0.9459 -2.7365
12213TIP3    H258055   0.626   3.797   5.981 -0.1939 -1.2634 -1.7102
12214TIP3   OH258056   1.478   4.798  13.370 -0.7119  0.1925  0.6782
12214TIP3    H158057   1.433   4.724  13.411 -1.4187  0.2547  0.0378
12214TIP3    H258058   1.443   4.875  13.415 -1.0579  0.2259  0.3509
12215TIP3   OH258059   4.940   2.146  13.374  0.2316  0.4282  0.0106
12215TIP3    H158060   5.005   2.113  13.436  2.1669  0.2925 -1.9709
12215TIP3    H258061   4.924   2.236  13.401  2.3335  0.9170 -0.2297
12216TIP3   OH258062   5.585   3.328   3.319 -0.6853  0.0574 -0.0213
12216TIP3    H158063   5.654   3.293   3.375 -0.7434  0.1998  0.1405
12216TIP3    H258064   5.597   3.423   3.323 -0.0907  0.0358 -1.0111
12217TIP3   OH258065   2.606   5.369  15.808  0.2884  0.0054 -0.0741
12217TIP3    H158066   2.682   5.343  15.859 -0.0111  0.3528  0.5547
12217TIP3    H258067   2.641   5.391  15.722  0.7219 -1.1386 -0.2119
12218TIP3   OH258068   6.134   6.536   0.802  0.2148  0.3358  0.4121
12218TIP3    H158069   6.180   6.492   0.731 -0.5172  1.0245 -0.5166
12218TIP3    H258070   6.043   6.541   0.773 -0.0465  0.8934  1.2696
12219TIP3   OH258071   1.851   2.500  15.218 -0.5403 -0.5453  0.4336
12219TIP3    H158072   1.810   2.586  15.210  1.1748  0.5192  2.0897
12219TIP3    H258073   1.806   2.458  15.292 -0.1479 -0.2718  0.8368
12220TIP3   OH258074   0.363   4.134   5.453 -0.6492 -0.3357 -0.1672
12220TIP3    H158075   0.336   4.224   5.438 -1.9878 -0.5983  0.5345
12220TIP3    H258076   0.283   4.088   5.478 -0.1508 -1.9080 -1.2893
12221TIP3   OH258077   3.005   5.638  13.943  0.3207  0.3368 -0.6049
12221TIP3    H158078   3.051   5.722  13.933 -0.1739  0.8269  0.9362
12221TIP3    H258079   3.014   5.617  14.036 -0.4252 -0.8202 -0.7810
12222TIP3   OH258080   2.943   1.220   5.210  0.2526 -0.4512  0.0288
12222TIP3    H158081   2.877   1.234   5.278  0.5599 -2.6675  0.8375
12222TIP3    H258082   3.017   1.181   5.256  1.2277 -0.2043 -1.2772
12223TIP3   OH258083   1.911   0.183   6.351 -0.4393 -0.0801 -0.3909
12223TIP3    H158084   1.823   0.154   6.375  0.0657 -0.0820  1.5796
12223TIP3    H258085   1.958   0.102   6.330 -0.3141 -0.3073  0.6939
12224TIP3   OH258086   5.181   3.689  13.268 -0.4844  0.2318 -0.0017
12224TIP3    H158087   5.136   3.772  13.283 -0.9154 -0.0086  0.0685
12224TIP3    H258088   5.238   3.706  13.193  0.8774  1.1378  1.1940
12225TIP3   OH258089   5.265   4.649   4.743 -0.6865  0.1161  0.1583
12225TIP3    H158090   5.319   4.680   4.816 -0.7061 -0.3401  0.3688
12225TIP3    H258091   5.208   4.583   4.782 -1.0275  0.2101 -0.1743
12226TIP3   OH258092   5.101   4.389  11.960  0.1683  0.3846  0.0024
12226TIP3    H158093   5.113   4.297  11.981 -0.1863  0.4441  0.5124
12226TIP3    H258094   5.147   4.402  11.878  1.1100 -0.0078  0.4585
12227TIP3   OH258095   0.537   5.590   5.086  0.4386 -0.5666  0.2596
12227TIP3    H158096   0.588   5.648   5.030  3.2455 -2.3640  0.7038
12227TIP3    H258097   0.548   5.625   5.174  1.0722 -1.0018  0.3663
12228TIP3   OH258098   4.444   2.707  12.516  0.1611 -0.0688  0.7941
12228TIP3    H158099   4.372   2.653  12.482 -0.0238  1.1530 -0.8976
12228TIP3    H258100   4.523   2.656  12.498 -0.1362 -0.5686  0.8858
12229TIP3   OH258101   6.307   5.178  11.786  0.0918  0.1590 -0.2308
12229TIP3    H158102   6.320   5.188  11.880 -1.0452  2.1829 -0.2335
12229TIP3    H258103   6.391   5.203  11.747  0.1056  0.8351  0.2134
12230TIP3   OH258104   4.191   2.047   1.405  0.3285  0.4216  0.4815
12230TIP3    H158105   4.227   1.980   1.345 -0.2587  0.1027  0.4786
12230TIP3    H258106   4.192   2.128   1.354 -1.6391 -0.1407 -0.5525
12231TIP3   OH258107   1.078   0.919   3.282 -0.1325  0.1860 -0.1784
12231TIP3    H158108   1.134   0.843   3.297  1.1288  0.6779 -2.0026
12231TIP3    H258109   0.995   0.883   3.250  0.3380 -0.4389 -0.7162
12232TIP3   OH258110   4.243   1.561   5.106  0.2350 -0.4298 -0.8067
12232TIP3    H158111   4.156   1.521   5.099 -0.1258  0.3628 -0.9935
12232TIP3    H258112   4.237   1.640   5.051  0.5712  0.4777  0.4297
12233TIP3   OH258113   1.531   3.584   6.708 -0.3297 -0.1215  0.1833
12233TIP3    H158114   1.578   3.661   6.677 -1.6425  0.4142 -0.5891
12233TIP3    H258115   1.585   3.510   6.681  0.6338  0.5005  0.3741
12234TIP3   OH258116   1.524   2.349  12.874  0.6977 -0.3874 -0.7002
12234TIP3    H158117   1.447   2.401  12.855  0.2930 -0.7417 -0.0503
12234TIP3    H258118   1.530   2.348  12.969  1.9496  0.2712 -0.7524
12235TIP3   OH258119   6.657   1.679  16.713  0.0088 -0.4782 -0.0405
12235TIP3    H158120   6.638   1.700  16.622  0.4284  0.1386  0.0140
12235TIP3    H258121   6.746   1.643  16.712  0.5772  0.8552  0.2997
12236TIP3   OH258122   4.344   1.990   1.638  0.1058 -0.9650 -0.3478
12236TIP3    H158123   4.307   2.041   1.566 -1.2671  0.5172  1.3113
12236TIP3    H258124   4.437   2.014   1.639 -0.7221  2.9615  1.3104
12237TIP3   OH258125   2.388   2.069   3.242  0.6236  0.7160 -0.2503
12237TIP3    H158126   2.475   2.034   3.224  0.0137 -0.9541 -0.1115
12237TIP3    H258127   2.347   2.076   3.155 -0.3647 -2.0527 -0.0939
12238TIP3   OH258128   3.775   2.655  14.027  0.1667  0.4134  0.0847
12238TIP3    H158129   3.709   2.702  13.976  1.2817  0.5061 -1.3492
12238TIP3    H258130   3.760   2.563  14.007  1.2281  0.5018 -1.2795
12239TIP3   OH258131   4.796   1.278   1.187 -0.7904 -0.5081 -0.0611
12239TIP3    H158132   4.755   1.308   1.106 -0.7705  1.5756  0.6331
12239TIP3    H258133   4.727   1.286   1.253 -0.1348  0.2324  0.5634
12240TIP3   OH258134   3.918   3.238  15.675 -0.0121  0.0350 -0.0122
12240TIP3    H158135   3.959   3.297  15.611  1.8865  0.8120  1.8276
12240TIP3    H258136   3.827   3.267  15.679  0.3570  1.3877 -0.7801
12241TIP3   OH258137   4.579   1.578   4.148  0.1528 -0.1345  0.5667
12241TIP3    H158138   4.610   1.494   4.114  1.5459  0.3813  0.5118
12241TIP3    H258139   4.645   1.641   4.120  0.2042  0.6642  2.3604
12242TIP3   OH258140   5.129   5.170   3.274  0.3234 -0.7135 -0.1396
12242TIP3    H158141   5.145   5.172   3.180  0.5359  0.0642 -0.0949
12242TIP3    H258142   5.216   5.157   3.313  0.5120  0.7474  0.0001
12243TIP3   OH258143   6.707   5.858  13.882  0.1567 -0.4134  0.0660
12243TIP3    H158144   6.711   5.838  13.788  0.6661 -0.1848  0.0346
12243TIP3    H258145   6.616   5.883  13.897  0.4297  1.1838 -0.7184
12244TIP3   OH258146   2.735   2.137   4.687 -0.1753  0.0482 -0.3215
12244TIP3    H158147   2.800   2.207   4.681 -0.8893  0.8505  0.9616
12244TIP3    H258148   2.683   2.146   4.607  0.0814  0.6323 -0.4255
12245TIP3   OH258149   3.676   0.132   1.304  0.2140  0.0349  0.4019
12245TIP3    H158150   3.738   0.070   1.267  0.5532  0.0401  0.9476
12245TIP3    H258151   3.642   0.181   1.229  0.9464  0.1024  0.1089
12246TIP3   OH258152   1.422   2.762  15.308 -0.6773 -0.2951 -0.5482
12246TIP3    H158153   1.514   2.750  15.284  0.1163  1.1282  1.5329
12246TIP3    H258154   1.392   2.674  15.331  0.8160 -0.4854  0.8105
12247TIP3   OH258155   1.447   3.575  14.197 -0.6006  0.3541  0.3002
12247TIP3    H158156   1.513   3.563  14.266  0.6455  0.7122 -0.7921
12247TIP3    H258157   1.493   3.553  14.116 -2.1843 -0.5582 -0.3976
12248TIP3   OH258158   0.024   2.907   0.146 -0.5077 -0.3047 -0.3233
12248TIP3    H158159  -0.010   2.889   0.058  1.7856 -2.6835 -0.8684
12248TIP3    H258160  -0.047   2.884   0.205 -1.6799  0.1569 -1.4993
12249TIP3   OH258161   6.024   3.938   4.474  0.2819  1.1223 -0.1252
12249TIP3    H158162   6.022   3.844   4.457  0.9322  0.9973  0.3890
12249TIP3    H258163   5.934   3.967   4.463 -0.1597  0.2152  0.8594
12250TIP3   OH258164   2.367   3.654  15.330  0.2510  0.2395  0.1131
12250TIP3    H158165   2.328   3.706  15.260 -0.3154  0.1631  0.3700
12250TIP3    H258166   2.459   3.682  15.332 -0.0308  1.1997  0.2151
12251TIP3   OH258167   1.705   1.840  16.484  0.5218  0.1038  0.0174
12251TIP3    H158168   1.739   1.797  16.406 -0.5325 -1.2302  0.2633
12251TIP3    H258169   1.740   1.789  16.557  1.0029  0.9807  0.4215
12252TIP3   OH258170   0.565   0.785   1.732  0.6731 -0.1333 -0.3371
12252TIP3    H158171   0.603   0.708   1.773 -1.7776 -1.6876 -0.7868
12252TIP3    H258172   0.587   0.777   1.639 -1.7752 -1.8707 -0.8822
12253TIP3   OH258173   3.569   5.722   0.104 -0.3808 -0.3427  0.0491
12253TIP3    H158174   3.597   5.666   0.032 -0.3437 -1.0368  0.5893
12253TIP3    H258175   3.526   5.662   0.166  1.1302 -0.0768  1.4268
12254TIP3   OH258176   1.989   1.240  10.880 -0.2833  0.5282  0.1972
12254TIP3    H158177   1.897   1.213  10.880 -0.0174 -0.4276 -0.3551
12254TIP3    H258178   2.021   1.215  10.793  0.4362  1.0845  0.2909
12255TIP3   OH258179   0.866   0.701  14.890 -0.0928  0.0391  0.2591
12255TIP3    H158180   0.961   0.699  14.880 -0.0997 -1.8314  0.0781
12255TIP3    H258181   0.833   0.660  14.810 -1.0010 -0.0551  0.6649
12256TIP3   OH258182   4.308   3.427   4.663 -0.3163 -0.0321 -0.2320
12256TIP3    H158183   4.288   3.504   4.716 -0.8761 -1.4659  1.7468
12256TIP3    H258184   4.257   3.439   4.583 -1.1393  1.1925  0.4542
12257TIP3   OH258185   6.150   4.508  14.463  0.6194  0.0265 -0.6214
12257TIP3    H158186   6.107   4.455  14.530  0.8365 -0.0915 -0.5747
12257TIP3    H258187   6.149   4.454  14.384 -1.2527  0.8583 -1.2180
12258TIP3   OH258188   1.777   4.654  12.370 -0.0183 -0.1270  0.4615
12258TIP3    H158189   1.724   4.576  12.358 -0.0410  0.0046 -0.3340
12258TIP3    H258190   1.720   4.714  12.418 -1.0940  0.4853 -1.4578
12259TIP3   OH258191   2.634   0.505  16.998  1.4068 -0.5246 -0.0572
12259TIP3    H158192   2.601   0.494  16.908  0.4699  0.6802  0.1230
12259TIP3    H258193   2.708   0.565  16.989 -0.8831  2.5571  0.3277
12260TIP3   OH258194   2.139   3.459  15.242 -0.5717 -0.4442 -0.0551
12260TIP3    H158195   2.135   3.550  15.210 -0.2124 -0.5390 -0.3701
12260TIP3    H258196   2.199   3.463  15.316 -1.7447 -0.1410  0.9157
12261TIP3   OH258197   5.466   3.860  13.118  0.0380  0.6917  0.0206
12261TIP3    H158198   5.549   3.867  13.165 -0.1490  2.5363  0.1335
12261TIP3    H258199   5.400   3.893  13.180 -0.6160  0.3536 -0.4864
12262TIP3   OH258200   4.554   6.121  14.080  0.0347 -0.4872  0.2797
12262TIP3    H158201   4.484   6.179  14.050  1.1301  0.5307 -0.4118
12262TIP3    H258202   4.560   6.053  14.012 -1.0929 -1.3015  0.9706
12263TIP3   OH258203   4.736   3.362   0.064 -0.0164  0.2321 -0.0176
12263TIP3    H158204   4.750   3.403   0.149 -0.2635 -0.4846  0.3692
12263TIP3    H258205   4.641   3.354   0.056 -0.0660  1.2903 -0.8461
12264TIP3   OH258206   3.759   3.395  12.040 -0.2301 -0.0311 -0.3935
12264TIP3    H158207   3.744   3.439  12.123  1.6052  2.4410 -1.2529
12264TIP3    H258208   3.843   3.430  12.008  0.1105 -2.3403 -2.3828
12265TIP3   OH258209   1.341   4.894  15.413  0.4055 -0.2816  0.1397
12265TIP3    H158210   1.268   4.939  15.455 -1.4634 -1.6983 -1.4022
12265TIP3    H258211   1.345   4.809  15.456  0.2359 -0.7154 -0.6776
12266TIP3   OH258212   2.932   3.703  14.002 -0.3052 -0.4599  0.4326
12266TIP3    H158213   2.844   3.740  13.997  0.7089  2.1245 -0.2825
12266TIP3    H258214   2.923   3.613  13.971 -2.5339  0.0126 -0.4629
12267TIP3   OH258215   3.562   0.898   5.091  0.3194 -0.1902  0.4663
12267TIP3    H158216   3.482   0.916   5.042  0.7933  1.7489  0.2977
12267TIP3    H258217   3.614   0.843   5.033 -1.3915 -2.6183  1.1238
12268TIP3   OH258218   1.595   0.539  10.749 -0.0433 -0.1095  0.2280
12268TIP3    H158219   1.538   0.463  10.756 -1.0208  0.6982  1.6449
12268TIP3    H258220   1.559   0.589  10.676  2.0861 -2.1019 -2.3912
12269TIP3   OH258221   1.114   5.730   4.611 -0.2081 -0.0277 -0.1821
12269TIP3    H158222   1.167   5.716   4.533  0.0694 -1.6489  0.2719
12269TIP3    H258223   1.071   5.646   4.626 -1.8151  0.8338  0.2863
12270TIP3   OH258224   3.873   5.756  12.274 -0.3750 -0.0708 -0.8431
12270TIP3    H158225   3.946   5.718  12.225  0.4030  0.2244  0.0525
12270TIP3    H258226   3.845   5.831  12.221  2.6596  2.3407  0.6549
12271TIP3   OH258227   4.339   1.386  12.991  0.0999 -0.7753  0.5763
12271TIP3    H158228   4.245   1.371  12.975  0.3903 -1.8165 -0.3303
12271TIP3    H258229   4.366   1.312  13.046  0.4897 -0.7803  0.3829
12272TIP3   OH258230   5.870   6.297   3.168  0.4918  0.5830 -0.3554
12272TIP3    H158231   5.952   6.339   3.194  1.4311 -0.4937 -1.4614
12272TIP3    H258232   5.868   6.306   3.072  0.0253 -0.6434 -0.4770
12273TIP3   OH258233   2.503   1.541   0.663 -0.4236  0.5668  0.3897
12273TIP3    H158234   2.473   1.474   0.724 -0.7545  0.7097  0.3861
12273TIP3    H258235   2.599   1.536   0.667 -0.4388  0.6708  1.0273
12274TIP3   OH258236   1.401   0.324   2.367  0.4763 -0.6332 -0.2640
12274TIP3    H158237   1.492   0.295   2.358  1.7774  2.3768  1.4008
12274TIP3    H258238   1.407   0.420   2.368 -2.5126 -0.3326  1.6041
12275TIP3   OH258239   0.373   4.624   1.699  0.2513  0.7151 -0.5382
12275TIP3    H158240   0.456   4.658   1.732  1.6133 -0.1393 -2.8516
12275TIP3    H258241   0.350   4.554   1.759  2.5423 -0.6979 -1.1896
12276TIP3   OH258242   2.954   0.420  13.489 -0.4070  0.5415  0.3195
12276TIP3    H158243   2.934   0.371  13.409  1.0946 -1.8952  1.3034
12276TIP3    H258244   2.908   0.372  13.558 -0.5555  1.7816  1.1074
12277TIP3   OH258245   0.175   3.826   1.918  0.4322  0.0152  0.6382
12277TIP3    H158246   0.081   3.832   1.935  0.4833  0.3223  0.8256
12277TIP3    H258247   0.198   3.910   1.878  1.2800  1.4642  3.8500
12278TIP3   OH258248   1.185   4.982  16.687 -0.0173  0.5714  0.1975
12278TIP3    H158249   1.095   5.008  16.669  0.5822  2.6700 -0.0009
12278TIP3    H258250   1.206   4.918  16.619 -0.8101  1.3427 -0.7940
12279TIP3   OH258251   6.359   5.705   6.243 -0.3091 -0.1630  0.0762
12279TIP3    H158252   6.423   5.698   6.314  0.8372  1.3853 -0.7698
12279TIP3    H258253   6.280   5.738   6.285 -0.5814 -1.9608  1.1035
12280TIP3   OH258254   4.108   3.683  11.777  0.1360  0.4821  0.3289
12280TIP3    H158255   4.091   3.589  11.783 -2.4354  0.9516  2.3805
12280TIP3    H258256   4.098   3.715  11.866  2.4401  2.5651 -0.0449
12281TIP3   OH258257   0.375   6.760   6.246  0.0491 -0.6956 -0.1253
12281TIP3    H158258   0.305   6.812   6.285  0.8940 -0.8183  1.6416
12281TIP3    H258259   0.390   6.689   6.309  1.3910 -0.9745 -0.7353
12282TIP3   OH258260   0.270   0.438  11.744  0.0639  0.2083 -0.2875
12282TIP3    H158261   0.210   0.509  11.768  0.3438  0.7484 -1.1126
12282TIP3    H258262   0.294   0.397  11.827 -1.8005 -0.3301  0.0168
12283TIP3   OH258263   5.315   5.428   1.137  0.0342 -0.2645 -0.0128
12283TIP3    H158264   5.248   5.490   1.166 -0.4190 -1.2414  1.1291
12283TIP3    H258265   5.393   5.451   1.187  0.6868  1.0797 -1.5798
12284TIP3   OH258266   6.634   1.081  16.729  0.0247 -0.1325 -0.4339
12284TIP3    H158267   6.657   1.086  16.822  2.9232  0.1740 -1.0877
12284TIP3    H258268   6.711   1.042  16.687 -0.3627  1.6094 -2.9753
12285TIP3   OH258269   1.442   2.298   0.802 -0.5942 -0.0680  0.2329
12285TIP3    H158270   1.398   2.237   0.861  0.6999 -1.4984 -0.2232
12285TIP3    H258271   1.446   2.380   0.851  0.1053 -1.1041  2.0034
12286TIP3   OH258272   0.479   5.282  14.012  0.2526  0.4058  0.0907
12286TIP3    H158273   0.436   5.358  14.049 -2.1709 -0.5550 -0.5288
12286TIP3    H258274   0.474   5.295  13.917 -0.3791 -0.5863 -0.0287
12287TIP3   OH258275   5.571   2.219  10.988  0.7585 -0.5872  0.0348
12287TIP3    H158276   5.535   2.281  11.051 -0.6254 -1.2977 -0.0018
12287TIP3    H258277   5.615   2.273  10.923 -1.4706  0.5115 -0.6769
12288TIP3   OH258278   2.480   2.179   0.281 -0.2825 -0.1311  0.3368
12288TIP3    H158279   2.452   2.149   0.195 -0.7219  2.7329 -0.6207
12288TIP3    H258280   2.576   2.175   0.278 -0.2917  0.1258 -0.3469
12289TIP3   OH258281   6.052   4.944  13.503  0.1078  0.5947  0.3994
12289TIP3    H158282   6.042   4.919  13.411  1.0968  0.9508  0.1804
12289TIP3    H258283   6.131   4.998  13.505 -0.0086  0.7519  1.4283
12290TIP3   OH258284   0.293   1.199  13.567 -0.6954  0.8389  0.5378
12290TIP3    H158285   0.211   1.237  13.600 -1.8429 -1.3336  0.3346
12290TIP3    H258286   0.283   1.201  13.472  0.2467  2.0540  0.4321
12291TIP3   OH258287   0.818   3.473  16.147  0.3550 -0.0187 -0.1048
12291TIP3    H158288   0.735   3.426  16.149 -0.2929  0.8661 -2.8579
12291TIP3    H258289   0.871   3.426  16.082  0.8098  1.2681 -0.6989
12292TIP3   OH258290   4.173   4.793  17.146 -0.1635 -0.0546  0.1516
12292TIP3    H158291   4.110   4.722  17.142 -0.3709  0.1189  0.3055
12292TIP3    H258292   4.161   4.841  17.064  0.6262 -0.7389 -0.3815
12293TIP3   OH258293   3.357   0.678   0.341 -0.2153  0.0012  0.0091
12293TIP3    H158294   3.327   0.587   0.342  1.0181 -0.4218  0.4311
12293TIP3    H258295   3.412   0.684   0.263 -3.2635  1.4489 -2.2232
12294TIP3   OH258296   1.735   1.232   1.760 -0.0482  0.0302 -0.7480
12294TIP3    H158297   1.765   1.143   1.779 -1.6905 -0.7266 -1.4425
12294TIP3    H258298   1.692   1.224   1.674 -0.2097  1.5072 -0.8276
12295TIP3   OH258299   1.840   4.934  13.684 -0.3386  0.0058  0.2308
12295TIP3    H158300   1.929   4.966  13.673 -0.1324 -0.9454 -1.1335
12295TIP3    H258301   1.810   4.974  13.766  0.2886  2.7134 -0.7658
12296TIP3   OH258302   1.795   0.511  16.346  0.2012 -0.1049 -0.0528
12296TIP3    H158303   1.857   0.550  16.284  0.3267  3.0209  1.8081
12296TIP3    H258304   1.846   0.447  16.395  0.7535 -0.7437 -1.4242
12297TIP3   OH258305   1.124   4.647   0.082  0.3209 -0.1653 -0.1412
12297TIP3    H158306   1.046   4.657   0.029  0.0029 -0.9003  0.1778
12297TIP3    H258307   1.196   4.671   0.023 -0.1730  1.1905 -0.2300
12298TIP3   OH258308   3.994   2.440   4.067 -0.0833  0.0658  0.0939
12298TIP3    H158309   3.942   2.458   4.145  0.7539  0.7405  0.5096
12298TIP3    H258310   3.967   2.506   4.003 -1.1143 -0.7757 -0.3882
12299TIP3   OH258311   1.487   2.666  11.665 -0.6379  0.0245  0.2784
12299TIP3    H158312   1.526   2.580  11.682 -2.2318 -0.3269  2.6054
12299TIP3    H258313   1.402   2.646  11.626 -1.4948  0.4654  1.8613
12300TIP3   OH258314   2.310   2.671  14.811 -0.5249  0.0939  0.0490
12300TIP3    H158315   2.362   2.709  14.741 -1.0902  2.9450  1.0563
12300TIP3    H258316   2.365   2.601  14.847  1.0936  0.7150 -1.1263
12301TIP3   OH258317   4.584   4.705   3.800  0.2059  0.1257 -0.1181
12301TIP3    H158318   4.558   4.639   3.864  0.9627 -1.0169 -0.9595
12301TIP3    H258319   4.502   4.735   3.762 -0.2030  0.3157  0.8748
12302TIP3   OH258320   3.438   4.234  15.723 -0.2667  0.2664 -0.3991
12302TIP3    H158321   3.525   4.200  15.748 -0.1177 -0.9999 -2.4109
12302TIP3    H258322   3.386   4.226  15.803  1.3680  0.7593  0.7701
12303TIP3   OH258323   6.111   6.156  12.536 -0.3884 -0.3764  0.1383
12303TIP3    H158324   6.114   6.159  12.632 -0.0981  0.5274  0.1030
12303TIP3    H258325   6.050   6.084  12.517 -1.1437  0.0134  1.0005
12304TIP3   OH258326   1.425   2.567   0.303  0.0320  0.3677  0.0424
12304TIP3    H158327   1.367   2.597   0.373 -0.8943 -1.2180 -0.0209
12304TIP3    H258328   1.401   2.476   0.288  0.7343  0.4445 -1.8315
12305TIP3   OH258329   0.834   3.824   1.609  0.9337 -0.0802 -0.4324
12305TIP3    H158330   0.756   3.872   1.638  1.6626  0.7576  0.1739
12305TIP3    H258331   0.905   3.859   1.662  1.9435  0.0259 -1.8097
12306TIP3   OH258332   3.126   0.249   4.591 -0.2883 -0.3412 -0.2234
12306TIP3    H158333   3.092   0.163   4.616  0.3146 -0.1251  1.4792
12306TIP3    H258334   3.190   0.229   4.522  0.7182 -1.4290  0.9608
12307TIP3   OH258335   3.267   2.835  17.165 -0.3669 -0.3465 -0.3737
12307TIP3    H158336   3.304   2.747  17.176 -1.6581 -0.8022  0.5833
12307TIP3    H258337   3.318   2.890  17.225  0.9176 -0.2658 -1.4931
12308TIP3   OH258338   2.793   0.090  12.843 -0.1203 -0.2035 -0.4387
12308TIP3    H158339   2.731   0.131  12.782  1.0758  0.0976 -1.4849
12308TIP3    H258340   2.750   0.008  12.869 -0.3901 -0.6666 -2.2046
12309TIP3   OH258341   1.618   1.381  13.636  0.5434 -0.5518  0.4663
12309TIP3    H158342   1.600   1.306  13.692  0.6627 -0.6530  0.3699
12309TIP3    H258343   1.535   1.429  13.632  0.4281 -0.7557  0.4117
12310TIP3   OH258344   6.644   6.624   5.794  0.0527  0.1041 -0.6369
12310TIP3    H158345   6.682   6.619   5.882 -0.6375 -1.0182 -0.3820
12310TIP3    H258346   6.715   6.658   5.740 -0.0571  2.5936  0.6326
12311TIP3   OH258347   1.909   2.560   5.733 -0.2809 -0.0916 -0.3823
12311TIP3    H158348   1.919   2.654   5.745 -0.9663 -0.1881  1.1235
12311TIP3    H258349   1.994   2.523   5.757  0.0634  0.1431 -1.2042
12312TIP3   OH258350   3.178   4.956   3.915 -0.1771  0.3242 -0.2248
12312TIP3    H158351   3.203   4.993   3.999  2.4257  1.8022 -1.5242
12312TIP3    H258352   3.218   4.869   3.914  0.1640  0.4794 -0.1061
12313TIP3   OH258353   4.806   1.338   4.771 -0.4155 -0.3766 -0.6268
12313TIP3    H158354   4.901   1.338   4.776 -0.4507  0.3141  2.2371
12313TIP3    H258355   4.783   1.250   4.742  1.0661 -0.6937 -0.9167
12314TIP3   OH258356   2.399   3.227  13.918  0.2723 -0.0730 -0.0918
12314TIP3    H158357   2.392   3.270  13.832  0.9169 -1.0176 -0.6300
12314TIP3    H258358   2.405   3.134  13.897  1.0983 -0.2602  0.9567
12315TIP3   OH258359   5.759   3.748  11.652  0.4332 -0.5035  0.1790
12315TIP3    H158360   5.664   3.740  11.653  0.3805 -0.7896 -2.1435
12315TIP3    H258361   5.790   3.658  11.650  0.7149 -0.4051  0.0699
12316TIP3   OH258362   5.763   2.021  12.337 -0.0921  0.0624  0.4129
12316TIP3    H158363   5.686   2.076  12.347  0.4422  0.9130  0.0227
12316TIP3    H258364   5.746   1.969  12.258 -0.0025  0.7170 -0.0491
12317TIP3   OH258365   4.121   4.645   3.538 -0.3097 -0.1698  0.3280
12317TIP3    H158366   4.033   4.645   3.577  0.1869  0.5249  1.5039
12317TIP3    H258367   4.165   4.720   3.579  1.7141 -2.0588  1.8680
12318TIP3   OH258368   0.043   1.050   4.991  0.1751  0.5062  0.5068
12318TIP3    H158369   0.126   1.059   4.944  0.2420 -0.4676  0.4056
12318TIP3    H258370  -0.019   1.018   4.925  0.4159 -1.4590  1.1585
12319TIP3   OH258371   6.071   0.819   2.647 -0.2165  0.2557 -0.4017
12319TIP3    H158372   6.135   0.842   2.579 -0.2667 -0.0562 -0.5567
12319TIP3    H258373   6.017   0.750   2.607  0.1503 -0.3816  0.1767
12320TIP3   OH258374   4.474   4.365   2.997 -0.1102  0.1219  0.4317
12320TIP3    H158375   4.439   4.295   3.052 -1.3271  1.0018  0.8365
12320TIP3    H258376   4.516   4.425   3.059  1.2953 -0.4235  0.0467
12321TIP3   OH258377   5.082   1.388  15.444  0.5165  0.2937  0.0606
12321TIP3    H158378   4.991   1.400  15.414  0.3435  1.3584  0.9485
12321TIP3    H258379   5.089   1.443  15.522  1.8816  0.0754  0.1154
12322TIP3   OH258380   6.638   5.073  13.867 -0.6246 -0.0874  0.1926
12322TIP3    H158381   6.562   5.016  13.879  0.4805 -1.6368  0.0140
12322TIP3    H258382   6.615   5.129  13.793 -0.8946 -1.7759 -1.0411
12323TIP3   OH258383   2.670   0.032   4.425 -0.7750 -0.1244  0.4231
12323TIP3    H158384   2.665  -0.015   4.341 -2.2587 -2.1668  1.5592
12323TIP3    H258385   2.665   0.124   4.401  0.7788 -0.5367 -1.8370
12324TIP3   OH258386   3.812   6.517  17.035 -0.2874  0.6618  0.2116
12324TIP3    H158387   3.803   6.437  17.087  0.3789  0.6998  0.3952
12324TIP3    H258388   3.886   6.500  16.977  0.3646  1.4241  0.7904
12325TIP3   OH258389   4.474   0.024   4.835 -0.7342 -0.0063 -0.0430
12325TIP3    H158390   4.460  -0.023   4.753  0.5365 -1.2732  0.4196
12325TIP3    H258391   4.568   0.043   4.836 -0.7650  0.1579  1.0193
12326TIP3   OH258392   3.889   1.408  15.728 -0.2393 -0.0172 -0.2995
12326TIP3    H158393   3.905   1.496  15.763 -1.6742  0.1148  0.1156
12326TIP3    H258394   3.838   1.424  15.648 -0.4047 -0.4621 -0.2860
12327TIP3   OH258395   5.280   5.136  11.687  0.1988  0.1447  0.0784
12327TIP3    H158396   5.357   5.080  11.689  0.7936  0.9512  0.4304
12327TIP3    H258397   5.210   5.080  11.653  0.7788 -0.7831  0.3839
12328TIP3   OH258398   5.629   3.921   5.874 -0.1779  0.3809  0.4917
12328TIP3    H158399   5.611   3.827   5.877  1.3737  0.0661  0.5206
12328TIP3    H258400   5.577   3.952   5.799  0.4559 -0.7770 -0.4771
12329TIP3   OH258401   5.216   5.793  12.945  0.4700  0.5888 -0.2694
12329TIP3    H158402   5.263   5.722  12.990  0.4570  0.2124 -0.8423
12329TIP3    H258403   5.238   5.781  12.853  1.0145  1.7510 -0.3046
12330TIP3   OH258404   0.124   4.691  11.777 -0.1077 -0.2979  0.6894
12330TIP3    H158405   0.036   4.721  11.797 -0.1586  0.6998 -0.8347
12330TIP3    H258406   0.131   4.605  11.819 -2.1082 -0.7874  0.1022
12331TIP3   OH258407   0.769   5.293  14.505  0.2646  0.5077 -0.1066
12331TIP3    H158408   0.858   5.323  14.488  1.0648 -2.3881 -1.5401
12331TIP3    H258409   0.723   5.304  14.422 -0.4593  1.0627  0.3509
12332TIP3   OH258410   5.057   2.719   6.236 -0.2738  0.0013 -0.4409
12332TIP3    H158411   5.109   2.800   6.234 -0.0436 -0.1386 -0.2030
12332TIP3    H258412   4.970   2.746   6.206 -0.4944  0.5568  0.6710
12333TIP3   OH258413   1.940   5.559  14.663  0.4628  0.2361 -0.6493
12333TIP3    H158414   1.910   5.646  14.686 -1.2392 -0.4056 -0.3043
12333TIP3    H258415   1.983   5.526  14.742  0.1116  0.3518 -0.4086
12334TIP3   OH258416   5.942   6.500   4.995 -0.5092 -0.1050 -0.4031
12334TIP3    H158417   6.001   6.441   5.041  0.4012  1.1111  0.0365
12334TIP3    H258418   5.955   6.479   4.902 -1.0608 -1.3610 -0.2166
12335TIP3   OH258419   3.358   3.783  13.195 -0.3858  0.4299  0.0443
12335TIP3    H158420   3.294   3.809  13.261 -1.4845 -1.5933 -0.1326
12335TIP3    H258421   3.432   3.750  13.246 -0.3609  0.7903  0.2490
12336TIP3   OH258422   5.148   2.416   0.653 -0.6131 -0.0609 -0.4830
12336TIP3    H158423   5.114   2.470   0.725 -0.6201 -0.3853 -0.2420
12336TIP3    H258424   5.071   2.370   0.620 -0.0465 -3.2368  2.0898
12337TIP3   OH258425   1.552   1.951   2.800 -0.1729 -0.2152  0.1931
12337TIP3    H158426   1.508   1.914   2.724 -0.1024  2.3710 -1.2190
12337TIP3    H258427   1.515   2.039   2.809  0.7739  0.0218  2.3595
12338TIP3   OH258428   3.541   0.836  14.661  0.3219  0.4994  1.1795
12338TIP3    H158429   3.521   0.761  14.605 -1.0052  2.5587 -1.3684
12338TIP3    H258430   3.635   0.848  14.653  0.5487 -0.8577  1.6282
12339TIP3   OH258431   2.527   5.471   4.181  0.8165  0.0121  0.2871
12339TIP3    H158432   2.486   5.399   4.134 -3.5510  2.2508  0.1339
12339TIP3    H258433   2.508   5.453   4.273  0.6008  0.4652  0.3333
12340TIP3   OH258434   1.211   3.118   0.640  0.0824  0.3567  0.3029
12340TIP3    H158435   1.250   3.205   0.653  0.9676  0.4654 -2.4389
12340TIP3    H258436   1.280   3.057   0.667  0.4836  0.5265 -0.3299
12341TIP3   OH258437   2.686   1.925  12.245 -0.3386 -0.5785 -0.2537
12341TIP3    H158438   2.620   1.994  12.250  1.3809  1.0896  2.5199
12341TIP3    H258439   2.660   1.861  12.311 -0.4277 -1.1622 -0.8406
12342TIP3   OH258440   0.838   6.508   3.636  0.2393 -0.1571 -0.2303
12342TIP3    H158441   0.928   6.486   3.661 -0.2027 -1.9401 -0.0449
12342TIP3    H258442   0.786   6.483   3.712 -0.5446 -0.4640 -0.8524
12343TIP3   OH258443   3.079   3.440   5.193 -0.3485 -0.4629 -0.5746
12343TIP3    H158444   3.112   3.506   5.132 -0.4037 -0.2742 -0.4023
12343TIP3    H258445   3.009   3.395   5.144  0.1633 -0.8667 -0.9406
12344TIP3   OH258446   2.725   5.083  16.164 -0.2999 -1.1585 -0.2391
12344TIP3    H158447   2.710   5.045  16.078 -0.7076  0.0317 -0.7173
12344TIP3    H258448   2.819   5.068  16.180 -0.1229 -1.0257 -1.0834
12345TIP3   OH258449   6.399   3.811   5.634  0.2011 -0.1912  0.0771
12345TIP3    H158450   6.433   3.807   5.545  0.2077  0.1737  0.0606
12345TIP3    H258451   6.388   3.905   5.651 -0.7761 -0.3033  0.0938
12346TIP3   OH258452   2.559   4.816  12.614 -0.1163  0.4557  0.7162
12346TIP3    H158453   2.564   4.906  12.582  1.2911 -0.4484 -1.9272
12346TIP3    H258454   2.623   4.814  12.686  0.0877  1.4926  0.5918
12347TIP3   OH258455   3.539   3.694   5.058 -0.0491 -0.5128  0.1080
12347TIP3    H158456   3.523   3.750   5.134  3.1773 -0.3914  0.8309
12347TIP3    H258457   3.494   3.612   5.078 -0.6446  0.0954  1.3563
12348TIP3   OH258458   6.294   2.320  11.293  0.0316  0.1801 -0.1641
12348TIP3    H158459   6.325   2.383  11.227  0.0909  2.0827  1.5769
12348TIP3    H258460   6.242   2.374  11.353 -0.3158 -1.5667  1.1495
12349TIP3   OH258461   4.907   6.279  12.682  0.3408 -0.8232  0.6250
12349TIP3    H158462   4.896   6.184  12.685 -0.1426 -0.8807 -1.5039
12349TIP3    H258463   4.820   6.313  12.661  0.6476  0.0618  0.7246
12350TIP3   OH258464   3.087   5.252   3.718 -0.0054  0.1384  0.2405
12350TIP3    H158465   3.076   5.346   3.729  0.8230  0.0206  2.7973
12350TIP3    H258466   3.083   5.217   3.807  2.5648 -1.8955 -0.3124
12351TIP3   OH258467   0.679   5.000   3.865 -0.3427 -0.0108  0.4562
12351TIP3    H158468   0.593   5.042   3.873 -0.9176 -0.8929 -0.8475
12351TIP3    H258469   0.665   4.911   3.899 -0.6496 -1.0019 -2.0772
12352TIP3   OH258470   5.282   0.931  12.991  0.3113 -0.1895 -0.1051
12352TIP3    H158471   5.292   0.849  13.038  0.6822 -0.0335  0.0957
12352TIP3    H258472   5.334   0.994  13.041 -0.0542  0.1913 -0.1959
12353TIP3   OH258473   3.910   2.279  11.655  0.5247 -0.1729 -0.1667
12353TIP3    H158474   3.963   2.270  11.576 -0.6526 -0.6885 -0.9290
12353TIP3    H258475   3.892   2.189  11.682  2.0640 -0.0380  1.5358
12354TIP3   OH258476   2.936   6.632  15.145 -0.6449  0.1992  0.1164
12354TIP3    H158477   2.948   6.594  15.231 -1.3698  1.4840  0.8266
12354TIP3    H258478   2.890   6.565  15.095 -1.1498 -0.1762  1.0618
12355TIP3   OH258479   1.952   2.236   0.485 -0.4242 -0.5353  0.2573
12355TIP3    H158480   2.010   2.243   0.410 -1.4239  2.1412 -0.3698
12355TIP3    H258481   2.002   2.272   0.558 -0.1502 -1.3617  0.4988
12356TIP3   OH258482   5.179   0.762  11.295  0.1550  1.1191  0.1160
12356TIP3    H158483   5.107   0.731  11.240  0.0298  1.0827  0.3012
12356TIP3    H258484   5.139   0.782  11.380  0.5409  0.0989  0.5536
12357TIP3   OH258485   3.386   1.785  13.916  0.1659  0.1939 -0.1261
12357TIP3    H158486   3.405   1.695  13.941  0.4825 -0.7775 -3.3607
12357TIP3    H258487   3.469   1.831  13.927  0.0917  0.0307  1.2102
12358TIP3   OH258488   4.334   0.037  16.551  0.9785 -0.3377  0.3336
12358TIP3    H158489   4.312   0.107  16.613  0.2527 -0.5604  0.3313
12358TIP3    H258490   4.422   0.059  16.521  0.4069  1.0826 -0.3693
12359TIP3   OH258491   4.266   3.472   6.362 -0.9234  0.3135 -0.2685
12359TIP3    H158492   4.259   3.381   6.392 -2.4792  0.5920  0.2950
12359TIP3    H258493   4.176   3.504   6.362 -0.3855  1.8967 -0.3447
12360TIP3   OH258494   6.472   1.812   1.089  0.4261 -0.3706 -0.0662
12360TIP3    H158495   6.533   1.740   1.072  0.3373 -0.7449  1.1431
12360TIP3    H258496   6.527   1.890   1.094  0.4527 -0.2062 -2.0867
12361TIP3   OH258497   5.299   6.804   4.274 -0.7109  0.0933  0.3265
12361TIP3    H158498   5.380   6.837   4.235  0.3437 -0.3893  2.0198
12361TIP3    H258499   5.267   6.738   4.211  1.3112 -1.1848  0.5502
12362TIP3   OH258500   2.206   4.957  12.255 -0.1408  0.1639  0.3522
12362TIP3    H158501   2.158   4.936  12.335 -0.3385  1.1973  0.5143
12362TIP3    H258502   2.273   5.020  12.283 -2.1889  3.0213 -0.7631
12363TIP3   OH258503   4.418   0.803  14.197 -0.2471  0.3789  0.0072
12363TIP3    H158504   4.457   0.890  14.207  1.1308 -0.2081 -0.0137
12363TIP3    H258505   4.344   0.816  14.137 -0.8559  1.7398  0.9924
12364TIP3   OH258506   1.370   6.205   3.335  0.3554  0.3018 -0.1465
12364TIP3    H158507   1.348   6.174   3.247 -2.6070 -1.0915  0.9661
12364TIP3    H258508   1.339   6.295   3.337 -0.4785  0.0315 -0.2749
12365TIP3   OH258509   2.988   3.930  15.130  0.3549 -0.4250 -0.0237
12365TIP3    H158510   2.958   3.840  15.142 -0.4298 -0.6998 -3.0279
12365TIP3    H258511   2.911   3.978  15.099  0.8850  1.1745  0.9836
12366TIP3   OH258512   1.547   2.753   2.111 -0.2991  0.2383 -0.0061
12366TIP3    H158513   1.496   2.672   2.110 -2.4225  1.4680 -2.4308
12366TIP3    H258514   1.616   2.738   2.046 -1.6799  0.8613 -1.6880
12367TIP3   OH258515   2.655   5.284   1.400  0.5200  0.1649  0.3797
12367TIP3    H158516   2.573   5.328   1.422  0.2002 -0.9858  1.6473
12367TIP3    H258517   2.632   5.223   1.330  0.6817  1.0257 -0.4467
12368TIP3   OH258518   2.629   2.117   2.046 -0.2228  0.0604 -0.0788
12368TIP3    H158519   2.636   2.058   1.972  0.1574  0.9430 -0.7729
12368TIP3    H258520   2.720   2.134   2.072 -0.3681 -0.9471  1.1871
12369TIP3   OH258521   6.762   6.267  11.650  0.1151  0.4090 -0.6106
12369TIP3    H158522   6.773   6.267  11.745  1.7166 -0.8751 -0.7516
12369TIP3    H258523   6.709   6.344  11.632  1.4382  1.8264  1.1521
12370TIP3   OH258524   0.767   2.288   1.517 -0.3217 -0.2130 -0.1296
12370TIP3    H158525   0.852   2.325   1.543 -0.4665 -0.7720  1.2141
12370TIP3    H258526   0.786   2.196   1.500 -0.7320 -0.4338  0.5916
12371TIP3   OH258527   5.314   5.752  11.205 -0.1748 -0.0201  0.0694
12371TIP3    H158528   5.287   5.776  11.116 -0.7163 -0.0087  0.2307
12371TIP3    H258529   5.408   5.769  11.207 -0.1724  0.0545 -0.4781
12372TIP3   OH258530   1.430   6.324  10.860 -0.1623 -0.5498  0.2642
12372TIP3    H158531   1.376   6.353  10.932  0.6655  1.2163  0.2227
12372TIP3    H258532   1.445   6.231  10.877  0.3750 -0.0922  2.6150
12373TIP3   OH258533   3.396   3.633   3.849 -0.6605 -0.0368  0.7967
12373TIP3    H158534   3.312   3.598   3.878 -0.3032 -0.5295  1.2629
12373TIP3    H258535   3.460   3.569   3.880 -0.2477 -0.6125 -1.1455
12374TIP3   OH258536   4.666   0.255  11.094 -0.1512  0.6709 -0.0236
12374TIP3    H158537   4.613   0.248  11.174 -1.1857 -2.0850 -0.8209
12374TIP3    H258538   4.675   0.349  11.079 -2.2159  1.2549  1.8642
12375TIP3   OH258539   0.146   0.271  10.588  0.3867 -0.2888  0.0168
12375TIP3    H158540   0.215   0.330  10.558 -0.6039  1.1433  0.4428
12375TIP3    H258541   0.152   0.195  10.530  2.4884 -0.3531  0.2305
12376TIP3   OH258542   3.056   3.904   6.180 -0.1045  0.0445 -0.0456
12376TIP3    H158543   3.060   3.855   6.263  1.5134 -0.6918 -0.5261
12376TIP3    H258544   3.101   3.986   6.198  1.1163 -0.5166 -0.4231
12377TIP3   OH258545   1.943   5.083   0.436 -0.1247  0.2256  0.5810
12377TIP3    H158546   2.016   5.063   0.377 -0.2520  0.9052  0.1819
12377TIP3    H258547   1.866   5.081   0.379 -0.2741  0.6693  0.7705
12378TIP3   OH258548   5.121   6.646  12.233  0.3413 -0.1763  0.2867
12378TIP3    H158549   5.043   6.688  12.196  0.7164  1.3100  1.1369
12378TIP3    H258550   5.172   6.619  12.157 -0.3705  0.0249 -0.2757
12379TIP3   OH258551   3.766   2.229   5.223  0.7922 -0.0104  0.1350
12379TIP3    H158552   3.737   2.179   5.300  1.5369 -0.3968  0.1671
12379TIP3    H258553   3.748   2.321   5.247 -0.8291 -0.2511 -0.0349
12380TIP3   OH258554   0.157   3.337   0.529  0.5116 -0.1002 -0.1836
12380TIP3    H158555   0.147   3.244   0.508 -0.4040 -0.2332  0.7900
12380TIP3    H258556   0.175   3.378   0.444 -1.3288 -0.8618 -1.0036
12381TIP3   OH258557   6.120   0.419  16.584 -0.2341 -0.2326 -0.5396
12381TIP3    H158558   6.213   0.402  16.602  0.2508  0.0603 -2.5609
12381TIP3    H258559   6.120   0.465  16.500 -2.2905 -1.4429 -1.2655
12382TIP3   OH258560   1.665   6.309  11.455 -0.2765 -0.5143  0.3909
12382TIP3    H158561   1.746   6.301  11.404 -0.6502 -0.4464 -0.2215
12382TIP3    H258562   1.607   6.361  11.400 -0.7486 -0.5842  0.8144
12383TIP3   OH258563   5.590   4.339   1.007 -0.5120 -0.1121  0.0644
12383TIP3    H158564   5.601   4.254   0.964  1.8025  0.1973 -0.0767
12383TIP3    H258565   5.529   4.387   0.951 -1.6779 -1.5443  0.0229
12384TIP3   OH258566   2.809   6.449  11.994  0.1391  0.1973 -0.6232
12384TIP3    H158567   2.743   6.392  11.954 -0.5008  0.8989 -0.5840
12384TIP3    H258568   2.893   6.410  11.967 -0.2615 -1.3540  0.2440
12385TIP3   OH258569   4.728   3.680   5.958 -0.4074  0.1507 -0.1467
12385TIP3    H158570   4.767   3.701   6.043 -1.1247  2.0130 -0.2484
12385TIP3    H258571   4.641   3.718   5.961 -0.5220  0.0833 -1.6580
12386TIP3   OH258572   1.120   5.322   0.588  0.5212  0.2720  0.2060
12386TIP3    H158573   1.183   5.316   0.661  0.0069 -1.1026  0.5753
12386TIP3    H258574   1.074   5.238   0.590 -0.7271  0.9111 -0.6100
12387TIP3   OH258575   2.647   3.938  14.369 -0.1154 -0.6496  0.0459
12387TIP3    H158576   2.615   4.015  14.322  0.3910 -0.8223 -0.6057
12387TIP3    H258577   2.631   3.865  14.309 -0.2601 -1.0015  0.5081
12388TIP3   OH258578   2.930   4.467  16.452  0.4488  0.2815  0.6409
12388TIP3    H158579   2.918   4.381  16.412 -1.0262  0.9440 -0.4088
12388TIP3    H258580   2.885   4.527  16.394 -2.0166  1.2819  3.3289
12389TIP3   OH258581   5.907   6.699  14.114 -0.6869  0.3148 -0.4237
12389TIP3    H158582   5.995   6.687  14.149 -0.9663 -1.2736 -0.1918
12389TIP3    H258583   5.897   6.630  14.048 -2.3126 -0.6197  0.7158
12390TIP3   OH258584   5.387   6.774  11.458 -0.2153 -0.5372 -0.3624
12390TIP3    H158585   5.390   6.789  11.363  1.2902 -0.2955 -0.3088
12390TIP3    H258586   5.459   6.713  11.475 -0.1084 -0.1379  0.6971
12391TIP3   OH258587   2.696   2.239   4.162 -0.4984 -0.2463  0.1129
12391TIP3    H158588   2.616   2.195   4.134 -0.5424  1.0182 -1.9267
12391TIP3    H258589   2.736   2.270   4.081  0.9279  1.0528  1.2652
12392TIP3   OH258590   1.377   1.338  15.085 -0.2403 -0.2822 -0.1829
12392TIP3    H158591   1.313   1.401  15.120  0.2991  0.7479 -0.9778
12392TIP3    H258592   1.326   1.280  15.029 -0.9409 -1.3073  1.4354
12393TIP3   OH258593   1.055   4.029   0.886  0.1227  0.0293 -0.2591
12393TIP3    H158594   0.979   3.995   0.839  0.6129 -0.9727 -0.3766
12393TIP3    H258595   1.099   3.950   0.919  0.0127  0.6992  1.5508
12394TIP3   OH258596   6.684   2.964  15.612  0.3939 -0.0088  0.2580
12394TIP3    H158597   6.597   2.995  15.635 -0.0140 -0.2050 -0.9596
12394TIP3    H258598   6.731   3.043  15.585  0.0559 -0.1369 -0.7116
12395TIP3   OH258599   0.354   0.847  13.697  0.8650  0.0544  0.3355
12395TIP3    H158600   0.345   0.920  13.759  0.7906  2.0004 -1.8190
12395TIP3    H258601   0.265   0.831  13.666  0.9222 -0.7798  0.5843
12396TIP3   OH258602   2.048   1.279  14.992 -0.2218 -0.2363  0.4160
12396TIP3    H158603   1.979   1.213  14.995 -1.0087  0.2549 -2.6053
12396TIP3    H258604   2.003   1.358  14.960  1.3642  0.6662  0.3144
12397TIP3   OH258605   4.645   6.410  12.615  0.1750 -0.4107  0.5545
12397TIP3    H158606   4.616   6.334  12.666  0.4080 -0.7937  0.1295
12397TIP3    H258607   4.622   6.387  12.524  1.5659 -0.6101  0.2381
12398TIP3   OH258608   2.449   1.861   0.786  0.6644  0.0631 -0.0005
12398TIP3    H158609   2.464   1.769   0.764  0.4311  0.0350 -0.0405
12398TIP3    H258610   2.460   1.865   0.881 -1.6570 -0.4645  0.3419
12399TIP3   OH258611   1.737   5.064   2.235  0.5162  0.5265 -0.0830
12399TIP3    H158612   1.717   4.973   2.256 -0.6055  0.2534 -2.0869
12399TIP3    H258613   1.766   5.061   2.144 -0.2231  2.2458 -0.4092
12400TIP3   OH258614   6.313   3.790  17.062 -0.3021  0.0408  0.6144
12400TIP3    H158615   6.394   3.833  17.088 -0.2066  0.1516  0.1565
12400TIP3    H258616   6.320   3.701  17.097 -0.1580  0.1710  0.9117
12401TIP3   OH258617   1.902   0.754  10.526  0.2101 -1.0453 -0.3112
12401TIP3    H158618   1.951   0.671  10.527  1.1377 -0.5161 -0.8372
12401TIP3    H258619   1.954   0.812  10.471 -0.2464  0.0101  0.3478
12402TIP3   OH258620   4.033   6.575   4.501  0.0409  0.4143  0.1397
12402TIP3    H158621   4.046   6.632   4.577 -2.5570 -0.1952  1.1495
12402TIP3    H258622   4.022   6.487   4.538 -1.4976  0.1390 -0.8558
12403TIP3   OH258623   6.544   6.273  10.735 -0.8336 -0.2184 -0.0511
12403TIP3    H158624   6.450   6.269  10.719 -1.3612  0.5913  2.4167
12403TIP3    H258625   6.556   6.349  10.792  1.4642  0.2947 -1.1032
12404TIP3   OH258626   1.943   1.547   0.529 -0.1342 -0.0444  0.0313
12404TIP3    H158627   1.890   1.594   0.466 -0.2860 -1.3228 -0.8398
12404TIP3    H258628   1.885   1.479   0.564  0.4920 -0.5538  0.1214
12405TIP3   OH258629   5.426   1.827   2.149  0.7410  0.4770 -0.2780
12405TIP3    H158630   5.505   1.862   2.190 -0.5306  1.1306  1.7741
12405TIP3    H258631   5.377   1.905   2.122  1.3524  0.0672 -2.8323
12406TIP3   OH258632   5.777   5.851   0.889 -0.1865  0.7391 -0.2682
12406TIP3    H158633   5.760   5.830   0.981 -0.6688  2.2157  0.0180
12406TIP3    H258634   5.860   5.808   0.869  0.4336  1.1961  1.1796
12407TIP3   OH258635   4.701   4.486   2.796  0.2438 -0.4310 -0.1651
12407TIP3    H158636   4.715   4.533   2.714  1.4010 -2.1920 -1.0651
12407TIP3    H258637   4.606   4.484   2.807  0.0467 -0.3670 -1.6040
12408TIP3   OH258638   5.609   6.480  16.914  0.3367  0.4610 -0.1638
12408TIP3    H158639   5.549   6.409  16.937  0.3572  0.9991  1.6991
12408TIP3    H258640   5.682   6.436  16.871 -0.4924 -0.4262 -0.6918
12409TIP3   OH258641   0.224   4.920   0.265  0.0682 -0.4905 -0.4984
12409TIP3    H158642   0.195   5.009   0.241 -1.3688 -0.6030  0.6566
12409TIP3    H258643   0.288   4.933   0.334  2.2977 -0.2715 -2.4911
12410TIP3   OH258644   5.087   6.532  16.834 -0.2188 -0.7205  0.3361
12410TIP3    H158645   5.168   6.538  16.784 -0.6497 -1.4552 -0.4822
12410TIP3    H258646   5.059   6.622  16.846  0.9565 -0.4286  1.0448
12411TIP3   OH258647   4.760   3.536  15.114 -0.1122  0.3475 -0.8585
12411TIP3    H158648   4.821   3.464  15.127 -0.8896 -0.0386  1.0407
12411TIP3    H258649   4.814   3.607  15.079  1.2767 -0.2152  0.0601
12412TIP3   OH258650   3.995   2.199   2.149  0.1379 -0.4539 -0.7202
12412TIP3    H158651   4.057   2.257   2.195 -0.9875  0.3170 -0.1315
12412TIP3    H258652   3.910   2.240   2.162 -0.3895 -0.9304 -2.4155
12413TIP3   OH258653   5.291   5.096   0.692  0.0049  0.3007  0.5082
12413TIP3    H158654   5.208   5.082   0.647  0.5809 -0.6255 -0.2982
12413TIP3    H258655   5.286   5.186   0.725 -0.9324  0.5648 -0.3222
12414TIP3   OH258656   1.933   3.366  13.456 -0.2961  0.4832  0.5683
12414TIP3    H158657   1.939   3.431  13.526  0.9243  2.3964 -1.1777
12414TIP3    H258658   2.011   3.381  13.403 -1.3131 -0.6722 -1.3618
12415TIP3   OH258659   3.111   2.894   5.565  0.1532  1.2832  0.1795
12415TIP3    H158660   3.172   2.825   5.591 -1.8131 -0.1108  1.3792
12415TIP3    H258661   3.031   2.848   5.541 -0.6813  3.0734 -0.6552
12416TIP3   OH258662   0.681   4.671   5.929  0.3935  0.0448 -0.1991
12416TIP3    H158663   0.667   4.682   6.023 -0.1399 -1.1162 -0.1297
12416TIP3    H258664   0.770   4.704   5.915 -0.2969  2.3004  0.3114
12417TIP3   OH258665   5.814   5.172   1.553  0.1769  0.1006 -0.4864
12417TIP3    H158666   5.842   5.263   1.541  1.2635 -0.0617  0.6343
12417TIP3    H258667   5.883   5.120   1.511  0.5083 -0.2523  0.4736
12418TIP3   OH258668   4.514   4.202   3.401  0.0601  0.1464  0.3303
12418TIP3    H158669   4.525   4.223   3.494 -2.0270  1.2799  0.3699
12418TIP3    H258670   4.533   4.283   3.355 -0.6784  0.0881 -0.0917
12419TIP3   OH258671   2.497   2.674   3.782  0.4443  0.2925  0.1246
12419TIP3    H158672   2.427   2.712   3.835  2.1795  0.1963  2.6939
12419TIP3    H258673   2.456   2.600   3.737 -1.1815  0.4532  1.2572
12420TIP3   OH258674   5.743   6.022  12.140 -0.4836 -1.1515  0.1661
12420TIP3    H158675   5.655   6.039  12.172  0.3753  1.5867  1.4382
12420TIP3    H258676   5.784   6.109  12.138  2.1481 -2.3209 -0.4663
12421TIP3   OH258677   1.663   2.823  13.263 -0.4021 -0.3412  0.1511
12421TIP3    H158678   1.600   2.858  13.326 -1.8812  0.2268 -1.5606
12421TIP3    H258679   1.615   2.754  13.216  0.3980 -0.2380 -0.8717
12422TIP3   OH258680   3.133   5.156  13.171  0.5598  0.2082  0.8992
12422TIP3    H158681   3.191   5.232  13.178  0.2353  0.5458  0.0743
12422TIP3    H258682   3.148   5.107  13.251  0.1884  1.5689  1.8560
12423TIP3   OH258683   3.174   3.051  14.755  0.0900  0.8194 -0.4865
12423TIP3    H158684   3.113   3.020  14.822 -0.5976 -0.9949 -1.8808
12423TIP3    H258685   3.121   3.061  14.677  1.5347 -1.0380 -1.8094
12424TIP3   OH258686   5.902   5.461  15.947 -0.0714  0.3889  0.3621
12424TIP3    H158687   5.913   5.368  15.966 -1.7589 -0.0963 -0.8005
12424TIP3    H258688   5.867   5.499  16.028 -2.4596 -0.6691 -0.0875
12425TIP3   OH258689   1.363   1.226  12.479  0.1644  0.2541 -0.3712
12425TIP3    H158690   1.367   1.280  12.400  0.0120  0.5679 -0.1643
12425TIP3    H258691   1.416   1.272  12.544  1.4265 -0.6935 -0.6888
12426TIP3   OH258692   5.794   0.970  12.616 -1.0893  0.6731 -0.1710
12426TIP3    H158693   5.873   0.918  12.630 -1.2927  0.5392  0.5295
12426TIP3    H258694   5.813   1.023  12.539  0.2480  1.7423  0.8504
12427TIP3   OH258695   5.713   0.931   1.621 -0.2638  0.4643 -0.0665
12427TIP3    H158696   5.652   0.859   1.640  0.1664  0.4185  1.2221
12427TIP3    H258697   5.678   0.971   1.541 -2.6093  1.1237  1.2014
12428TIP3   OH258698   5.170   3.926   1.719  0.2349 -0.0340 -0.0963
12428TIP3    H158699   5.115   4.003   1.735 -1.9515 -1.5205  0.0488
12428TIP3    H258700   5.235   3.927   1.789 -0.8538  0.7551  0.9451
12429TIP3   OH258701   1.377   0.267   2.651 -0.2070  0.3930  0.8827
12429TIP3    H158702   1.384   0.267   2.555 -1.8457 -2.0939  0.6619
12429TIP3    H258703   1.391   0.358   2.676 -1.8918  1.5544 -1.9279
12430TIP3   OH258704   2.429   1.103  12.462 -0.2758  0.6413 -0.1823
12430TIP3    H158705   2.368   1.062  12.402  1.0917 -0.6254 -0.7828
12430TIP3    H258706   2.411   1.062  12.547 -0.7557  0.8503 -0.1794
12431TIP3   OH258707   6.618   1.286  13.405  0.6463 -0.1290  0.0278
12431TIP3    H158708   6.662   1.201  13.403  0.1551 -0.3723 -1.3157
12431TIP3    H258709   6.671   1.342  13.349  0.8004  0.3907  0.6705
12432TIP3   OH258710   3.759   5.905  16.598  0.4785 -0.0486 -0.6107
12432TIP3    H158711   3.827   5.965  16.628  1.9808 -1.1293 -1.6984
12432TIP3    H258712   3.760   5.833  16.662  1.3497 -0.7266 -1.3592
12433TIP3   OH258713   0.435   2.657  16.031  0.0121 -0.0969  0.0323
12433TIP3    H158714   0.452   2.684  16.121 -0.0032  0.0100  0.0037
12433TIP3    H258715   0.509   2.693  15.981  1.5238 -2.4720  0.4219
12434TIP3   OH258716   3.502   6.649   0.930  0.2049 -0.2002  0.0733
12434TIP3    H158717   3.566   6.715   0.903 -1.7376  1.3731 -0.9629
12434TIP3    H258718   3.512   6.579   0.866  0.5411  0.2427 -0.3686
12435TIP3   OH258719   2.906   6.563   2.006  0.2176  0.3703  0.0391
12435TIP3    H158720   2.986   6.522   2.039 -0.2377 -0.0004  0.6979
12435TIP3    H258721   2.926   6.657   2.005  0.7336  0.2651 -0.0140
12436TIP3   OH258722   0.046   1.123   4.626 -0.1294 -0.0358  0.1801
12436TIP3    H158723   0.040   1.161   4.539  3.7014  0.1986 -0.1335
12436TIP3    H258724   0.010   1.191   4.684 -1.6852  0.2507 -1.0446
12437TIP3   OH258725   3.166   6.490  14.653  0.1839  0.1064  0.8219
12437TIP3    H158726   3.103   6.556  14.625 -0.1186 -0.0463  1.1298
12437TIP3    H258727   3.251   6.530  14.638  0.0133  0.2823  0.3213
12438TIP3   OH258728   6.192   4.268   3.929 -0.0735  0.6191  0.0934
12438TIP3    H158729   6.173   4.355   3.893 -0.7371  0.8464  0.9580
12438TIP3    H258730   6.106   4.228   3.941  0.2523 -0.4358 -0.9381
12439TIP3   OH258731   1.099   2.961  11.938 -0.1347 -0.9423 -0.2351
12439TIP3    H158732   1.010   2.992  11.923  0.5905  1.0078 -0.7193
12439TIP3    H258733   1.089   2.866  11.947 -2.0675 -0.9607 -1.8152
12440TIP3   OH258734   0.714   5.924   5.515  0.2353 -0.2894 -0.9256
12440TIP3    H158735   0.725   5.955   5.604 -0.9387 -1.2277 -0.4310
12440TIP3    H258736   0.797   5.882   5.493  0.5403 -0.0243 -0.2920
12441TIP3   OH258737   6.334   0.494   2.932 -0.1420  0.1088 -0.5747
12441TIP3    H158738   6.341   0.569   2.872 -1.2003 -0.0854 -0.9620
12441TIP3    H258739   6.278   0.525   3.003  1.0599  0.3186  0.3184
12442TIP3   OH258740   5.765   3.159   0.923 -0.1652  0.3091  0.1188
12442TIP3    H158741   5.849   3.136   0.961 -0.2442 -2.3165 -1.1172
12442TIP3    H258742   5.783   3.237   0.870  1.3786 -0.0159  0.1269
12443TIP3   OH258743   3.695   0.855   2.243 -0.2969  0.1975  0.0570
12443TIP3    H158744   3.749   0.929   2.270 -2.5528  1.2380  2.1212
12443TIP3    H258745   3.721   0.784   2.301  1.4314 -0.5470 -1.5146
12444TIP3   OH258746   4.438   6.380  15.180 -0.5672  0.5428  0.2152
12444TIP3    H158747   4.506   6.421  15.234 -0.2037  0.5980 -0.2789
12444TIP3    H258748   4.458   6.286  15.184 -1.0794  0.4521  0.9070
12445TIP3   OH258749   1.540   5.173  14.720 -0.4587 -0.3302 -0.3738
12445TIP3    H158750   1.615   5.182  14.778  0.1314 -2.0854 -0.7954
12445TIP3    H258751   1.480   5.114  14.767 -0.9640 -0.0206 -0.6202
12446TIP3   OH258752   2.528   5.414   5.353 -0.2260  0.2540  0.3442
12446TIP3    H158753   2.444   5.455   5.372 -1.3708 -1.0756 -1.5036
12446TIP3    H258754   2.509   5.350   5.284  2.2561 -0.2817  0.0425
12447TIP3   OH258755   3.171   4.593  10.842  0.2007  0.4908 -0.0390
12447TIP3    H158756   3.257   4.553  10.829 -0.1334 -0.8552  1.5717
12447TIP3    H258757   3.188   4.687  10.844  1.5249  0.2783 -0.4182
12448TIP3   OH258758   4.644   3.919  11.663  0.5818  0.1178 -0.2314
12448TIP3    H158759   4.695   3.986  11.708  0.1168  1.3326 -1.4626
12448TIP3    H258760   4.554   3.934  11.692  0.6163 -0.7019  0.3411
12449TIP3   OH258761   4.268   0.919   0.495 -0.3935  0.4463 -0.4434
12449TIP3    H158762   4.268   0.843   0.438 -0.6206 -0.2567  0.4688
12449TIP3    H258763   4.180   0.920   0.533 -0.2431  0.8907 -0.0955
12450TIP3   OH258764   0.639   1.630   2.143 -0.0172  0.2485  0.4208
12450TIP3    H158765   0.604   1.719   2.138 -2.3680 -0.6618 -2.3010
12450TIP3    H258766   0.585   1.586   2.208 -0.7959  0.1097 -0.3011
12451TIP3   OH258767   4.446   3.207   0.607  0.0775 -0.1707 -0.1704
12451TIP3    H158768   4.519   3.209   0.669  0.3011  0.1412 -0.4382
12451TIP3    H258769   4.379   3.263   0.648  0.2560  0.1004 -0.2438
12452TIP3   OH258770   3.488   3.180   3.857 -0.1002 -0.0025 -0.7200
12452TIP3    H158771   3.401   3.216   3.840  1.1564  3.4708 -0.5572
12452TIP3    H258772   3.481   3.088   3.831 -3.5493  0.3335 -1.5027
12453TIP3   OH258773   0.752   2.753   0.837 -0.2128  0.1050  0.2729
12453TIP3    H158774   0.719   2.811   0.769 -1.2945  0.3042  0.9279
12453TIP3    H258775   0.726   2.665   0.807  0.4606  0.0610 -0.1913
12454TIP3   OH258776   1.354   5.273   3.274  0.8335 -0.0435  0.2066
12454TIP3    H158777   1.440   5.272   3.230  0.8710  1.3701  0.2122
12454TIP3    H258778   1.300   5.329   3.219 -0.2118 -1.1910  0.0274
12455TIP3   OH258779   0.689   0.507   4.903 -0.1240  0.0641  0.2394
12455TIP3    H158780   0.761   0.526   4.843  0.3196 -2.6146 -0.1998
12455TIP3    H258781   0.691   0.579   4.967  1.6230  1.1215 -0.9212
12456TIP3   OH258782   2.559   2.813   0.740 -0.3687  0.2532  0.2055
12456TIP3    H158783   2.580   2.900   0.705 -0.2002  0.2560  0.3113
12456TIP3    H258784   2.602   2.810   0.825  0.9241 -0.4995 -0.4403
12457TIP3   OH258785   6.780   3.921   4.632  0.4488  0.3084 -0.0222
12457TIP3    H158786   6.708   3.982   4.644  0.6604  0.5989 -0.2269
12457TIP3    H258787   6.742   3.847   4.584  0.4392  0.7426 -0.6839
12458TIP3   OH258788   2.034   6.205   3.976 -0.4865  0.2129  0.1387
12458TIP3    H158789   1.997   6.232   4.061  0.4258  3.1677 -0.2841
12458TIP3    H258790   1.966   6.228   3.913 -1.9193 -3.5985  0.0461
12459TIP3   OH258791   6.739   6.581  14.230 -0.5955 -0.2332 -0.3176
12459TIP3    H158792   6.763   6.628  14.150  0.5973 -2.2876 -1.2477
12459TIP3    H258793   6.758   6.643  14.300  1.3641  0.5711 -1.4509
12460TIP3   OH258794   5.300   2.908  15.341 -0.0276 -0.6127  0.1677
12460TIP3    H158795   5.309   3.000  15.318  0.1377 -0.2068  1.7641
12460TIP3    H258796   5.206   2.895  15.355 -0.0431 -0.6822  0.0089
12461TIP3   OH258797   0.380   0.067   5.626  0.2991  0.1601 -0.6797
12461TIP3    H158798   0.320  -0.005   5.645 -0.4539  0.6886 -1.0316
12461TIP3    H258799   0.465   0.024   5.612 -0.0997 -0.6401 -0.6851
12462TIP3   OH258800   1.166   5.778  16.945 -0.4362  0.4525  0.1797
12462TIP3    H158801   1.221   5.857  16.942 -0.7806  0.7080  0.4388
12462TIP3    H258802   1.228   5.706  16.935 -0.1210  0.7562 -0.1168
12463TIP3   OH258803   1.842   1.759   0.817 -0.2909 -0.0892 -0.4024
12463TIP3    H158804   1.887   1.783   0.736 -0.5524 -0.6358 -0.7160
12463TIP3    H258805   1.912   1.744   0.881 -0.0499 -0.3692 -0.7283
12464TIP3   OH258806   6.119   0.516  11.841  0.6117  0.4353  0.3621
12464TIP3    H158807   6.205   0.522  11.882  0.7088 -3.4476  1.0795
12464TIP3    H258808   6.137   0.510  11.747  1.1968 -0.6035  0.5267
12465TIP3   OH258809   3.464   5.016  12.279  0.1329  0.2317  0.0414
12465TIP3    H158810   3.463   5.080  12.351 -0.7412  0.6352 -0.3120
12465TIP3    H258811   3.505   4.938  12.317  0.9276  0.8900  0.5726
12466TIP3   OH258812   4.996   0.622  11.128  0.2255  0.6634 -0.4200
12466TIP3    H158813   4.920   0.586  11.174  0.0818 -0.3371 -1.3859
12466TIP3    H258814   4.987   0.590  11.039  2.5443 -0.7403 -0.2446
12467TIP3   OH258815   3.408   1.271   6.405 -0.2035 -0.1637 -0.4576
12467TIP3    H158816   3.475   1.231   6.460 -1.1456  1.0675  1.7317
12467TIP3    H258817   3.332   1.214   6.415 -0.3722  0.0487 -0.5296
12468TIP3   OH258818   5.528   1.969  11.109  0.1600  0.2581 -0.5616
12468TIP3    H158819   5.517   2.045  11.052 -0.5629  0.1472 -0.5895
12468TIP3    H258820   5.590   1.997  11.175  1.3837  0.2339 -1.6630
12469TIP3   OH258821   6.355   5.582  12.670  0.3663 -0.1098  0.3731
12469TIP3    H158822   6.269   5.624  12.674  0.5306  0.3336 -0.5123
12469TIP3    H258823   6.395   5.601  12.755 -1.2153 -2.1305  1.6712
12470TIP3   OH258824   6.777   0.238   2.859 -0.1713 -0.6003  0.4179
12470TIP3    H158825   6.750   0.181   2.931 -1.8194 -1.5836 -0.8914
12470TIP3    H258826   6.707   0.303   2.852 -0.0809 -0.5717 -0.3374
12471TIP3   OH258827   3.461   2.275   5.137  0.6779 -0.5458 -0.4739
12471TIP3    H158828   3.387   2.279   5.078 -0.8475 -0.7923  1.3213
12471TIP3    H258829   3.443   2.342   5.204  1.6909 -1.1063  0.4126
12472TIP3   OH258830   1.717   3.631   5.141 -0.1055  0.1416  1.0832
12472TIP3    H158831   1.723   3.724   5.122 -2.7961  0.2829  0.5148
12472TIP3    H258832   1.745   3.623   5.233 -0.3046  1.5789  1.2896
12473TIP3   OH258833   3.520   1.795  13.601 -0.0673 -0.2035  0.3001
12473TIP3    H158834   3.425   1.790  13.599 -0.0809  0.1671 -0.2504
12473TIP3    H258835   3.541   1.830  13.688 -0.4856  0.5985  0.0859
12474TIP3   OH258836   2.595   4.238  15.176  0.3725  0.2844 -0.6479
12474TIP3    H158837   2.521   4.281  15.133  0.6180  0.0967 -1.2810
12474TIP3    H258838   2.561   4.209  15.261 -0.3611 -0.0389 -1.0380
12475TIP3   OH258839   0.449   3.714  11.777 -0.7016  1.2485  0.6645
12475TIP3    H158840   0.503   3.778  11.730  0.5113 -1.0578 -1.2805
12475TIP3    H258841   0.485   3.714  11.866  1.6112  0.8156 -0.2039
12476TIP3   OH258842   3.308   3.554  14.112 -0.1196 -0.1763 -0.0271
12476TIP3    H158843   3.308   3.643  14.148 -0.5015 -0.2101  0.0633
12476TIP3    H258844   3.231   3.551  14.056 -1.1288 -0.9805  1.3398
12477TIP3   OH258845   1.242   6.024  14.537 -0.3757 -0.3060  0.1955
12477TIP3    H158846   1.216   6.084  14.606 -0.9867 -1.0732  0.6416
12477TIP3    H258847   1.182   6.043  14.464  1.3512  1.6909 -0.8060
12478TIP3   OH258848   2.334   2.652   4.895  0.2673  0.2579  0.2973
12478TIP3    H158849   2.325   2.567   4.851 -1.3125  1.6368 -2.2428
12478TIP3    H258850   2.426   2.674   4.886  0.6252 -0.9726  0.6578
12479TIP3   OH258851   5.061   2.799  15.398  0.2998 -0.1217  0.3708
12479TIP3    H158852   5.033   2.885  15.369  1.4317  0.8421  1.9763
12479TIP3    H258853   4.993   2.770  15.459 -0.0709 -0.3696 -0.1545
12480TIP3   OH258854   1.857   1.434   1.023  0.6999  0.3805 -0.1443
12480TIP3    H158855   1.789   1.419   0.958  1.4507  1.0491 -1.1220
12480TIP3    H258856   1.939   1.419   0.975  1.2655  0.7954  0.6790
12481TIP3   OH258857   5.133   0.950   1.076 -0.5443  0.2017  0.1266
12481TIP3    H158858   5.156   1.042   1.090 -1.5269  0.4626  0.1021
12481TIP3    H258859   5.138   0.939   0.981  3.3735 -0.8331  0.2792
12482TIP3   OH258860   6.567   1.640  12.212 -0.2012 -0.3453  0.1262
12482TIP3    H158861   6.575   1.645  12.116 -0.1520 -0.5389  0.1195
12482TIP3    H258862   6.503   1.707  12.234  1.0194  0.8724  0.1227
12483TIP3   OH258863   0.836   1.382  11.661  0.1153  0.0974 -0.2341
12483TIP3    H158864   0.903   1.322  11.628 -0.0204 -0.7353  0.9470
12483TIP3    H258865   0.753   1.341  11.638 -0.0200  1.0235 -1.5026
12484TIP3   OH258866   1.087   0.351  11.996  0.0110 -0.0587  0.4992
12484TIP3    H158867   1.016   0.376  11.938 -0.0423 -2.1417 -0.4421
12484TIP3    H258868   1.167   0.381  11.952 -0.2138  2.3812  1.6122
12485TIP3   OH258869   4.372   5.654  11.621  0.6332 -0.4138 -0.6786
12485TIP3    H158870   4.394   5.579  11.676 -1.8770  0.7254  2.1326
12485TIP3    H258871   4.277   5.648  11.609  0.8517  0.3710 -3.5577
12486TIP3   OH258872   3.990   5.518   3.104  0.1420  0.2665 -1.0705
12486TIP3    H158873   3.972   5.445   3.044 -0.7744  0.4717 -1.0544
12486TIP3    H258874   4.069   5.491   3.151 -2.2526 -2.5487  1.7752
12487TIP3   OH258875   4.375   4.064   4.943  0.2235  0.2552  0.0150
12487TIP3    H158876   4.434   4.024   5.007  2.0493  2.7229  0.0321
12487TIP3    H258877   4.433   4.112   4.884 -1.5550 -0.3126 -2.3478
12488TIP3   OH258878   3.176   5.793  16.477  0.4574 -0.0315 -0.1732
12488TIP3    H158879   3.136   5.768  16.560  0.0247 -0.2949 -0.4529
12488TIP3    H258880   3.113   5.765  16.411  1.1668 -0.5673 -0.6369
12489TIP3   OH258881   4.855   4.954   4.756  0.1529 -0.1852  0.4469
12489TIP3    H158882   4.790   4.978   4.690 -0.4554 -2.6980  0.0108
12489TIP3    H258883   4.936   4.940   4.706  0.0336 -0.7922  0.4190
12490TIP3   OH258884   1.670   3.297  10.197 -0.0829 -0.5567 -0.1981
12490TIP3    H158885   1.583   3.259  10.188 -0.6067  0.6503 -0.5332
12490TIP3    H258886   1.656   3.374  10.252  0.1761  1.3879 -2.6492
12491TIP3   OH258887   6.799   0.586   4.788  0.0111 -0.1156 -0.0870
12491TIP3    H158888   6.845   0.641   4.725 -1.0710 -0.7782 -1.5254
12491TIP3    H258889   6.805   0.634   4.870  1.2011  0.9396 -0.7395
12492TIP3   OH258890   2.947   4.690   4.784  0.0486 -0.2690  0.2577
12492TIP3    H158891   2.985   4.602   4.786  2.1568  0.4983 -1.3629
12492TIP3    H258892   2.921   4.703   4.693  1.6456  1.4581 -0.0145
12493TIP3   OH258893   4.404   4.524  10.802  0.8306  0.1056  0.2542
12493TIP3    H158894   4.380   4.609  10.838  1.7441 -0.3899  2.1506
12493TIP3    H258895   4.459   4.544  10.726 -0.4232  1.1855 -0.4088
12494TIP3   OH258896   3.575   5.240  14.658 -0.2532 -0.7203 -0.8967
12494TIP3    H158897   3.606   5.317  14.705  0.0843 -0.5522 -1.3867
12494TIP3    H258898   3.539   5.183  14.726  0.9079 -0.8129 -0.3346
12495TIP3   OH258899   0.112   5.037  13.899  0.1350 -0.3376  0.2804
12495TIP3    H158900   0.156   5.121  13.909  0.5306 -0.3271 -1.2291
12495TIP3    H258901   0.023   5.059  13.871  0.2986 -0.4162 -0.3106
12496TIP3   OH258902   3.187   3.971  12.048 -0.0132  0.2163 -1.0462
12496TIP3    H158903   3.118   3.960  11.982 -2.2521  0.4222  1.1040
12496TIP3    H258904   3.198   4.066  12.055 -2.2083  0.4215  1.0572
12497TIP3   OH258905   6.231   1.095   4.248  0.2845 -0.1215 -0.4483
12497TIP3    H158906   6.277   1.178   4.262  0.1182  0.1107 -1.2283
12497TIP3    H258907   6.253   1.042   4.325  1.3569  0.2103 -0.5061
12498TIP3   OH258908   4.512   0.780   0.855  0.1643  0.6789 -0.2064
12498TIP3    H158909   4.566   0.716   0.901  0.5216 -0.2247 -1.8004
12498TIP3    H258910   4.423   0.746   0.864  0.3166  0.0987 -0.7748
12499TIP3   OH258911   3.860   4.637  12.493  0.4856  0.6247 -0.6628
12499TIP3    H158912   3.936   4.642  12.435  0.4496 -0.0515 -0.7762
12499TIP3    H258913   3.843   4.543  12.503  0.0688  0.7504 -0.1075
12500TIP3   OH258914   2.307   5.832   0.476 -0.0248 -0.4776 -0.0052
12500TIP3    H158915   2.379   5.805   0.533  0.8179  0.2567 -0.6938
12500TIP3    H258916   2.257   5.894   0.530 -0.6293 -1.5843  0.7533
12501TIP3   OH258917   5.074   2.153   4.698 -0.3618  0.5427  0.3386
12501TIP3    H158918   5.023   2.080   4.733  0.6406  0.7950  2.5058
12501TIP3    H258919   5.154   2.153   4.750  1.2817  1.0000 -2.0346
12502TIP3   OH258920   4.912   6.542   3.195 -0.4804  0.3972 -0.6487
12502TIP3    H158921   4.987   6.579   3.242 -1.0896 -0.0522  0.7429
12502TIP3    H258922   4.948   6.466   3.149  0.0326  0.5397 -0.4940
12503TIP3   OH258923   1.858   6.438   2.836 -0.3123 -0.1769  0.3005
12503TIP3    H158924   1.872   6.521   2.879  0.3314  0.8595 -1.7549
12503TIP3    H258925   1.919   6.377   2.879  0.0242  0.6999  1.0767
12504TIP3   OH258926   4.345   3.202  11.951  0.3032  0.3821 -0.0921
12504TIP3    H158927   4.284   3.227  11.881  1.3943 -1.3199 -1.7321
12504TIP3    H258928   4.429   3.193  11.907  1.7404  2.2640  2.0465
12505TIP3   OH258929   5.325   2.027  15.872 -0.5780  0.2104 -0.3330
12505TIP3    H158930   5.286   1.942  15.851 -1.7563  0.6098  0.1621
12505TIP3    H258931   5.301   2.083  15.798  0.4988  0.0275 -0.8275
12506TIP3   OH258932   2.743   2.793  15.155  0.2878  0.0993 -0.7565
12506TIP3    H158933   2.743   2.715  15.210  1.1775 -0.3266 -1.3425
12506TIP3    H258934   2.794   2.857  15.205  0.1327  0.0862 -0.5796
12507TIP3   OH258935   1.313   6.133   1.285 -0.2048  0.2360  0.1784
12507TIP3    H158936   1.224   6.106   1.310 -0.6327  1.2294 -0.2547
12507TIP3    H258937   1.325   6.097   1.197  0.6155 -1.6623  0.9944
12508TIP3   OH258938   2.369   0.187   1.230 -0.0676  0.7168 -0.3417
12508TIP3    H158939   2.357   0.250   1.158  0.3586  0.3325 -0.7566
12508TIP3    H258940   2.460   0.159   1.222 -0.0269  0.6422  0.3367
12509TIP3   OH258941   4.487   1.022  12.575 -0.3154 -0.2796 -0.3778
12509TIP3    H158942   4.557   0.987  12.519  1.5707  0.9887  1.0181
12509TIP3    H258943   4.442   1.086  12.519  0.2081 -0.4912 -1.0640
12510TIP3   OH258944   2.432   0.921  14.429  0.1218 -0.4669  0.3723
12510TIP3    H158945   2.491   0.968  14.488 -0.6413  0.3923  0.4723
12510TIP3    H258946   2.474   0.928  14.343  0.0431  0.3885  0.3926
12511TIP3   OH258947   2.284   3.871   1.698 -0.5272  0.1088  0.1738
12511TIP3    H158948   2.277   3.784   1.735 -1.1881 -0.8803 -2.0906
12511TIP3    H258949   2.330   3.858   1.615  1.3702  2.2614  0.7820
12512TIP3   OH258950   2.689   3.829  14.065 -0.2412 -0.0524  0.3466
12512TIP3    H158951   2.685   3.849  13.971  0.6083  0.3439  0.3829
12512TIP3    H258952   2.605   3.788  14.085 -0.1615 -0.7866 -0.7403
12513TIP3   OH258953   1.747   0.785   0.796 -0.2634 -0.4230  0.1551
12513TIP3    H158954   1.747   0.847   0.868 -0.3044 -1.8221  1.4016
12513TIP3    H258955   1.779   0.703   0.834  0.4077 -1.0302 -1.5775
12514TIP3   OH258956   4.353   4.721  13.288 -0.4315 -0.0485 -0.1027
12514TIP3    H158957   4.258   4.726  13.285 -0.3763  0.5752 -1.6676
12514TIP3    H258958   4.380   4.708  13.197  0.9488 -1.0791  0.4064
12515TIP3   OH258959   2.979   6.622   2.792  0.5150 -0.0094 -0.5687
12515TIP3    H158960   2.972   6.579   2.878  0.7563 -3.1114 -1.9600
12515TIP3    H258961   3.072   6.624   2.773  0.4436  0.3707 -0.9023
12516TIP3   OH258962   0.992   0.323   6.266 -0.4064 -0.0845  0.3619
12516TIP3    H158963   1.006   0.242   6.218  1.7077  0.4764 -0.0828
12516TIP3    H258964   1.064   0.380   6.238  0.1458  0.7608  3.1272
12517TIP3   OH258965   4.802   0.204  14.034 -0.0496 -0.5432 -0.0068
12517TIP3    H158966   4.716   0.180  14.068  0.4067 -2.6375 -0.2451
12517TIP3    H258967   4.800   0.180  13.942  0.5908  0.0078 -0.1784
12518TIP3   OH258968   4.176   0.214  13.381 -0.1512 -0.0543  0.4183
12518TIP3    H158969   4.200   0.255  13.464 -1.1431  0.4940  0.4544
12518TIP3    H258970   4.091   0.253  13.359  0.4137  0.3341 -1.2051
12519TIP3   OH258971   4.107   5.857   1.401  0.1750  0.3938 -0.0395
12519TIP3    H158972   4.160   5.898   1.470 -0.3121  2.2350 -0.6789
12519TIP3    H258973   4.034   5.918   1.389 -1.1357 -1.1908 -0.4141
12520TIP3   OH258974   1.205   2.750  15.108  0.0055 -0.2729 -0.4518
12520TIP3    H158975   1.273   2.760  15.175  0.1487 -0.1378 -0.6164
12520TIP3    H258976   1.148   2.826  15.122  0.3135  0.0276 -0.8021
12521TIP3   OH258977   6.799   5.151  14.712 -0.1270  0.0275  0.1021
12521TIP3    H158978   6.800   5.178  14.803 -3.0418 -0.5177  0.3858
12521TIP3    H258979   6.799   5.056  14.714  2.7548 -0.0755 -0.6448
12522TIP3   OH258980   1.946   2.919   5.002 -0.1874  0.0341  0.5063
12522TIP3    H158981   1.856   2.933   4.971 -0.6470  0.1381  1.8013
12522TIP3    H258982   1.997   2.906   4.923 -0.8124  2.8267 -0.4509
12523TIP3   OH258983   0.204   5.194   0.501 -0.0690  0.4572 -0.1628
12523TIP3    H158984   0.269   5.130   0.530 -0.6516  0.5213  1.3809
12523TIP3    H258985   0.227   5.213   0.410 -0.2987 -2.4811 -0.9192
12524TIP3   OH258986   6.177   2.422  10.667  0.5910  0.0629  0.4526
12524TIP3    H158987   6.130   2.428  10.583  1.6550 -2.1040 -0.3723
12524TIP3    H258988   6.267   2.445  10.646  0.6997  0.3217  1.1848
12525TIP3   OH258989   3.063   0.615   4.995  0.4119  0.3271 -0.4885
12525TIP3    H158990   2.988   0.603   4.936 -0.0779  0.6485  0.0522
12525TIP3    H258991   3.045   0.556   5.068  0.6245  0.5013 -0.2952
12526TIP3   OH258992   0.780   2.533  15.475 -0.6870 -0.1855 -0.0212
12526TIP3    H158993   0.756   2.624  15.457  0.3266 -0.0332 -0.6917
12526TIP3    H258994   0.821   2.502  15.394 -0.4147 -1.0279  0.4229
12527TIP3   OH258995   5.458   2.540  14.671 -0.4596 -0.0896  0.4431
12527TIP3    H158996   5.511   2.614  14.640  1.2348 -1.9817 -1.5186
12527TIP3    H258997   5.369   2.562  14.644 -0.1285  1.6087  0.6489
12528TIP3   OH258998   6.529   1.760   6.159  0.0875  0.1697 -0.0893
12528TIP3    H158999   6.565   1.846   6.140 -1.2034  0.8698  0.5125
12528TIP3    H259000   6.600   1.712   6.200  0.7704  0.9939 -0.2880
12529TIP3   OH259001   1.357   1.718  13.876 -0.3076  0.2577  0.2139
12529TIP3    H159002   1.390   1.749  13.792  0.1282  0.0646  0.3116
12529TIP3    H259003   1.299   1.788  13.907  2.8194  2.3951  1.7787
12530TIP3   OH259004   3.417   1.211   5.030 -0.3477 -0.3447  0.1464
12530TIP3    H159005   3.388   1.264   4.956 -0.9162 -0.4560  0.2842
12530TIP3    H259006   3.381   1.124   5.013 -2.3736  0.1422  1.6393
12531TIP3   OH259007   4.240   3.321   0.781 -0.1816  0.2355  0.3173
12531TIP3    H159008   4.242   3.289   0.871 -0.4070 -0.1740  0.1769
12531TIP3    H259009   4.292   3.401   0.784  0.5168 -0.2175  0.6425
12532TIP3   OH259010   0.989   0.004  15.910  0.1100  0.3758  0.2085
12532TIP3    H159011   0.921   0.021  15.845  0.1277  0.5226  0.2301
12532TIP3    H259012   1.070   0.032  15.868  0.1674  0.1307  0.1542
12533TIP3   OH259013   4.343   4.279  16.974 -0.0586 -0.0407 -0.4393
12533TIP3    H159014   4.394   4.231  16.909  0.3426  1.0097 -0.9312
12533TIP3    H259015   4.258   4.235  16.976 -0.0517 -0.1345 -1.6421
12534TIP3   OH259016   5.442   1.886   3.594  0.0590 -0.5922 -0.0303
12534TIP3    H159017   5.395   1.815   3.636 -0.2153  0.3630  1.3278
12534TIP3    H259018   5.429   1.871   3.500 -0.5491 -1.9329  0.2463
12535TIP3   OH259019   6.120   0.804  16.533 -0.7833 -0.4898  0.0069
12535TIP3    H159020   6.117   0.895  16.504 -1.1214  0.0996  1.7855
12535TIP3    H259021   6.154   0.756  16.458 -0.5066  1.1125 -0.9288
12536TIP3   OH259022   2.997   3.152  16.221  0.5634  0.0873  0.3116
12536TIP3    H159023   3.011   3.059  16.237  0.4938 -0.2793 -1.4984
12536TIP3    H259024   2.904   3.166  16.235  0.9173  0.3918  2.7117
12537TIP3   OH259025   5.073   1.758   1.720 -0.4371 -0.7150 -0.1514
12537TIP3    H159026   5.122   1.833   1.753 -1.5519  0.5440 -1.2304
12537TIP3    H259027   5.139   1.691   1.703  0.7073  0.3683 -0.0904
12538TIP3   OH259028   0.632   1.569   0.460 -0.2856  0.3433 -0.0604
12538TIP3    H159029   0.545   1.589   0.426 -1.3260 -1.8165  1.1589
12538TIP3    H259030   0.687   1.560   0.382 -1.4077  0.6312 -0.9046
12539TIP3   OH259031   6.021   5.090  16.340 -0.3085  0.3063 -0.0669
12539TIP3    H159032   6.047   5.082  16.431  0.2749 -1.2722 -0.3379
12539TIP3    H259033   6.002   5.001  16.312 -0.6886  0.7802 -1.4360
12540TIP3   OH259034   2.864   4.605  12.618  0.1748 -0.0112 -0.0465
12540TIP3    H159035   2.910   4.650  12.547  0.0536 -0.5653 -0.4797
12540TIP3    H259036   2.789   4.564  12.576  0.1458 -0.4134  0.3846
12541TIP3   OH259037   4.169   0.520   5.057 -0.1258  0.0553 -0.3007
12541TIP3    H159038   4.083   0.562   5.055 -0.4561 -0.5823  0.1225
12541TIP3    H259039   4.151   0.430   5.085  0.6896 -0.0577 -0.1145
12542TIP3   OH259040   1.749   0.870   5.221 -0.4081  0.0137 -0.1855
12542TIP3    H159041   1.766   0.783   5.256 -1.0384 -0.6409 -1.4392
12542TIP3    H259042   1.695   0.855   5.144  2.6581  1.1556 -2.8106
12543TIP3   OH259043   1.589   5.268   4.702  0.3091 -0.2143 -0.1463
12543TIP3    H159044   1.643   5.311   4.635 -1.5793 -0.6168 -2.0701
12543TIP3    H259045   1.506   5.252   4.657 -1.1866 -0.2075  2.4616
12544TIP3   OH259046   3.565   0.271   3.941  0.0324  0.1287 -0.1723
12544TIP3    H159047   3.656   0.278   3.970 -0.1959 -0.6263  0.7966
12544TIP3    H259048   3.562   0.189   3.892 -0.3666 -0.4721  0.8249
12545TIP3   OH259049   4.141   3.808   0.648 -0.0107  0.0046  0.1439
12545TIP3    H159050   4.060   3.838   0.689  0.2972  0.0617  0.7138
12545TIP3    H259051   4.175   3.885   0.602 -0.1483  0.0452  0.1099
12546TIP3   OH259052   1.052   5.119  11.729 -0.1552 -0.2241  0.5064
12546TIP3    H159053   1.033   5.097  11.638 -0.2529 -2.3707  0.9984
12546TIP3    H259054   0.993   5.191  11.749  0.0405  0.4594 -1.1802
12547TIP3   OH259055   6.279   1.361  16.841  0.3459  0.2950 -0.7029
12547TIP3    H159056   6.373   1.346  16.837  0.2944 -0.2850  0.1564
12547TIP3    H259057   6.265   1.405  16.925  0.0414  1.9645 -1.5775
12548TIP3   OH259058   4.174   6.713  12.805 -0.8227  0.0540 -0.0857
12548TIP3    H159059   4.089   6.746  12.776 -0.8316 -0.1382 -0.2844
12548TIP3    H259060   4.180   6.739  12.896 -0.6018  1.0642 -0.3733
12549TIP3   OH259061   5.652   4.799  16.728 -0.8897 -0.4876  0.2437
12549TIP3    H159062   5.685   4.820  16.641  0.3503  0.0320  0.8207
12549TIP3    H259063   5.716   4.739  16.766  0.2438  1.6166  1.8948
12550TIP3   OH259064   2.241   3.400  12.148  0.0877  0.6918 -0.3925
12550TIP3    H159065   2.236   3.444  12.233 -0.8098  2.0319 -1.1040
12550TIP3    H259066   2.230   3.470  12.084 -1.5592 -0.5751 -1.5763
12551TIP3   OH259067   2.576   5.799  10.891  0.1790  0.0563  0.4149
12551TIP3    H159068   2.537   5.819  10.806 -1.2469 -0.7482  0.8473
12551TIP3    H259069   2.668   5.823  10.881  0.2445 -0.8052 -1.6404
12552TIP3   OH259070   5.723   1.024   2.157  0.3123  0.2136 -0.0819
12552TIP3    H159071   5.714   1.035   2.252  0.0162  1.3328 -0.2277
12552TIP3    H259072   5.635   1.039   2.123  0.4697  0.0700 -0.5574
12553TIP3   OH259073   3.985   6.496   3.468  0.4459  0.2541 -0.2932
12553TIP3    H159074   4.051   6.469   3.404 -0.1553  0.3440 -0.9739
12553TIP3    H259075   3.906   6.510   3.416  0.0918  0.8953  0.3981
12554TIP3   OH259076   1.776   3.311  14.870 -0.2373  0.1964  0.6246
12554TIP3    H159077   1.844   3.265  14.919  1.8800 -0.2531 -2.4742
12554TIP3    H259078   1.720   3.241  14.836  0.1469  0.2414 -0.1199
12555TIP3   OH259079   3.498   4.526  14.449 -0.1206  0.3627 -0.1590
12555TIP3    H159080   3.538   4.546  14.365  2.9220  4.1872  1.8847
12555TIP3    H259081   3.520   4.434  14.466  3.1728  0.7708 -1.6226
12556TIP3   OH259082   6.501   2.621  12.356  0.3067  0.8559 -0.1005
12556TIP3    H159083   6.593   2.600  12.336 -0.2144 -1.9559  0.0496
12556TIP3    H259084   6.461   2.635  12.270  0.3958 -0.3032 -0.3477
12557TIP3   OH259085   4.362   4.682  12.051  0.0622 -0.1625  0.2224
12557TIP3    H159086   4.334   4.601  12.094  1.1858  0.0517  1.4028
12557TIP3    H259087   4.322   4.752  12.103  0.0004  0.0629 -0.1280
12558TIP3   OH259088   5.386   2.505   1.013 -0.0377 -0.2284  0.0311
12558TIP3    H159089   5.332   2.565   0.962  0.0765 -0.6811 -0.6465
12558TIP3    H259090   5.476   2.532   0.995 -0.0136  0.0205  0.5180
12559TIP3   OH259091   4.007   4.829   6.025 -0.1467  0.3780 -0.2186
12559TIP3    H159092   4.011   4.785   6.110  1.8124  0.3670 -0.2721
12559TIP3    H259093   3.988   4.759   5.963 -2.9546  0.5769  0.2692
12560TIP3   OH259094   4.483   0.707  12.418 -0.1802 -0.7127 -0.2531
12560TIP3    H159095   4.445   0.764  12.351  0.3666 -1.0162 -0.8326
12560TIP3    H259096   4.539   0.763  12.470 -0.8471 -0.4101  0.1532
12561TIP3   OH259097   2.121   2.873  12.205  0.4074  0.3383  0.0411
12561TIP3    H159098   2.034   2.833  12.207  0.3414  0.4338 -0.8115
12561TIP3    H259099   2.104   2.966  12.192  0.6433  0.3659 -0.0728
12562TIP3   OH259100   4.513   3.142   2.495 -0.2181  0.1362  0.0252
12562TIP3    H159101   4.420   3.163   2.495 -0.0439  1.0044 -1.0575
12562TIP3    H259102   4.555   3.216   2.539  0.0794  0.4660 -0.7825
12563TIP3   OH259103   6.119   1.179   0.518  0.6798  0.5506 -0.5180
12563TIP3    H159104   6.033   1.205   0.552  2.2285  2.2462  2.5295
12563TIP3    H259105   6.134   1.236   0.443 -0.6494  0.5034 -0.8419
12564TIP3   OH259106   1.065   5.688   3.296  0.3244  0.3134 -0.6726
12564TIP3    H159107   1.027   5.773   3.318  1.0967  0.1388  1.6840
12564TIP3    H259108   1.100   5.699   3.208 -1.7009  1.6525 -1.3868
12565TIP3   OH259109   4.344   5.548  15.682 -0.2725 -0.3062 -0.2788
12565TIP3    H159110   4.321   5.630  15.726  1.2196  0.4786 -0.9017
12565TIP3    H259111   4.259   5.509  15.659 -1.0297  1.8060 -1.3436
12566TIP3   OH259112   0.403   5.031  14.107  0.7773 -0.7275 -0.3245
12566TIP3    H159113   0.316   5.019  14.145  1.7835 -2.0699  1.8106
12566TIP3    H259114   0.409   5.125  14.088 -0.8766 -0.5044  0.1183
12567TIP3   OH259115   0.705   0.541   1.066 -0.4050 -0.4643 -0.5727
12567TIP3    H159116   0.633   0.523   1.126  1.6508 -0.5066  2.0658
12567TIP3    H259117   0.721   0.635   1.074  0.3636 -0.5918 -0.4708
12568TIP3   OH259118   5.753   3.538  13.733  1.1494 -0.3010  0.0491
12568TIP3    H159119   5.835   3.533  13.782  0.4315  0.0253  1.3329
12568TIP3    H259120   5.745   3.452  13.691  4.1737  0.9355 -3.6029
12569TIP3   OH259121   0.668   0.548   0.519 -0.3996 -0.3945  0.1415
12569TIP3    H159122   0.595   0.608   0.537 -1.2062 -1.3573  0.1962
12569TIP3    H259123   0.734   0.602   0.477 -1.6922  0.2462 -1.1526
12570TIP3   OH259124   5.915   1.212   2.411  0.0769  0.2747  0.0249
12570TIP3    H159125   5.852   1.284   2.404 -0.7500 -0.4491 -0.2358
12570TIP3    H259126   5.991   1.241   2.360 -0.5195  0.6847 -0.6532
12571TIP3   OH259127   0.881   5.767  12.413 -0.2948  0.2076 -0.6721
12571TIP3    H159128   0.830   5.768  12.332 -0.1534  0.7494 -0.7597
12571TIP3    H259129   0.817   5.780  12.482 -0.4433 -0.4654 -0.6772
12572TIP3   OH259130   0.555   4.777  14.638 -0.3086  0.1771 -0.1819
12572TIP3    H159131   0.563   4.872  14.648  2.5030 -0.1052  1.3502
12572TIP3    H259132   0.485   4.753  14.699 -0.4123  1.1657  0.1108
12573TIP3   OH259133   4.465   0.888  12.206 -0.4440 -0.4226  0.3944
12573TIP3    H159134   4.375   0.854  12.210 -0.2732 -1.0898 -0.8418
12573TIP3    H259135   4.457   0.973  12.163 -0.3941 -0.8993 -0.5769
12574TIP3   OH259136   5.443   2.482   0.654  0.5596 -0.0687 -0.3604
12574TIP3    H159137   5.451   2.558   0.596  0.5574  2.4594  2.6724
12574TIP3    H259138   5.352   2.454   0.644  0.0734  1.4240 -0.4106
12575TIP3   OH259139   3.139   6.512   3.889  0.3579 -0.1275 -0.0513
12575TIP3    H159140   3.214   6.526   3.831  0.9413 -1.0173  0.4793
12575TIP3    H259141   3.165   6.551   3.972  0.5731 -1.1539  0.3749
12576TIP3   OH259142   3.128   4.531  15.532  0.6185 -0.1628  0.4495
12576TIP3    H159143   3.219   4.506  15.519  0.9904  0.2875  1.9611
12576TIP3    H259144   3.087   4.453  15.569  0.4004 -0.3315 -0.1349
12577TIP3   OH259145   3.038   1.857   2.236  0.1072 -0.4184  0.1169
12577TIP3    H159146   3.053   1.763   2.248  1.4458 -0.0266  2.0980
12577TIP3    H259147   3.126   1.893   2.227 -0.3151  0.7859  0.6948
12578TIP3   OH259148   0.440   0.251   1.094 -0.9031  0.0906 -0.0570
12578TIP3    H159149   0.456   0.156   1.091 -0.7795  0.0568  1.1779
12578TIP3    H259150   0.359   0.263   1.046 -1.4857 -0.7917  0.6604
12579TIP3   OH259151   2.027   0.344   1.016 -0.2738 -0.6392  0.6194
12579TIP3    H159152   1.986   0.337   0.931 -0.2605 -0.7021  0.6180
12579TIP3    H259153   2.027   0.255   1.051  0.5317 -0.7726  0.3052
12580TIP3   OH259154   4.605   2.667   5.806  0.5347 -0.0844 -0.3958
12580TIP3    H159155   4.573   2.705   5.888  0.2700  1.5999 -1.2206
12580TIP3    H259156   4.617   2.743   5.748  1.5300 -1.1434 -1.6401
12581TIP3   OH259157   0.654   1.211   5.298 -0.4071  0.3137 -0.3281
12581TIP3    H159158   0.703   1.211   5.380 -0.9540 -0.5067  0.0128
12581TIP3    H259159   0.626   1.120   5.286 -0.3075  0.4150 -1.4438
12582TIP3   OH259160   6.441   0.474  15.898  0.1199  0.5893  0.0986
12582TIP3    H159161   6.495   0.549  15.922  1.2788 -0.2866  0.2968
12582TIP3    H259162   6.407   0.495  15.811 -0.5373  1.8448  0.6267
12583TIP3   OH259163   0.239   1.100  13.299  0.0357 -0.8139  0.1128
12583TIP3    H159164   0.227   1.005  13.295  1.3728 -0.9730 -1.8310
12583TIP3    H259165   0.321   1.115  13.252 -0.8686  1.4395 -0.8719
12584TIP3   OH259166   6.510   0.700   1.161 -0.1989 -0.2978 -0.0173
12584TIP3    H159167   6.461   0.632   1.114  0.2167  0.1567 -1.1285
12584TIP3    H259168   6.593   0.706   1.114  0.7359 -0.6863  1.5330
12585TIP3   OH259169   3.187   2.792  16.363  0.1388  0.0574  0.3469
12585TIP3    H159170   3.133   2.834  16.296 -0.5065 -0.3948  0.5752
12585TIP3    H259171   3.146   2.817  16.446  3.5625  4.6046  1.0573
12586TIP3   OH259172   0.070   2.168  17.165  0.1993  0.5344  0.0771
12586TIP3    H159173   0.029   2.167  17.251  0.3065  0.1504  0.1232
12586TIP3    H259174   0.075   2.076  17.138  0.7655  0.5920 -0.0484
12587TIP3   OH259175   1.362   6.518  15.507 -0.3974 -0.2166  0.2099
12587TIP3    H159176   1.373   6.571  15.585  0.4913  1.3443 -0.9299
12587TIP3    H259177   1.319   6.438  15.538  0.2676  0.1983  2.3251
12588TIP3   OH259178   3.966   4.334  12.210 -0.8993  0.0743 -0.2490
12588TIP3    H159179   3.888   4.307  12.258  0.1159  1.4569  2.3837
12588TIP3    H259180   3.939   4.414  12.164 -1.2251  0.1960  0.1427
12589TIP3   OH259181   4.269   6.556   3.723 -0.0849  0.3915  0.3785
12589TIP3    H159182   4.275   6.488   3.656 -0.2304 -0.7075  1.4420
12589TIP3    H259183   4.227   6.629   3.679 -0.6814 -0.5005 -0.5871
12590TIP3   OH259184   3.914   4.292   4.484 -0.1634 -0.1397 -0.3341
12590TIP3    H159185   3.985   4.330   4.431 -0.6116  0.1629 -0.7200
12590TIP3    H259186   3.954   4.214   4.524  0.3379 -0.0743 -0.6934
12591TIP3   OH259187   0.540   0.156  12.686 -0.5604  0.0468 -0.5722
12591TIP3    H159188   0.494   0.237  12.711  0.5935  0.0437  1.7783
12591TIP3    H259189   0.506   0.090  12.745 -0.9633 -1.0837 -2.0078
12592TIP3   OH259190   3.061   6.034  11.874 -0.0813  0.5053 -0.3606
12592TIP3    H159191   3.034   5.988  11.953  3.1622 -0.4941  0.3164
12592TIP3    H259192   3.053   5.970  11.804  2.6184 -0.6156  0.2576
12593TIP3   OH259193   2.775   1.891   6.770  0.5102  0.1891  0.3063
12593TIP3    H159194   2.737   1.972   6.802 -0.2588 -0.6037  1.4832
12593TIP3    H259195   2.700   1.837   6.745  1.0348  0.7171 -2.9153
12594TIP3   OH259196   2.021   6.147  13.372  0.7295  0.0893  0.4106
12594TIP3    H159197   1.952   6.086  13.346 -0.3822  0.8463  1.4524
12594TIP3    H259198   2.098   6.092  13.387 -0.1555 -1.0246  0.9983
12595TIP3   OH259199   2.069   2.610   6.428 -0.1829  0.6680  0.0811
12595TIP3    H159200   2.008   2.595   6.501  0.4287  2.0750  0.9259
12595TIP3    H259201   2.151   2.571   6.457  0.2601  1.8606  0.4857
12596TIP3   OH259202   3.364   5.351  16.220  0.4215 -0.2602  0.2324
12596TIP3    H159203   3.433   5.394  16.169  0.7908  0.4114  1.2627
12596TIP3    H259204   3.399   5.347  16.309 -0.3343 -1.1320  0.5091
12597TIP3   OH259205   1.623   0.498  12.877  0.5779 -0.2995 -0.0760
12597TIP3    H159206   1.702   0.544  12.908  1.2562 -0.4715 -1.4664
12597TIP3    H259207   1.612   0.529  12.787 -0.7051 -0.6178 -0.0405
12598TIP3   OH259208   5.816   1.041   2.798  0.2504 -0.4131  0.5289
12598TIP3    H159209   5.780   1.130   2.790  0.3917 -0.3634  0.4386
12598TIP3    H259210   5.881   1.036   2.729 -0.8386 -1.1159 -0.4864
12599TIP3   OH259211   5.362   0.746   4.738 -0.1326 -0.5327  0.3145
12599TIP3    H159212   5.295   0.716   4.799 -0.7048 -1.0769 -0.5685
12599TIP3    H259213   5.318   0.810   4.682 -0.2994 -1.8656 -1.1301
12600TIP3   OH259214   1.226   0.310  15.890 -0.2493 -0.5652  0.6454
12600TIP3    H159215   1.301   0.345  15.843 -1.1895  1.7761  0.7803
12600TIP3    H259216   1.227   0.216  15.870  0.3553  0.0442 -2.6673
12601TIP3   OH259217   0.095   4.037   5.508  0.3937  0.2061  0.0842
12601TIP3    H159218   0.105   4.086   5.590 -0.0332  0.6493 -0.1223
12601TIP3    H259219   0.066   3.950   5.536  1.0201  0.1078  0.4471
12602TIP3   OH259220   2.572   2.990  15.760 -0.6572  0.3233  1.0001
12602TIP3    H159221   2.648   3.010  15.705 -0.1510  1.0272  1.9468
12602TIP3    H259222   2.512   2.943  15.701  0.0558  0.6836 -0.0379
12603TIP3   OH259223   4.577   0.918  15.310  0.2100 -0.3733 -0.3865
12603TIP3    H159224   4.510   0.889  15.372  1.2485 -0.2935  0.8135
12603TIP3    H259225   4.654   0.865  15.331  0.3806 -0.8733 -2.1237
12604TIP3   OH259226   1.187   0.833   2.002 -0.8653 -0.2984 -0.3312
12604TIP3    H159227   1.159   0.743   2.013  0.5501 -0.7173  0.1076
12604TIP3    H259228   1.172   0.873   2.088 -0.3365 -0.4776 -0.1467
12605TIP3   OH259229   3.207   3.640  13.017  0.1112 -1.0376  0.4705
12605TIP3    H159230   3.126   3.685  13.041 -0.2449 -1.3672 -0.1024
12605TIP3    H259231   3.275   3.682  13.071  0.0469  1.1653 -1.0448
12606TIP3   OH259232   1.373   6.442  15.238 -0.1282 -0.1242 -0.0892
12606TIP3    H159233   1.359   6.463  15.331  0.0645  0.8778 -0.2743
12606TIP3    H259234   1.322   6.363  15.224 -1.8440  0.8417  0.3911
12607TIP3   OH259235   0.451   0.381  11.368 -0.7907 -0.5617  0.2461
12607TIP3    H159236   0.506   0.308  11.395 -1.5137 -0.5610  1.7960
12607TIP3    H259237   0.470   0.392  11.274  1.5748 -0.7738  0.6402
12608TIP3   OH259238   6.425   4.419   3.970 -0.2042 -0.1295  0.2753
12608TIP3    H159239   6.408   4.481   3.899  1.6867  1.1104  0.8346
12608TIP3    H259240   6.348   4.362   3.971 -1.7237  1.7846 -0.6898
12609TIP3   OH259241   1.799   4.151  11.769  0.5082 -0.2472 -0.0168
12609TIP3    H159242   1.779   4.094  11.843  1.9196  0.7845  1.2085
12609TIP3    H259243   1.826   4.090  11.699  2.2348 -1.1282  1.3286
12610TIP3   OH259244   1.506   4.698  16.114  0.2079  0.0434 -0.6330
12610TIP3    H159245   1.542   4.758  16.048 -0.8857 -0.5185 -1.7890
12610TIP3    H259246   1.547   4.614  16.094 -0.3683 -0.1999 -0.8166
12611TIP3   OH259247   4.962   6.081  12.929  0.4891  0.5420 -0.0519
12611TIP3    H159248   4.978   6.174  12.938 -2.1591  1.2488 -1.4874
12611TIP3    H259249   5.005   6.057  12.847  0.4335  0.7069 -0.1299
12612TIP3   OH259250   2.405   2.657   5.700 -0.4812  0.2991  0.9363
12612TIP3    H159251   2.396   2.598   5.625 -0.7339 -0.9538  1.9302
12612TIP3    H259252   2.315   2.673   5.728 -0.3584  0.2728  1.3468
12613TIP3   OH259253   2.518   0.192   1.745 -0.6415 -0.5276  0.0505
12613TIP3    H159254   2.518   0.163   1.654 -0.0897  0.1688 -0.1848
12613TIP3    H259255   2.596   0.151   1.784 -0.5863 -0.4070  0.0674
12614TIP3   OH259256   4.981   5.558  14.024  0.3785 -0.2718  0.2024
12614TIP3    H159257   4.955   5.470  13.996  0.5462 -0.5557  0.9319
12614TIP3    H259258   5.076   5.554  14.032  0.1521 -1.3930  4.6209
12615TIP3   OH259259   3.773   4.694  15.128 -0.0309  0.0627  0.5946
12615TIP3    H159260   3.719   4.693  15.049  1.3104 -0.3317 -0.3663
12615TIP3    H259261   3.817   4.609  15.128 -0.5635 -0.2296  2.1888
12616TIP3   OH259262   5.928   4.890  15.386 -0.1585 -0.8360 -0.5120
12616TIP3    H159263   5.985   4.869  15.459 -0.4743 -2.5481 -0.6981
12616TIP3    H259264   5.840   4.889  15.423 -0.2546 -0.8234 -0.7362
12617TIP3   OH259265   5.668   1.777   0.386 -0.0879  0.7243 -0.1570
12617TIP3    H159266   5.743   1.784   0.444 -0.8868  2.6891  0.7196
12617TIP3    H259267   5.706   1.760   0.299  1.0788 -3.7325  0.9839
12618TIP3   OH259268   3.510   2.171  12.102 -0.3039 -0.4601  0.0571
12618TIP3    H159269   3.526   2.080  12.128 -0.3805 -1.1551 -2.1498
12618TIP3    H259270   3.571   2.187  12.030  0.3590  1.5797  0.9997
12619TIP3   OH259271   6.590   6.400   0.557  0.1528 -0.0609 -0.0737
12619TIP3    H159272   6.686   6.391   0.556  0.4511  1.1680  3.4309
12619TIP3    H259273   6.558   6.311   0.573  0.7551 -0.3466 -0.4161
12620TIP3   OH259274   3.265   0.200  12.382  0.6342 -0.1359  0.1249
12620TIP3    H159275   3.253   0.295  12.382  0.6079 -0.1251  1.1034
12620TIP3    H259276   3.178   0.165  12.363  0.2159  0.0244  1.6140
12621TIP3   OH259277   4.059   3.339  13.442  0.0894 -0.7049  0.1138
12621TIP3    H159278   3.965   3.351  13.430  0.3010 -1.0127 -2.1329
12621TIP3    H259279   4.067   3.306  13.532 -1.9121 -0.5122  0.4099
12622TIP3   OH259280   4.705   4.343   3.976 -0.1238 -0.0990  0.0881
12622TIP3    H159281   4.720   4.412   3.911  1.4065  0.3446  0.8621
12622TIP3    H259282   4.670   4.269   3.925  0.5813  0.4043 -1.1642
12623TIP3   OH259283   6.536   2.788  12.976 -0.6584 -0.1894 -0.5991
12623TIP3    H159284   6.472   2.736  13.025  0.5919 -1.2521 -0.0341
12623TIP3    H259285   6.620   2.766  13.016 -0.0143  1.9195 -0.6596
12624TIP3   OH259286   3.736   3.184  11.240  0.3716 -0.0029 -0.2503
12624TIP3    H159287   3.815   3.170  11.293  1.0394  0.4376 -1.1131
12624TIP3    H259288   3.741   3.118  11.171 -0.5324 -0.6169  0.2472
12625TIP3   OH259289   3.690   6.171  10.304 -0.3465  0.0021 -0.6405
12625TIP3    H159290   3.742   6.244  10.272 -1.3269  2.1038  2.1655
12625TIP3    H259291   3.628   6.210  10.366  1.0721 -3.4533  3.4743
12626TIP3   OH259292   3.940   5.398   4.339  0.1924 -0.1086 -0.1004
12626TIP3    H159293   3.918   5.352   4.258  1.0916 -2.0502  0.6947
12626TIP3    H259294   4.035   5.394   4.345  0.2295  1.0559  0.4924
12627TIP3   OH259295   3.788   1.255   1.174 -0.4342  0.3784  0.5433
12627TIP3    H159296   3.825   1.220   1.093 -0.3884 -0.9760  1.1294
12627TIP3    H259297   3.845   1.329   1.196  0.3323 -0.0406  0.0199
12628TIP3   OH259298   0.028   2.488   4.870 -0.6041 -0.4532  0.2703
12628TIP3    H159299  -0.065   2.496   4.849 -1.0389  0.3947  2.3005
12628TIP3    H259300   0.038   2.399   4.904 -0.3967 -0.9346 -0.9572
12629TIP3   OH259301   1.028   6.744  11.549  0.4226 -0.0102 -0.2047
12629TIP3    H159302   1.068   6.828  11.530 -0.2443  0.0697 -1.3535
12629TIP3    H259303   1.083   6.680  11.504  0.1312 -0.0444 -0.5181
12630TIP3   OH259304   4.987   3.012  13.732 -0.3046  0.2831  0.0814
12630TIP3    H159305   4.954   2.996  13.821  0.5739 -1.2532  0.1648
12630TIP3    H259306   5.042   2.936  13.713  2.5425  2.2919 -0.3382
12631TIP3   OH259307   3.304   1.912   1.688 -0.4233 -0.2319 -0.4745
12631TIP3    H159308   3.376   1.913   1.625 -0.3119 -0.9086 -0.3630
12631TIP3    H259309   3.285   1.819   1.702 -0.8644 -0.0746  0.0133
12632TIP3   OH259310   5.672   2.572  14.896  0.5229 -0.1082  0.2916
12632TIP3    H159311   5.619   2.505  14.854  1.1529 -0.3373 -0.1546
12632TIP3    H259312   5.742   2.590  14.834  0.0572  1.3790  0.1606
12633TIP3   OH259313   4.849   4.954  15.826 -0.0242 -0.9044 -0.1380
12633TIP3    H159314   4.760   4.963  15.793 -0.1126 -0.1920  0.2857
12633TIP3    H259315   4.842   4.968  15.920  0.6355 -0.0617 -0.1941
12634TIP3   OH259316   5.563   0.319   0.122  0.2901 -0.4601 -0.3260
12634TIP3    H159317   5.622   0.288   0.191  1.2929 -1.4241 -1.5612
12634TIP3    H259318   5.551   0.412   0.141 -2.2822 -1.2868  3.1455
12635TIP3   OH259319   3.583   3.256   3.161 -0.1136  0.3944  0.5840
12635TIP3    H159320   3.678   3.261   3.161 -0.1015  0.4777  1.9848
12635TIP3    H259321   3.562   3.203   3.084  0.9437  1.9653 -0.8566
12636TIP3   OH259322   3.065   3.714   2.149  0.1545  0.1547 -0.2294
12636TIP3    H159323   3.038   3.797   2.188  0.3862  1.2646 -2.3306
12636TIP3    H259324   3.082   3.657   2.224  0.1071  2.0211  1.2660
12637TIP3   OH259325   3.869   0.630   1.103 -0.3749  0.1693  0.3053
12637TIP3    H159326   3.905   0.714   1.131 -1.7273  1.2184 -0.9526
12637TIP3    H259327   3.786   0.623   1.150 -0.8701  0.1590 -0.5480
12638TIP3   OH259328   4.180   5.953   4.217 -0.0445  0.0333  0.6007
12638TIP3    H159329   4.115   5.955   4.147  2.3931 -0.2695 -1.8411
12638TIP3    H259330   4.172   5.866   4.256  0.6855 -1.0756 -1.5772
12639TIP3   OH259331   5.893   6.136   3.401  0.4357 -0.1530 -0.5362
12639TIP3    H159332   5.880   6.165   3.311  0.2735 -0.2636 -0.5502
12639TIP3    H259333   5.820   6.076   3.417  1.0326 -0.9491 -0.6798
12640TIP3   OH259334   3.871   3.496   2.135 -0.4329  0.1983  0.1192
12640TIP3    H159335   3.829   3.511   2.051  1.5625 -0.2047 -1.0286
12640TIP3    H259336   3.900   3.583   2.163  1.0658  0.0567 -0.8774
12641TIP3   OH259337   1.078   1.955   0.928  0.6396 -0.3380 -0.1907
12641TIP3    H159338   1.027   1.890   0.880 -0.0737 -1.6327  2.1750
12641TIP3    H259339   1.142   1.903   0.977  2.0292  1.0078 -0.5044
12642TIP3   OH259340   3.296   2.956  14.980 -0.0715 -0.1195 -0.1657
12642TIP3    H159341   3.237   3.002  14.920  0.4210 -0.8122 -1.2074
12642TIP3    H259342   3.313   2.872  14.938 -0.0526 -0.8064  1.1629
12643TIP3   OH259343   5.323   3.652   4.551 -0.2077 -0.5270  0.2264
12643TIP3    H159344   5.408   3.696   4.547  0.0876 -1.0882  0.3006
12643TIP3    H259345   5.300   3.635   4.460 -1.5181  2.0258 -0.0071
12644TIP3   OH259346   4.323   1.065  11.655  0.1059 -0.1888 -0.3321
12644TIP3    H159347   4.367   1.128  11.597  1.2950  0.4668  1.2183
12644TIP3    H259348   4.274   1.120  11.716 -1.5687 -0.8820 -1.0054
12645TIP3   OH259349   1.000   2.796   1.368 -0.3096 -0.1021  0.5941
12645TIP3    H159350   1.022   2.864   1.432 -0.7510  1.0752 -0.4628
12645TIP3    H259351   1.065   2.808   1.298  0.8894 -2.1078  1.2845
12646TIP3   OH259352   4.598   1.322   0.542  0.0375  0.2852  0.4213
12646TIP3    H159353   4.669   1.385   0.550 -0.5245  0.7041  3.5421
12646TIP3    H259354   4.624   1.249   0.599 -2.2609  0.8265  2.3586
12647TIP3   OH259355   1.563   4.215  15.783 -0.1278  0.0704 -0.2076
12647TIP3    H159356   1.588   4.128  15.751 -0.5481 -0.7495  1.5364
12647TIP3    H259357   1.473   4.204  15.813  0.8364  0.0925  3.1769
12648TIP3   OH259358   0.486   1.028  14.414 -0.2682  0.1520  0.2476
12648TIP3    H159359   0.400   1.071  14.412  0.0736  0.8313 -0.9682
12648TIP3    H259360   0.466   0.935  14.411 -0.9707  0.2983  0.1456
12649TIP3   OH259361   3.138   2.993   4.170 -0.2043 -0.3107 -0.1593
12649TIP3    H159362   3.138   3.076   4.218  0.3276 -0.0375 -0.6245
12649TIP3    H259363   3.229   2.967   4.168  0.2295  0.9960 -3.2278
12650TIP3   OH259364   3.789   0.329  16.805  0.3851  0.4298 -0.0618
12650TIP3    H159365   3.752   0.258  16.752  0.7817 -1.2350  1.7711
12650TIP3    H259366   3.730   0.335  16.881  2.0770 -0.1534  1.3709
12651TIP3   OH259367   5.906   0.472   2.317  0.4147  0.0835  0.7024
12651TIP3    H159368   5.814   0.485   2.297  0.5761 -0.5363 -0.5652
12651TIP3    H259369   5.918   0.377   2.312  1.1854  0.1817  0.5281
12652TIP3   OH259370   3.284   4.709  13.759 -0.0965 -0.2933 -0.1226
12652TIP3    H159371   3.271   4.699  13.853  0.3707 -1.4390 -0.1666
12652TIP3    H259372   3.299   4.620  13.727 -1.0959 -0.0365 -1.4178
12653TIP3   OH259373   5.904   0.496  14.698 -0.3688  0.3129  0.3062
12653TIP3    H159374   5.990   0.485  14.657 -1.5287 -0.3901 -2.1576
12653TIP3    H259375   5.897   0.422  14.759  0.2741 -0.4020 -0.4595
12654TIP3   OH259376   2.623   1.646   5.193  0.2317 -0.5978  0.6657
12654TIP3    H159377   2.714   1.676   5.196  1.2408 -3.1397 -0.9263
12654TIP3    H259378   2.614   1.589   5.269 -0.8462  1.5232  2.1916
12655TIP3   OH259379   2.732   6.638  17.141  0.0793 -0.1962 -0.6651
12655TIP3    H159380   2.769   6.577  17.078 -1.2171 -1.3047 -0.3951
12655TIP3    H259381   2.645   6.604  17.159 -0.2449  1.1062  0.3720
12656TIP3   OH259382   2.290   6.730  12.177  0.3620  0.3603  0.3150
12656TIP3    H159383   2.296   6.675  12.099  1.9613  0.6956  0.1625
12656TIP3    H259384   2.324   6.815  12.149  2.0281  0.1829  1.6218
12657TIP3   OH259385   2.660   6.517   2.960  0.4391  0.0841 -0.0478
12657TIP3    H159386   2.660   6.601   2.914  0.2107 -1.1688 -2.4841
12657TIP3    H259387   2.580   6.473   2.931  1.7079 -1.9146 -0.7262
12658TIP3   OH259388   6.755   2.613  15.916 -0.4506 -0.2715 -0.0289
12658TIP3    H159389   6.669   2.606  15.957  0.5500  0.6053  2.4153
12658TIP3    H259390   6.812   2.560  15.971  0.7190 -0.3120 -1.2345
12659TIP3   OH259391   0.801   4.242  11.232  0.0328  0.0658  0.2485
12659TIP3    H159392   0.728   4.266  11.176  0.2626 -0.8172 -0.4753
12659TIP3    H259393   0.832   4.324  11.270 -0.1809  0.6808 -0.8799
12660TIP3   OH259394   2.247   4.071   6.061  0.2473 -0.2425  0.1418
12660TIP3    H159395   2.314   4.140   6.056  1.6171 -1.4481  0.9645
12660TIP3    H259396   2.294   3.990   6.042 -0.8963 -1.1788  1.1005
12661TIP3   OH259397   4.996   4.131  12.806 -0.4021 -0.3857 -0.4116
12661TIP3    H159398   4.960   4.170  12.726 -0.5478 -1.7898 -1.0463
12661TIP3    H259399   4.970   4.039  12.803 -1.5813 -0.2133  1.9398
12662TIP3   OH259400   3.765   1.185   3.768 -0.2375  0.1838  0.4102
12662TIP3    H159401   3.834   1.247   3.792  0.3818 -0.5045  0.4563
12662TIP3    H259402   3.798   1.100   3.797 -0.5460 -0.3363 -0.6966
12663TIP3   OH259403   1.800   0.376  14.963 -0.3614  0.0030 -0.2025
12663TIP3    H159404   1.716   0.422  14.964 -0.0619  0.5707 -0.4591
12663TIP3    H259405   1.813   0.354  14.870  1.1553  2.5485 -0.6815
12664TIP3   OH259406   0.288   3.919  11.044 -0.8660 -0.1379  0.3474
12664TIP3    H159407   0.337   3.884  10.970  0.9990 -0.7472  1.8093
12664TIP3    H259408   0.240   3.994  11.008  0.3135 -0.1589 -1.3643
12665TIP3   OH259409   5.352   4.358   0.411  0.4188 -0.0873 -0.2223
12665TIP3    H159410   5.412   4.433   0.411  0.9283 -0.4751 -1.2848
12665TIP3    H259411   5.306   4.365   0.494  0.9608  1.0051  0.0123
12666TIP3   OH259412   5.279   3.565  12.703  0.2480  0.4143  0.6154
12666TIP3    H159413   5.277   3.656  12.672  0.0084  0.3562  0.4538
12666TIP3    H259414   5.259   3.572  12.797  1.1340  0.6015  0.7949
12667TIP3   OH259415   4.819   3.034   1.456 -0.6430  0.1131 -0.4528
12667TIP3    H159416   4.897   3.086   1.435 -0.3932  0.8106  1.9479
12667TIP3    H259417   4.851   2.944   1.461 -0.4585  0.0980 -1.5882
12668TIP3   OH259418   2.625   1.158  16.625 -0.0993  0.9445 -0.1580
12668TIP3    H159419   2.542   1.114  16.642 -0.6826  2.2561  0.5464
12668TIP3    H259420   2.688   1.114  16.682 -0.1734 -0.3497 -1.0159
12669TIP3   OH259421   4.112   6.148   5.800  0.0227  0.1548 -0.1654
12669TIP3    H159422   4.054   6.079   5.768  0.0102 -0.3504  0.8919
12669TIP3    H259423   4.200   6.114   5.785  0.0157 -0.1371  0.4384
12670TIP3   OH259424   5.104   1.445  11.459 -0.1397  0.1831 -0.1316
12670TIP3    H159425   5.037   1.507  11.485  0.3056 -0.1228  1.8577
12670TIP3    H259426   5.186   1.494  11.465 -0.0809  0.4047 -2.0441
12671TIP3   OH259427   4.621   4.428  16.639  0.3564  1.1068  0.7770
12671TIP3    H159428   4.708   4.440  16.601  0.2486  2.0132  0.7828
12671TIP3    H259429   4.560   4.440  16.566  0.2442 -0.2520  0.6217
12672TIP3   OH259430   0.501   2.579  17.004  0.3532 -0.1236 -0.2296
12672TIP3    H159431   0.438   2.572  16.933 -0.7006 -2.6280  0.8587
12672TIP3    H259432   0.577   2.528  16.974  0.2026 -0.5623  0.1273
12673TIP3   OH259433   3.928   1.997   0.835  0.1681  0.2883  0.2497
12673TIP3    H159434   3.852   2.046   0.801  0.2069  0.1847  0.0128
12673TIP3    H259435   4.003   2.036   0.790  0.3917  1.2347  1.4054
12674TIP3   OH259436   4.185   6.447  15.831 -0.2162 -0.1910 -0.6559
12674TIP3    H159437   4.266   6.428  15.878 -1.6739 -0.0332  2.1626
12674TIP3    H259438   4.134   6.366  15.839 -0.9045  0.1993 -1.0564
12675TIP3   OH259439   0.066   0.889  15.441  0.2754 -0.4734 -0.2915
12675TIP3    H159440   0.121   0.854  15.371 -2.6657 -0.1990 -2.9767
12675TIP3    H259441   0.013   0.815  15.470  0.4960 -0.2610  0.6955
12676TIP3   OH259442   2.924   0.479  14.807 -0.5445 -0.0374 -0.1705
12676TIP3    H159443   3.005   0.486  14.859  1.3190  0.3523 -2.9059
12676TIP3    H259444   2.882   0.400  14.840  2.0626 -1.4751  0.0485
12677TIP3   OH259445   5.012   1.082  16.686 -0.0023  0.0779 -0.1479
12677TIP3    H159446   4.936   1.028  16.666 -0.4774  1.3056 -1.8786
12677TIP3    H259447   5.084   1.043  16.637 -0.2690  0.7661 -1.1181
12678TIP3   OH259448   6.288   6.153   0.966 -0.2369  0.3991  0.4482
12678TIP3    H159449   6.206   6.188   1.001  0.8486  1.5526  1.9806
12678TIP3    H259450   6.267   6.129   0.875 -2.7608 -1.1779  1.3366
12679TIP3   OH259451   3.024   1.441   2.987 -0.1193  0.7617 -0.1344
12679TIP3    H159452   3.034   1.515   3.048  2.4730  1.4361 -1.2541
12679TIP3    H259453   2.973   1.477   2.914 -1.3785  0.5513  0.5994
12680TIP3   OH259454   6.473   5.521  13.357  0.1281  0.2982  0.2658
12680TIP3    H159455   6.449   5.474  13.437 -0.2441 -1.4100 -0.7897
12680TIP3    H259456   6.416   5.484  13.289  0.1914  1.9500 -0.7343
12681TIP3   OH259457   2.487   0.531  13.128  0.1744  0.1873 -0.2541
12681TIP3    H159458   2.543   0.597  13.168 -0.9571  1.2267 -0.3359
12681TIP3    H259459   2.477   0.464  13.196 -0.9526  1.4665  0.9002
12682TIP3   OH259460   4.731   5.141  14.863 -0.1051  0.3478 -0.9564
12682TIP3    H159461   4.765   5.213  14.811  0.8797  1.5366  1.1639
12682TIP3    H259462   4.790   5.067  14.844 -0.9603  0.1177 -2.9404
12683TIP3   OH259463   2.598   0.883   5.799  0.1269 -0.1972 -0.0726
12683TIP3    H159464   2.672   0.906   5.742 -0.0162 -0.0091 -0.1839
12683TIP3    H259465   2.522   0.883   5.741 -0.3647  2.0277  0.4575
12684TIP3   OH259466   1.574   3.660  13.441 -0.5128  0.5467 -0.1034
12684TIP3    H159467   1.655   3.638  13.486 -0.2584  1.5961 -0.0405
12684TIP3    H259468   1.582   3.753  13.418 -1.6694  0.6564 -0.1512
12685TIP3   OH259469   5.524   5.255  11.912 -0.1622  0.1775  0.2132
12685TIP3    H159470   5.478   5.204  11.978  0.4310  1.8130  1.9797
12685TIP3    H259471   5.456   5.310  11.873 -0.5449 -0.9174 -0.6999
12686TIP3   OH259472   4.837   2.311  11.383 -0.7382  0.0811  0.2784
12686TIP3    H159473   4.872   2.277  11.465 -0.6737  1.2148  0.7500
12686TIP3    H259474   4.903   2.374  11.353  0.1426 -1.6427 -1.6397
12687TIP3   OH259475   3.249   0.109  16.651  0.3171  0.1098 -0.6948
12687TIP3    H159476   3.322   0.047  16.659  0.8840  0.7733 -0.5626
12687TIP3    H259477   3.217   0.120  16.741  0.3672  0.1824 -0.6857
12688TIP3   OH259478   0.285   4.608   3.210 -0.7942  0.1412 -0.4633
12688TIP3    H159479   0.215   4.560   3.255  0.5640 -1.6209 -0.0995
12688TIP3    H259480   0.347   4.629   3.280  0.1473 -0.4277 -1.0995
12689TIP3   OH259481   0.244   4.426  13.540 -0.0756  0.5087  0.2236
12689TIP3    H159482   0.222   4.343  13.584  1.3652  0.4165  0.8496
12689TIP3    H259483   0.206   4.494  13.596 -0.0117  0.3062  0.5203
12690TIP3   OH259484   5.224   6.110  16.695 -0.0904 -0.7469  0.3763
12690TIP3    H159485   5.192   6.035  16.745  0.9254  0.1549  2.4970
12690TIP3    H259486   5.319   6.109  16.708 -0.1553  1.5343  1.4814
12691TIP3   OH259487   3.215   1.154  16.186  0.4942 -0.4892 -0.0879
12691TIP3    H159488   3.152   1.121  16.122  0.6817 -0.0808 -0.4883
12691TIP3    H259489   3.278   1.205  16.135 -0.2324  1.1682  0.5703
12692TIP3   OH259490   1.753   1.378  13.379  0.0122 -0.3759 -0.3195
12692TIP3    H159491   1.714   1.387  13.466  0.0389  2.2001 -0.4993
12692TIP3    H259492   1.688   1.417  13.319  1.1998  0.5518 -1.0644
12693TIP3   OH259493   0.373   0.769  14.797  0.3496  0.5271 -0.5560
12693TIP3    H159494   0.364   0.857  14.762 -0.2095  0.8995  0.4674
12693TIP3    H259495   0.406   0.783  14.886  0.1368 -0.2922 -0.3449
12694TIP3   OH259496   3.872   3.521   4.804 -0.6702 -0.3117  0.5148
12694TIP3    H159497   3.899   3.545   4.715 -0.4704 -0.1878  0.6106
12694TIP3    H259498   3.781   3.550   4.809 -0.4539  0.3793  0.6067
12695TIP3   OH259499   5.127   5.034  17.144  0.0610  0.4701 -0.0563
12695TIP3    H159500   5.117   5.116  17.095  2.7149  0.7601 -0.2700
12695TIP3    H259501   5.097   4.966  17.083 -2.9933  1.2271  0.4262
12696TIP3   OH259502   3.798   5.654   2.850 -0.4899 -0.4855  0.3240
12696TIP3    H159503   3.869   5.621   2.794 -1.5057  0.8188 -1.8645
12696TIP3    H259504   3.841   5.711   2.913  0.4695  0.0151 -0.7562
12697TIP3   OH259505   3.845   2.204  14.157  0.5019  0.4180 -0.4350
12697TIP3    H159506   3.937   2.210  14.133  0.5884  0.9332  0.0004
12697TIP3    H259507   3.823   2.291  14.191  0.0804  0.0532  0.2541
12698TIP3   OH259508   4.154   4.470  11.124 -0.2016 -0.6608 -0.2269
12698TIP3    H159509   4.163   4.531  11.197 -1.7111  0.6155 -1.0541
12698TIP3    H259510   4.169   4.383  11.163 -0.8311 -0.0060  1.5617
12699TIP3   OH259511   5.946   0.339  11.979  0.1046 -0.2811  0.7186
12699TIP3    H159512   5.854   0.363  11.965  0.1029  1.4466  3.1364
12699TIP3    H259513   5.995   0.396  11.920 -0.3158 -1.6945 -1.1055
12700TIP3   OH259514   2.879   2.429  12.322  0.2203 -0.0675  0.0026
12700TIP3    H159515   2.931   2.479  12.385  0.5443  0.0254 -0.3338
12700TIP3    H259516   2.917   2.451  12.237 -0.2559 -0.1374 -0.2335
12701TIP3   OH259517   5.901   0.108  13.093 -0.1859  0.1062 -0.4500
12701TIP3    H159518   5.850   0.179  13.130 -0.9211 -0.1032 -1.0437
12701TIP3    H259519   5.839   0.035  13.084  1.0481 -1.4630  2.4047
12702TIP3   OH259520   0.527   3.908   3.025  0.0506 -0.6604 -0.0977
12702TIP3    H159521   0.578   3.958   3.089  1.7323  0.9816 -2.5329
12702TIP3    H259522   0.442   3.951   3.023  0.3943  0.0470  0.1896
12703TIP3   OH259523   0.407   3.824   6.510  0.3253 -0.6816 -0.1369
12703TIP3    H159524   0.386   3.739   6.469 -0.7586 -0.8895  0.7847
12703TIP3    H259525   0.497   3.814   6.540  0.9423 -0.7384 -1.8772
12704TIP3   OH259526   5.288   5.320  17.093  0.0169  0.0512  0.0356
12704TIP3    H159527   5.382   5.307  17.082 -0.0067 -0.0745 -0.0236
12704TIP3    H259528   5.274   5.315  17.187 -0.0350 -0.6793 -0.0047
12705TIP3   OH259529   5.972   0.157  13.525 -0.3351  0.0972 -0.2337
12705TIP3    H159530   5.880   0.141  13.507  0.0264 -1.3069 -1.0050
12705TIP3    H259531   5.993   0.236  13.475 -1.3233  0.9952  0.7229
12706TIP3   OH259532   6.147   2.997  12.141 -0.3091  0.4345  0.4103
12706TIP3    H159533   6.134   3.078  12.093  1.7050  1.2402  1.1296
12706TIP3    H259534   6.207   2.946  12.088 -0.1576  0.1858  0.8141
12707TIP3   OH259535   1.092   1.266   5.579 -0.1653 -0.3784 -0.6269
12707TIP3    H159536   1.113   1.209   5.505  0.3757 -1.5037  0.3684
12707TIP3    H259537   1.112   1.214   5.656 -0.0435  1.0203  0.3239
12708TIP3   OH259538   1.609   4.518   4.675 -0.0106 -0.0392 -0.5143
12708TIP3    H159539   1.538   4.464   4.641 -0.3905  0.0446  0.1194
12708TIP3    H259540   1.601   4.511   4.770  0.1588  0.8308 -0.4246
12709TIP3   OH259541   0.125   2.689   1.954  0.4122  0.8594 -0.4941
12709TIP3    H159542   0.126   2.785   1.959 -0.7875  0.8387  1.8953
12709TIP3    H259543   0.037   2.665   1.984  1.1485 -1.0252  0.2901
12710TIP3   OH259544   0.046   0.109   1.531  0.5221 -0.1058  0.5333
12710TIP3    H159545   0.094   0.087   1.450  1.8933  0.5300  1.1518
12710TIP3    H259546   0.109   0.093   1.601 -0.6080 -0.4966  1.4903
12711TIP3   OH259547   6.179   4.952   4.971 -0.0479 -0.3178  0.2123
12711TIP3    H159548   6.147   4.903   5.047  1.8420  0.0490  1.3148
12711TIP3    H259549   6.136   5.037   4.977 -2.7025 -1.4286 -1.2457
12712TIP3   OH259550   2.933   1.931  10.631 -0.3048 -0.3520  0.4376
12712TIP3    H159551   2.991   2.006  10.646  1.9792 -1.3549 -2.3244
12712TIP3    H259552   2.853   1.969  10.596  0.2253  0.8836  0.5102
12713TIP3   OH259553   4.681   5.261  10.492  0.4677  0.3894 -0.1753
12713TIP3    H159554   4.747   5.312  10.446 -0.0058  0.6177 -0.6162
12713TIP3    H259555   4.702   5.271  10.584  1.2331  0.2032 -0.3244
12714TIP3   OH259556   3.743   2.780  12.657  0.3057 -0.6758  1.0492
12714TIP3    H159557   3.698   2.778  12.742 -0.4924 -0.2758  0.6482
12714TIP3    H259558   3.760   2.688  12.637 -0.3493 -0.8357  1.2094
12715TIP3   OH259559   4.437   5.776   2.038 -0.1606 -1.0777  0.3317
12715TIP3    H159560   4.495   5.851   2.030 -1.1286 -0.3188  0.2954
12715TIP3    H259561   4.453   5.742   2.126  0.7964 -1.2762  0.0898
12716TIP3   OH259562   3.501   3.728   0.983 -0.6485 -0.5074 -0.1393
12716TIP3    H159563   3.578   3.689   1.024 -1.1821 -0.9954  0.4076
12716TIP3    H259564   3.428   3.703   1.039 -1.2825 -0.5075 -0.9448
12717TIP3   OH259565   3.022   2.942  15.511 -0.3491 -0.0736 -0.1387
12717TIP3    H159566   3.036   3.027  15.470  0.4668 -0.5390 -0.8751
12717TIP3    H259567   3.110   2.914  15.538 -0.1907 -1.7086 -2.0514
12718TIP3   OH259568   5.567   0.454  11.407  0.1388 -0.1323  0.7067
12718TIP3    H159569   5.527   0.541  11.399  1.5364  0.5150  0.4310
12718TIP3    H259570   5.608   0.454  11.493 -0.5153 -0.8179  1.0243
12719TIP3   OH259571   3.042   2.849   2.488 -0.1101 -0.7200 -0.1341
12719TIP3    H159572   3.051   2.859   2.583 -0.4296  0.3071 -0.1998
12719TIP3    H259573   2.953   2.817   2.475  0.0022 -1.0554 -0.0736
12720TIP3   OH259574   2.145   6.546  13.470  0.1277 -0.1668 -0.2258
12720TIP3    H159575   2.190   6.614  13.421  0.4806 -1.9614 -2.5351
12720TIP3    H259576   2.213   6.482  13.492 -0.4030 -0.3969  0.8407
12721TIP3   OH259577   3.239   4.270   5.408 -0.4383 -0.1611 -0.0929
12721TIP3    H159578   3.208   4.217   5.334 -0.5699  0.3954 -0.4376
12721TIP3    H259579   3.164   4.324   5.432 -0.2507 -0.0097  0.1543
12722TIP3   OH259580   1.539   3.435   5.964 -0.2039  0.1143 -0.4604
12722TIP3    H159581   1.470   3.394   6.015  0.2963 -0.6696 -0.3958
12722TIP3    H259582   1.493   3.476   5.890 -0.8697  0.7931  0.3133
12723TIP3   OH259583   0.723   3.214   3.621 -0.2740  0.1697  0.3638
12723TIP3    H159584   0.773   3.145   3.578  0.4923  0.8884  0.0680
12723TIP3    H259585   0.789   3.277   3.649 -0.9706  0.8469  0.5208
12724TIP3   OH259586   3.649   6.381  16.281  0.3654 -0.0092  0.4791
12724TIP3    H159587   3.673   6.307  16.337 -0.2053 -0.3982  0.2190
12724TIP3    H259588   3.639   6.343  16.194  1.9314  0.7066 -0.0589
12725TIP3   OH259589   4.941   0.248  14.489 -0.0481 -0.0920  0.3918
12725TIP3    H159590   4.961   0.312  14.556 -0.3377  1.4167 -0.9112
12725TIP3    H259591   4.849   0.227  14.503 -0.2523  0.6205  0.1554
12726TIP3   OH259592   1.908   3.640   1.846 -0.0347  0.5898 -0.3044
12726TIP3    H159593   1.962   3.717   1.831  2.1585 -0.0524  3.1763
12726TIP3    H259594   1.950   3.571   1.795  0.5599  0.7947 -0.1011
12727TIP3   OH259595   3.210   3.165  15.777  0.3774 -0.2803  0.5199
12727TIP3    H159596   3.196   3.071  15.766  1.2770 -0.3376 -0.3312
12727TIP3    H259597   3.253   3.174  15.862  1.6377 -0.8039 -0.0402
12728TIP3   OH259598   6.621   0.846   0.186  0.0877 -0.5875  0.0473
12728TIP3    H159599   6.579   0.852   0.272  1.6241 -0.4224  0.8171
12728TIP3    H259600   6.661   0.759   0.184 -2.3838 -1.7966 -1.7256
12729TIP3   OH259601   0.431   3.050   6.006 -0.7037 -0.6974 -0.1080
12729TIP3    H159602   0.419   3.026   6.097 -1.8669 -0.8150 -0.2704
12729TIP3    H259603   0.485   3.129   6.008 -1.2903 -0.3134  0.7149
12730TIP3   OH259604   1.448   4.853   3.240  0.1596  0.0590 -0.3558
12730TIP3    H159605   1.392   4.821   3.170 -0.1555  2.9944 -1.6166
12730TIP3    H259606   1.397   4.840   3.320  0.1472 -2.5164 -0.7073
12731TIP3   OH259607   1.461   2.801   1.160  0.0858  0.5646  0.3609
12731TIP3    H159608   1.370   2.829   1.162  0.2784  1.2398 -0.0358
12731TIP3    H259609   1.457   2.706   1.151 -0.5754  0.4839  1.3420
12732TIP3   OH259610   1.284   1.812   4.152  0.0023  0.2527  0.2740
12732TIP3    H159611   1.250   1.900   4.139 -0.3511  0.1921  0.7374
12732TIP3    H259612   1.275   1.769   4.067  1.6468  1.1372 -0.3950
12733TIP3   OH259613   4.758   1.800   4.105  0.6398  0.5278 -0.0460
12733TIP3    H159614   4.776   1.863   4.035 -0.2260  0.6878 -0.1296
12733TIP3    H259615   4.748   1.855   4.183  0.8096  0.4149  0.0550
12734TIP3   OH259616   3.445   3.711  15.773 -0.1019  0.0906 -0.3263
12734TIP3    H159617   3.361   3.721  15.729 -0.0072 -0.0902 -0.5489
12734TIP3    H259618   3.433   3.635  15.831 -0.2635  0.3997  0.0501
12735TIP3   OH259619   2.305   0.179  16.817 -0.2208  0.4750 -0.3821
12735TIP3    H159620   2.375   0.115  16.801  0.4068  1.1621 -0.4397
12735TIP3    H259621   2.266   0.152  16.900 -1.7417 -1.5488 -1.6440
12736TIP3   OH259622   3.781   5.339   0.591 -0.6092  0.5973 -0.2454
12736TIP3    H159623   3.860   5.370   0.635  0.9785 -1.6857 -1.3148
12736TIP3    H259624   3.751   5.265   0.643 -1.3514  0.6862 -0.5275
12737TIP3   OH259625   2.218   6.564  14.818  0.0052  0.7262  0.1182
12737TIP3    H159626   2.180   6.476  14.821 -0.4030  0.9107  0.7669
12737TIP3    H259627   2.215   6.593  14.909  0.5831  1.2253 -0.0218
12738TIP3   OH259628   0.479   1.736   1.062  0.1571  0.3680 -0.3110
12738TIP3    H159629   0.480   1.670   1.132 -2.6736 -1.2460 -1.6286
12738TIP3    H259630   0.570   1.744   1.035  0.8961 -1.2274  1.5107
12739TIP3   OH259631   4.182   6.682  15.075 -0.9548  0.0834 -0.1115
12739TIP3    H159632   4.146   6.615  15.133 -0.0772 -1.0207 -0.8078
12739TIP3    H259633   4.187   6.640  14.990  4.3500 -0.8284  0.3531
12740TIP3   OH259634   5.185   3.700  15.353  0.1553  0.4862 -0.6651
12740TIP3    H159635   5.176   3.795  15.363 -0.1290  0.5252 -1.2136
12740TIP3    H259636   5.127   3.663  15.419 -0.0120  0.6989 -0.6914
12741TIP3   OH259637   6.615   2.148  15.783  0.1990  0.3197  0.4461
12741TIP3    H159638   6.588   2.151  15.691 -1.6222  1.0771  0.9470
12741TIP3    H259639   6.642   2.058  15.798 -0.8028 -0.1523 -0.4929
12742TIP3   OH259640   2.955   5.797   3.934  0.1340 -0.7413 -0.6486
12742TIP3    H159641   2.866   5.796   3.969  0.1509 -2.9735 -0.4965
12742TIP3    H259642   2.993   5.879   3.965 -1.4383 -0.3669  0.3904
12743TIP3   OH259643   2.607   3.765  15.850 -0.2263  0.4410  0.4221
12743TIP3    H159644   2.671   3.720  15.794 -0.6503  1.2713 -0.7589
12743TIP3    H259645   2.523   3.754  15.805 -0.2920  2.6801 -0.0954
12744TIP3   OH259646   0.845   1.587   0.781  0.2738 -0.2271 -0.3908
12744TIP3    H159647   0.753   1.565   0.767  0.1109 -0.3377  0.7306
12744TIP3    H259648   0.843   1.655   0.848  1.0283 -0.4898 -0.0936
12745TIP3   OH259649   6.152   2.045  12.756 -0.3113 -0.2088 -0.7832
12745TIP3    H159650   6.095   2.099  12.701 -1.1070 -0.3926 -0.1480
12745TIP3    H259651   6.165   2.096  12.835  0.1359 -0.3197 -0.7819
12746TIP3   OH259652   1.826   0.261  11.287 -0.7219  0.2322 -0.7799
12746TIP3    H159653   1.862   0.313  11.360  0.5681  1.9194 -2.5210
12746TIP3    H259654   1.887   0.188  11.278  0.9287  1.6760 -2.0431
12747TIP3   OH259655   0.119   4.500  12.005 -0.0374 -0.5865  0.3252
12747TIP3    H159656   0.086   4.458  12.085  0.5489 -0.7592  0.4835
12747TIP3    H259657   0.126   4.429  11.942  0.2005 -0.5880  0.3511
12748TIP3   OH259658   3.575   2.250   1.849  0.2523  0.4900 -0.3176
12748TIP3    H159659   3.536   2.213   1.928  1.6457 -2.2798 -0.8048
12748TIP3    H259660   3.501   2.282   1.798 -0.7469  1.4353  1.6150
12749TIP3   OH259661   3.659   1.533   2.733  0.1044 -0.4413 -0.2556
12749TIP3    H159662   3.681   1.615   2.777 -0.1372 -0.5053 -0.0114
12749TIP3    H259663   3.696   1.465   2.789  0.2095 -0.5033 -0.3999
12750TIP3   OH259664   1.991   2.401  16.976  0.1484  0.2007  0.4638
12750TIP3    H159665   1.928   2.444  17.034  0.3490  2.8855 -1.1631
12750TIP3    H259666   2.069   2.457  16.978  0.5568 -0.2055 -1.5177
12751TIP3   OH259667   6.752   3.955   3.940  0.5152  0.5274 -0.0023
12751TIP3    H159668   6.668   3.977   3.900  1.1895  0.8790 -1.2802
12751TIP3    H259669   6.751   4.000   4.024 -0.5813  0.5017  0.0120
12752TIP3   OH259670   5.604   5.678  14.379  0.5782  0.1724 -0.6286
12752TIP3    H159671   5.673   5.745  14.373  0.9998 -0.3266 -1.7996
12752TIP3    H259672   5.547   5.708  14.449  2.4934  0.1401  1.0493
12753TIP3   OH259673   3.954   5.423  13.984 -0.5847 -0.0030 -0.1596
12753TIP3    H159674   3.925   5.465  14.064  0.1201  1.9359 -0.8604
12753TIP3    H259675   4.028   5.369  14.010 -1.8242 -1.3014  0.8431
12754TIP3   OH259676   5.231   4.394   0.160  0.2493 -0.3523 -0.4762
12754TIP3    H159677   5.252   4.368   0.250 -0.6358  1.1178  0.2122
12754TIP3    H259678   5.149   4.444   0.169 -0.4271 -1.0611 -2.2535
12755TIP3   OH259679   1.922   1.003  13.265  0.5752  0.3581 -0.5133
12755TIP3    H159680   1.960   0.975  13.182 -1.5391 -1.0125 -1.0774
12755TIP3    H259681   1.959   0.942  13.329 -0.6572 -1.0191 -1.0691
12756TIP3   OH259682   6.505   2.179  12.362 -0.5101  0.2617  0.0630
12756TIP3    H159683   6.571   2.156  12.296 -0.3330 -2.7677  1.1211
12756TIP3    H259684   6.429   2.126  12.339 -1.5681  1.5254  0.5468
12757TIP3   OH259685   0.855   0.210  15.322  0.2643 -0.2093  0.4258
12757TIP3    H159686   0.842   0.177  15.233  0.2564 -0.2689  0.4495
12757TIP3    H259687   0.804   0.291  15.325 -0.3949 -0.6299  0.6314
12758TIP3   OH259688   4.527   2.028  13.501 -0.0445 -0.4374  0.1222
12758TIP3    H159689   4.455   1.966  13.513 -1.6237  0.9547 -1.6154
12758TIP3    H259690   4.606   1.978  13.523 -1.2144 -3.0750 -1.2969
12759TIP3   OH259691   3.761   1.721   3.522  0.0290  0.5058  0.4841
12759TIP3    H159692   3.838   1.689   3.475 -1.5040 -2.0480 -0.4763
12759TIP3    H259693   3.796   1.781   3.588  2.7067  0.3149 -0.6518
12760TIP3   OH259694   3.749   5.924  13.213  0.2216 -0.1593 -0.1024
12760TIP3    H159695   3.671   5.874  13.235  0.1080 -0.5852 -1.3649
12760TIP3    H259696   3.752   5.922  13.117  1.8780 -0.3121 -0.0753
12761TIP3   OH259697   4.967   3.509  15.614 -0.6328 -0.4554 -0.2026
12761TIP3    H159698   5.057   3.529  15.641 -0.3940 -1.1735 -0.4427
12761TIP3    H259699   4.926   3.471  15.692 -0.3778 -1.1849 -0.4139
12762TIP3   OH259700   0.348   0.983  15.004  0.3268 -0.2407 -0.2367
12762TIP3    H159701   0.432   1.028  15.004  0.5717 -0.6764  0.4866
12762TIP3    H259702   0.302   1.017  14.928  1.7130 -1.0541 -1.4968
12763TIP3   OH259703   6.101   0.778  15.613 -0.1286  0.6217  0.5127
12763TIP3    H159704   6.147   0.750  15.534  0.7100  0.6924  0.9690
12763TIP3    H259705   6.066   0.697  15.650  0.2435  0.4754  0.5489
12764TIP3   OH259706   0.235   5.686   2.611  0.5063 -0.0524  0.4433
12764TIP3    H159707   0.190   5.665   2.693 -1.7420  1.5561 -0.2989
12764TIP3    H259708   0.268   5.601   2.580 -0.7377 -1.0788  1.7787
12765TIP3   OH259709   1.927   0.623  11.483 -0.7989  0.7938 -0.3139
12765TIP3    H159710   2.011   0.629  11.530 -0.2508  3.5016 -1.4218
12765TIP3    H259711   1.949   0.578  11.402 -1.1136 -1.2126  0.6689
12766TIP3   OH259712   4.625   5.834   3.655 -0.1172 -0.0282 -0.0237
12766TIP3    H159713   4.655   5.847   3.565  0.8350  0.0239  0.2905
12766TIP3    H259714   4.547   5.889   3.663 -0.2690 -0.1214 -0.8474
12767TIP3   OH259715   3.320   2.051  10.647  0.6995 -0.3044 -0.0827
12767TIP3    H159716   3.414   2.035  10.655  1.1343  0.8345 -2.1437
12767TIP3    H259717   3.303   2.126  10.704  0.8638 -0.9672  0.8628
12768TIP3   OH259718   0.265   3.400   3.800 -0.0051  0.3842 -0.5370
12768TIP3    H159719   0.358   3.384   3.812  0.3072  0.2316 -2.7902
12768TIP3    H259720   0.228   3.392   3.888  2.1866  1.1786  0.5271
12769TIP3   OH259721   0.387   4.730   0.831  0.2474  0.2118 -0.0512
12769TIP3    H159722   0.455   4.672   0.797  3.1123  2.0694  2.0402
12769TIP3    H259723   0.406   4.815   0.793  1.0641  1.4243  2.7599
12770TIP3   OH259724   3.953   0.577  16.133  0.1065 -0.0264 -0.1115
12770TIP3    H159725   3.880   0.630  16.166  0.2688  2.3310 -3.0615
12770TIP3    H259726   3.918   0.533  16.056  0.8437 -1.9255  0.5755
12771TIP3   OH259727   3.175   6.219  15.868 -0.0554  0.0884 -0.1989
12771TIP3    H159728   3.134   6.132  15.868  0.2876 -0.0859  0.8968
12771TIP3    H259729   3.252   6.210  15.924  0.7827  0.7481 -1.2068
12772TIP3   OH259730   4.320   4.365   1.419 -0.1166 -0.4916  0.2867
12772TIP3    H159731   4.260   4.323   1.358  0.0120 -1.5464  0.8479
12772TIP3    H259732   4.263   4.400   1.488 -0.1515 -0.7911  0.4132
12773TIP3   OH259733   3.863   3.649  15.909 -0.5675  0.0408  0.0659
12773TIP3    H159734   3.940   3.662  15.853 -1.1009  0.7725 -0.5308
12773TIP3    H259735   3.791   3.635  15.847 -1.1239  0.6092  0.5757
12774TIP3   OH259736   6.288   3.069   0.065 -0.4094 -0.5494 -0.2753
12774TIP3    H159737   6.277   3.161   0.042  2.0199  0.2349  1.3929
12774TIP3    H259738   6.270   3.022  -0.016 -1.6051  1.3590 -1.1960
12775TIP3   OH259739   4.105   5.872   3.595  0.1993  0.6416 -0.1209
12775TIP3    H159740   4.048   5.848   3.667 -1.7055  1.8269 -1.1478
12775TIP3    H259741   4.111   5.793   3.541  1.1129 -0.0519  0.9678
12776TIP3   OH259742   3.837   3.851   2.141  0.2025  0.2535  0.5564
12776TIP3    H159743   3.792   3.841   2.057  0.2448 -0.1190  0.5759
12776TIP3    H259744   3.766   3.861   2.205  0.1706  0.5554  0.4778
12777TIP3   OH259745   2.064   0.762  12.739 -0.0341 -0.2918 -0.0615
12777TIP3    H159746   1.979   0.754  12.781 -0.4459 -1.1256 -1.0208
12777TIP3    H259747   2.117   0.693  12.778 -0.0844 -0.3704 -0.1312
12778TIP3   OH259748   2.011   4.930   2.498 -0.4431  0.7192 -0.6229
12778TIP3    H159749   2.023   4.887   2.583  1.9095  0.8339 -0.8267
12778TIP3    H259750   1.935   4.987   2.511 -2.7246 -2.2716  0.0916
12779TIP3   OH259751   2.688   5.054  12.593 -0.2785  0.6494  0.2460
12779TIP3    H159752   2.631   5.124  12.561  0.7491  2.3824  1.9816
12779TIP3    H259753   2.749   5.098  12.653  1.6160 -1.4416 -0.0052
12780TIP3   OH259754   5.588   4.897  14.936 -0.2458  0.5322 -0.6232
12780TIP3    H159755   5.639   4.956  14.881 -0.4788  1.3638  0.0269
12780TIP3    H259756   5.628   4.811  14.922  2.2618  1.3280  0.8590
12781TIP3   OH259757   2.886   6.362   5.888  0.0331  0.4044  0.2587
12781TIP3    H159758   2.839   6.443   5.867 -2.5663 -1.1376 -0.3174
12781TIP3    H259759   2.936   6.342   5.809 -1.5123  0.0586 -0.6811
12782TIP3   OH259760   3.816   0.994  12.943  0.1434 -0.6470  0.3849
12782TIP3    H159761   3.861   1.077  12.957 -1.3445  0.2258  0.1517
12782TIP3    H259762   3.804   0.959  13.032 -2.5464  1.2424  0.8886
12783TIP3   OH259763   2.591   1.212   3.520 -0.0694  0.3703  0.0920
12783TIP3    H159764   2.545   1.236   3.440  0.1921  0.1865 -0.1149
12783TIP3    H259765   2.647   1.138   3.495  1.3079  1.3844  0.0028
12784TIP3   OH259766   2.690   4.356  14.474  0.1469  0.4709  0.4146
12784TIP3    H159767   2.757   4.341  14.407 -0.6317 -0.8313 -0.1105
12784TIP3    H259768   2.715   4.299  14.546 -1.2008 -1.2546 -0.4046
12785TIP3   OH259769   0.910   6.499   0.517  0.0527 -0.0412  0.1604
12785TIP3    H159770   0.887   6.440   0.445 -0.5141  1.0724 -0.6021
12785TIP3    H259771   0.917   6.442   0.594 -1.5216 -0.9785 -0.3406
12786TIP3   OH259772   5.043   3.133   5.087  0.1268 -0.0783  0.3729
12786TIP3    H159773   5.096   3.138   5.007  0.3060 -0.1554  0.4885
12786TIP3    H259774   5.057   3.044   5.120  0.4347  0.1070  0.7531
12787TIP3   OH259775   5.247   3.056   0.332 -0.0261 -0.4508 -0.0095
12787TIP3    H159776   5.161   3.032   0.368  0.3819  0.2468  1.5411
12787TIP3    H259777   5.228   3.095   0.247 -1.1597 -1.1562 -0.0972
12788TIP3   OH259778   2.348   5.179   4.638 -0.0982 -0.4866  0.3523
12788TIP3    H159779   2.439   5.192   4.666 -0.6888  1.3970  1.6116
12788TIP3    H259780   2.353   5.177   4.542  1.3384 -1.2321  0.4092
12789TIP3   OH259781   5.460   1.469   3.861 -0.0171 -0.2929  0.0013
12789TIP3    H159782   5.433   1.468   3.770 -0.8977  1.7048  0.1850
12789TIP3    H259783   5.552   1.498   3.859  0.3726 -1.5143 -0.3007
12790TIP3   OH259784   5.344   5.571  16.843  0.6231 -0.4521 -0.3182
12790TIP3    H159785   5.432   5.540  16.866  0.1264 -1.1932  0.6932
12790TIP3    H259786   5.335   5.654  16.889  0.3863 -0.9400  0.5440
12791TIP3   OH259787   0.577   2.464   5.872  0.6850  0.0224 -0.6632
12791TIP3    H159788   0.527   2.525   5.815  1.5882  1.7200  0.2861
12791TIP3    H259789   0.540   2.478   5.959  2.5555  1.1055  0.0123
12792TIP3   OH259790   0.413   0.264  16.943 -0.2228  0.0497 -0.0019
12792TIP3    H159791   0.387   0.292  16.855  0.8813  1.9891  0.2195
12792TIP3    H259792   0.509   0.258  16.938 -0.2552 -1.2570  0.6937
12793TIP3   OH259793   2.559   1.264   4.389 -0.0708 -0.3920 -0.6925
12793TIP3    H159794   2.623   1.198   4.364 -1.5795 -2.0032 -0.5061
12793TIP3    H259795   2.549   1.253   4.484  0.2122  0.6506 -0.5228
12794TIP3   OH259796   1.638   1.287   3.544  0.3955 -0.2162  0.3386
12794TIP3    H159797   1.576   1.345   3.499 -0.9512 -1.3260  0.7118
12794TIP3    H259798   1.714   1.343   3.561 -0.5927  1.2616  0.1068
12795TIP3   OH259799   0.326   4.032  12.996  0.1292 -0.0879 -0.1131
12795TIP3    H159800   0.328   4.052  12.902 -0.4766  2.3526  0.3157
12795TIP3    H259801   0.396   3.968  13.008  1.3463  0.7909 -1.9696
12796TIP3   OH259802   2.420   5.969   0.270 -0.1192 -0.1106  0.0421
12796TIP3    H159803   2.464   6.027   0.333 -0.8651  1.4753 -0.8284
12796TIP3    H259804   2.378   5.903   0.325  0.8714  0.0731  1.0742
12797TIP3   OH259805   4.616   3.127   3.616  0.2538 -0.4050 -0.5633
12797TIP3    H159806   4.689   3.182   3.588  0.6857 -0.7303 -0.0678
12797TIP3    H259807   4.645   3.038   3.600  0.5534 -0.6063  1.0362
12798TIP3   OH259808   6.544   2.691   9.921  0.2435 -0.3683 -0.2111
12798TIP3    H159809   6.481   2.620   9.936  0.0630  0.1778  1.9974
12798TIP3    H259810   6.614   2.650   9.870 -0.3911 -1.8411  0.0270
12799TIP3   OH259811   3.687   4.058   5.448 -0.0998  0.5352 -0.0079
12799TIP3    H159812   3.625   3.986   5.442 -0.3204  0.8524 -3.2063
12799TIP3    H259813   3.637   4.136   5.424  1.1396  1.0111 -1.2131
12800TIP3   OH259814   6.638   3.791   0.093 -0.1588  0.8226 -0.7562
12800TIP3    H159815   6.716   3.823   0.140  0.5282 -0.1570 -1.1824
12800TIP3    H259816   6.594   3.870   0.062 -0.5804  1.5072  1.4250
12801TIP3   OH259817   5.384   0.196  15.196  0.3183  0.0984 -0.9451
12801TIP3    H159818   5.297   0.225  15.167 -0.2365  0.9462  1.3882
12801TIP3    H259819   5.392   0.228  15.286  3.1457  0.2003 -1.1362
12802TIP3   OH259820   2.918   4.446  11.927  0.1728  0.3581 -0.6652
12802TIP3    H159821   2.851   4.469  11.863 -0.7688  0.8078  0.4533
12802TIP3    H259822   2.939   4.355  11.909 -0.1560  0.4519 -1.5424
12803TIP3   OH259823   6.770   6.415   3.717 -0.9792 -0.2037  0.1690
12803TIP3    H159824   6.823   6.346   3.677  0.8470  0.6296  1.0321
12803TIP3    H259825   6.728   6.373   3.792 -0.5940 -0.6062  0.1629
12804TIP3   OH259826   0.719   0.732  11.482  0.1696 -0.1218  0.4052
12804TIP3    H159827   0.658   0.714  11.553 -0.7504  1.8183  0.1754
12804TIP3    H259828   0.684   0.811  11.440  2.3956  0.5813 -0.2442
12805TIP3   OH259829   4.304   6.001  12.909 -0.6917  0.0694  0.1027
12805TIP3    H159830   4.336   5.961  12.990  1.0062  0.8947 -0.1158
12805TIP3    H259831   4.233   5.944  12.880 -0.2527 -1.1341  1.3130
12806TIP3   OH259832   4.585   1.622   4.413  0.3743 -0.8951  0.6259
12806TIP3    H159833   4.605   1.713   4.437 -3.3805 -0.6285  3.6191
12806TIP3    H259834   4.579   1.623   4.317  1.6407  1.6499  0.4811
12807TIP3   OH259835   6.185   5.454  11.859  0.6959 -0.6122 -0.0393
12807TIP3    H159836   6.203   5.510  11.783  0.9318 -0.6134  0.0168
12807TIP3    H259837   6.270   5.418  11.884  0.3605 -2.0415 -0.8804
12808TIP3   OH259838   6.812   2.043   5.258 -0.1581 -0.4815 -0.4016
12808TIP3    H159839   6.842   2.130   5.236  0.8171 -0.8261 -0.4810
12808TIP3    H259840   6.875   2.011   5.322 -0.1970 -1.3239 -0.7661
12809TIP3   OH259841   5.985   2.264  10.233  0.3430 -1.0654  0.0510
12809TIP3    H159842   5.925   2.192  10.215 -2.0498  0.6246  0.7719
12809TIP3    H259843   6.016   2.249  10.322  0.9365 -1.8804 -0.2801
12810TIP3   OH259844   1.076   2.332  13.082 -0.5926  0.0552 -0.4064
12810TIP3    H159845   1.021   2.409  13.095  0.7299  1.3100 -1.8652
12810TIP3    H259846   1.014   2.261  13.067 -1.8499  1.2680 -1.2869
12811TIP3   OH259847   2.813   5.015  14.624 -0.1618 -0.2661  0.0042
12811TIP3    H159848   2.786   4.923  14.621  0.6532 -0.5043 -0.4652
12811TIP3    H259849   2.870   5.026  14.547 -1.1359  0.9320 -0.5812
12812TIP3   OH259850   6.428   2.142  11.959  0.2850 -0.0467  0.1426
12812TIP3    H159851   6.356   2.203  11.942  0.7623  0.2600 -0.8417
12812TIP3    H259852   6.445   2.101  11.874 -1.1585 -2.8381  1.0668
12813TIP3   OH259853   3.811   6.325   4.081 -0.0701 -0.3937 -0.1068
12813TIP3    H159854   3.798   6.235   4.110  1.4356 -1.4770 -2.4771
12813TIP3    H259855   3.772   6.379   4.150 -1.3199 -2.8456  1.2115
12814TIP3   OH259856   4.433   5.542   3.062  0.2123 -1.5555  0.0560
12814TIP3    H159857   4.367   5.478   3.089  1.5416 -1.8902  2.9037
12814TIP3    H259858   4.385   5.607   3.012 -1.8969 -2.7784  0.3752
12815TIP3   OH259859   1.323   2.209  14.703 -0.3389  0.1124 -0.3075
12815TIP3    H159860   1.295   2.174  14.787  1.1156  1.2137  0.6840
12815TIP3    H259861   1.250   2.263  14.673  0.4047  2.6042  2.0148
12816TIP3   OH259862   0.685   3.742   2.425 -0.3965  0.3567  0.1787
12816TIP3    H159863   0.685   3.745   2.329  1.4674  1.1180  0.1479
12816TIP3    H259864   0.704   3.832   2.452 -1.7635  0.3358  1.3095
12817TIP3   OH259865   2.655   6.571  13.460 -0.0195  0.9411  0.2322
12817TIP3    H159866   2.717   6.499  13.463  1.2460  2.0078  1.2310
12817TIP3    H259867   2.600   6.559  13.537  0.8240  1.5345  0.9543
12818TIP3   OH259868   5.378   4.472  14.162  0.2105  0.4568 -0.6887
12818TIP3    H159869   5.434   4.491  14.237 -1.6382 -2.2382  1.5574
12818TIP3    H259870   5.435   4.423  14.102  0.7068 -1.0420  0.9212
12819TIP3   OH259871   0.822   3.570  10.857  0.1650  0.3195  0.4305
12819TIP3    H159872   0.741   3.621  10.861  1.0235  1.7148  0.7112
12819TIP3    H259873   0.849   3.575  10.765  0.7928  1.2847  0.6537
12820TIP3   OH259874   6.258   6.337  10.659 -0.5535 -0.1659  0.4012
12820TIP3    H159875   6.225   6.344  10.570 -0.7427 -0.0042  0.4824
12820TIP3    H259876   6.314   6.414  10.670 -2.6652  1.3753  1.3057
12821TIP3   OH259877   1.250   0.173  13.429 -0.1693 -0.0379 -0.4254
12821TIP3    H159878   1.266   0.145  13.339  0.0884 -0.0083 -0.3900
12821TIP3    H259879   1.258   0.268  13.426  2.8834 -0.1641  0.1884
12822TIP3   OH259880   1.623   4.375   0.792 -0.0948 -0.6165  0.2346
12822TIP3    H159881   1.700   4.319   0.788  0.1606 -0.3021  0.6214
12822TIP3    H259882   1.610   4.392   0.885  0.3252  0.6250  0.0835
12823TIP3   OH259883   2.240   0.338  15.194 -0.3750  0.0579 -0.2235
12823TIP3    H159884   2.246   0.250  15.232 -1.8256  0.5232  1.2240
12823TIP3    H259885   2.197   0.324  15.109  0.3540 -0.7165 -0.4846
12824TIP3   OH259886   6.608   4.518   2.100  0.4977  0.3693 -0.0067
12824TIP3    H159887   6.582   4.474   2.019 -0.7870  0.6163  0.2560
12824TIP3    H259888   6.625   4.609   2.072 -3.1284  1.3520  0.4278
12825TIP3   OH259889   5.492   5.120   6.110 -0.1283  0.0349  0.2594
12825TIP3    H159890   5.500   5.056   6.038 -0.0051 -0.1268  0.4152
12825TIP3    H259891   5.453   5.197   6.070  1.0957  0.4136 -0.2688
12826TIP3   OH259892   6.524   4.672   3.030  0.4470  1.3578 -0.3919
12826TIP3    H159893   6.463   4.734   2.993 -0.2388  0.6402 -0.4955
12826TIP3    H259894   6.482   4.643   3.112 -0.6959 -1.1406 -1.7497
12827TIP3   OH259895   2.540   6.811  15.717 -0.1388  0.7112 -0.2762
12827TIP3    H159896   2.492   6.841  15.640 -1.9710  2.0551  1.2721
12827TIP3    H259897   2.592   6.887  15.745  0.5375  0.2294 -0.2029
12828TIP3   OH259898   4.343   6.589  13.138  0.5299  0.0703 -0.3041
12828TIP3    H159899   4.358   6.683  13.131 -0.9569  0.2654 -1.2938
12828TIP3    H259900   4.253   6.576  13.107  0.9932 -1.7764 -1.0483
12829TIP3   OH259901   6.622   0.803  11.113  0.2325  0.2695  0.0828
12829TIP3    H159902   6.547   0.830  11.165 -0.4185  1.3218 -1.3500
12829TIP3    H259903   6.608   0.710  11.097 -1.5332  0.7302 -1.3286
12830TIP3   OH259904   0.825   1.250   0.591 -0.0313  0.1304 -0.0994
12830TIP3    H159905   0.744   1.199   0.584  0.3937 -0.5569 -0.1976
12830TIP3    H259906   0.797   1.337   0.618 -0.5717 -0.8953  3.0516
12831TIP3   OH259907   3.804   4.580  14.393 -0.8019 -0.4382  0.1511
12831TIP3    H159908   3.882   4.631  14.413 -0.6670  0.0969 -1.5225
12831TIP3    H259909   3.736   4.616  14.449 -0.4683  0.9419 -0.3014
12832TIP3   OH259910   1.169   4.440  13.100 -0.1097 -0.0772 -0.1358
12832TIP3    H159911   1.187   4.349  13.123 -0.5708 -0.4055 -1.0416
12832TIP3    H259912   1.111   4.471  13.170 -1.9776 -1.2409 -1.0985
12833TIP3   OH259913   5.834   3.561   5.279  0.0519  0.3716  0.6516
12833TIP3    H159914   5.851   3.644   5.323  2.2028  0.4141 -0.1553
12833TIP3    H259915   5.901   3.555   5.211  0.3413 -2.2993  1.0500
12834TIP3   OH259916   3.756   0.577  12.987 -0.1470  0.2666 -0.0317
12834TIP3    H159917   3.736   0.498  13.036 -0.7804  0.4916  0.0790
12834TIP3    H259918   3.698   0.644  13.023  0.7484  0.9193  0.2403
12835TIP3   OH259919   2.961   2.844  16.525  0.1422 -0.2980  0.6615
12835TIP3    H159920   2.943   2.787  16.600 -0.9879 -0.8544 -0.0181
12835TIP3    H259921   2.902   2.814  16.456 -0.2762  1.4905  0.1777
12836TIP3   OH259922   1.262   4.331  11.575  0.4361  0.0173 -0.2747
12836TIP3    H159923   1.238   4.260  11.633 -0.4045  0.3826 -0.1545
12836TIP3    H259924   1.240   4.411  11.624  3.5051  0.4823  0.5571
12837TIP3   OH259925   5.238   5.465   3.643  0.0369 -0.2910  0.3375
12837TIP3    H159926   5.144   5.480   3.655 -0.0029  0.5731 -0.9356
12837TIP3    H259927   5.243   5.378   3.602 -0.0615 -1.2108  2.1517
12838TIP3   OH259928   3.009   0.765   2.618 -0.2932  0.0921 -0.0448
12838TIP3    H159929   3.102   0.751   2.602 -0.2378  1.5094 -1.1881
12838TIP3    H259930   2.984   0.834   2.556 -1.6845  1.0557  1.5004
12839TIP3   OH259931   0.213   6.091  10.896  0.4956  0.4911  0.1638
12839TIP3    H159932   0.149   6.054  10.957  0.5247  0.6591  0.2972
12839TIP3    H259933   0.164   6.100  10.814  1.0855 -1.9160 -0.5216
12840TIP3   OH259934   4.010   6.744   2.657 -0.4538  0.2934 -0.5826
12840TIP3    H159935   4.037   6.715   2.744 -2.1655 -0.0949 -0.1465
12840TIP3    H259936   4.034   6.672   2.599 -0.0334  0.2106 -0.3138
12841TIP3   OH259937   3.253   2.431   4.242 -0.2052 -0.1452  0.2092
12841TIP3    H159938   3.236   2.361   4.305 -0.9361  0.4528  0.6775
12841TIP3    H259939   3.261   2.385   4.158  0.7041 -0.9339  0.7067
12842TIP3   OH259940   1.810   1.304  16.513  0.0335  0.3506 -0.1456
12842TIP3    H159941   1.717   1.284  16.524 -0.5122  1.4608 -2.2367
12842TIP3    H259942   1.827   1.288  16.421  1.7695  0.8084  0.0695
12843TIP3   OH259943   5.881   1.280  15.394 -0.6107 -0.2922 -0.0321
12843TIP3    H159944   5.791   1.247  15.394 -1.0802  0.6083  3.0335
12843TIP3    H259945   5.878   1.358  15.338 -1.7038 -0.3887 -0.1337
12844TIP3   OH259946   6.477   1.366  14.722 -0.7287 -0.1224  0.4033
12844TIP3    H159947   6.525   1.427  14.779 -0.9457 -1.7559  2.4362
12844TIP3    H259948   6.510   1.386  14.634  1.3794  0.9386  1.3392
12845TIP3   OH259949   4.351   0.556  12.056 -0.0982 -0.3909  0.8348
12845TIP3    H159950   4.323   0.514  12.137 -1.2266  1.1955  1.3037
12845TIP3    H259951   4.304   0.639  12.054  0.9686  0.2237 -0.7703
12846TIP3   OH259952   5.947   5.808  16.341  0.0082 -0.3271  0.4874
12846TIP3    H159953   5.857   5.782  16.321  0.3750 -1.0628 -0.2674
12846TIP3    H259954   5.994   5.801  16.258  0.6329  0.6591  0.7323
12847TIP3   OH259955   3.184   4.257   3.878  0.3312 -0.0738  0.0213
12847TIP3    H159956   3.165   4.265   3.971  0.1319 -3.8589  0.4636
12847TIP3    H259957   3.270   4.216   3.874  1.1551  1.6627 -1.5813
12848TIP3   OH259958   1.275   3.744   5.896  0.4378  0.4933  0.2752
12848TIP3    H159959   1.210   3.789   5.949  0.8718 -0.0423  1.2868
12848TIP3    H259960   1.292   3.804   5.823  0.6136  1.7293  1.3063
12849TIP3   OH259961   6.342   1.979   2.755 -0.6880 -0.1446  0.2150
12849TIP3    H159962   6.299   2.036   2.691  1.3201  0.6122 -0.5354
12849TIP3    H259963   6.286   1.902   2.760 -0.3513 -0.7779 -3.4072
12850TIP3   OH259964   6.484   5.868   2.086  0.0774 -0.2302 -0.4530
12850TIP3    H159965   6.565   5.864   2.035  0.4294  2.1371 -0.2122
12850TIP3    H259966   6.445   5.953   2.062 -0.3332  0.4329  2.2952
12851TIP3   OH259967   4.479   5.983   0.162  0.0957 -0.0012 -0.1261
12851TIP3    H159968   4.486   5.987   0.258  0.3662 -1.5392 -0.0529
12851TIP3    H259969   4.486   5.890   0.142  0.3806  0.3341 -1.6828
12852TIP3   OH259970   4.670   0.568   0.318  0.4322 -0.5105  0.1599
12852TIP3    H159971   4.673   0.609   0.231 -0.0447 -1.7135 -0.4469
12852TIP3    H259972   4.761   0.564   0.346  0.6757 -0.8832 -0.6653
12853TIP3   OH259973   1.502   0.325  16.805  0.3721 -0.4724  0.5766
12853TIP3    H159974   1.438   0.396  16.815  2.0608  1.1339  0.5150
12853TIP3    H259975   1.458   0.248  16.841 -1.9003  0.3549 -0.2422
12854TIP3   OH259976   1.670   0.526  13.285 -0.2638 -0.2956 -0.1109
12854TIP3    H159977   1.651   0.570  13.202  3.8607  0.8791 -0.6647
12854TIP3    H259978   1.678   0.598  13.348  0.3974 -0.8359  0.4290
12855TIP3   OH259979   2.168   4.027  15.116 -0.0176  0.3863 -0.3924
12855TIP3    H159980   2.189   4.071  15.033 -0.7605 -0.6700 -1.1626
12855TIP3    H259981   2.078   4.055  15.134 -0.1932 -0.1410 -0.4483
12856TIP3   OH259982   0.982   4.039   0.396 -0.2923  0.2526  0.0772
12856TIP3    H159983   1.055   4.093   0.368 -1.2541  0.9952 -1.1145
12856TIP3    H259984   1.008   3.949   0.374  0.0664  0.5592 -0.8008
12857TIP3   OH259985   5.447   2.528  15.867  0.1473 -0.4193 -0.2451
12857TIP3    H159986   5.525   2.555  15.915 -0.6307  0.5013  0.5430
12857TIP3    H259987   5.467   2.439  15.837  1.6840 -0.0187 -0.5059
12858TIP3   OH259988   5.518   2.866   5.654  0.0164  0.0861 -0.7887
12858TIP3    H159989   5.565   2.805   5.597 -3.2086 -3.5213  0.0173
12858TIP3    H259990   5.557   2.853   5.740  0.2063  0.1987 -0.8560
12859TIP3   OH259991   4.399   3.342  15.633 -0.3433  0.7147  0.6327
12859TIP3    H159992   4.382   3.427  15.592 -1.0278 -0.4105 -1.5497
12859TIP3    H259993   4.312   3.309  15.656 -0.3198 -0.3710 -0.6945
12860TIP3   OH259994   6.240   0.722  14.414  0.1494 -0.1432 -0.2512
12860TIP3    H159995   6.288   0.669  14.350  0.0794  0.3600 -0.7296
12860TIP3    H259996   6.193   0.786  14.361  0.4117  0.5470  0.3395
12861TIP3   OH259997   4.290   6.170   0.093 -0.4756  0.3786  0.2841
12861TIP3    H159998   4.349   6.116   0.145 -0.0939  0.6027  0.0881
12861TIP3    H259999   4.255   6.234   0.155 -0.2738  0.4391  0.3365
12862TIP3   OH260000   6.792   4.081  13.655 -0.0136 -0.5559  0.1597
12862TIP3    H160001   6.826   4.040  13.575 -0.6363 -0.9153  0.0690
12862TIP3    H260002   6.864   4.135  13.687  1.5448 -3.1304  1.3240
12863TIP3   OH260003   4.661   2.918   4.281 -0.2980 -0.5781 -0.1758
12863TIP3    H160004   4.572   2.882   4.283 -0.0124 -1.3174  2.7100
12863TIP3    H260005   4.706   2.877   4.354  2.7043 -0.7402 -1.9484
12864TIP3   OH260006   5.707   6.400   3.813  0.1243  0.1460 -0.0968
12864TIP3    H160007   5.757   6.348   3.750  0.2587 -0.9673  0.8861
12864TIP3    H260008   5.772   6.453   3.858  0.4312 -1.0610  0.9538
12865TIP3   OH260009   4.006   3.326   1.352  0.3378 -0.1475 -0.9719
12865TIP3    H160010   3.994   3.385   1.279 -1.0656 -0.2323 -0.8398
12865TIP3    H260011   3.932   3.345   1.411 -0.2411 -2.0867 -0.9988
12866TIP3   OH260012   6.396   4.182  12.016 -0.1746 -0.1908 -0.4011
12866TIP3    H160013   6.311   4.211  11.982 -0.1133 -0.4653 -0.8017
12866TIP3    H260014   6.434   4.259  12.057 -0.9048 -0.2279  0.3668
12867TIP3   OH260015   3.400   2.789  13.171  0.1415 -0.3809 -0.3935
12867TIP3    H160016   3.480   2.839  13.155  0.1845 -0.6535 -1.0232
12867TIP3    H260017   3.399   2.778  13.266  1.1486 -0.8585 -0.4253
12868TIP3   OH260018   0.745   5.497  13.167 -0.1036  0.0168 -0.4639
12868TIP3    H160019   0.765   5.546  13.246  1.5641 -0.4115 -0.5706
12868TIP3    H260020   0.679   5.549  13.122  0.5851  1.4258  0.1156
12869TIP3   OH260021   2.782   0.042  14.065 -0.0173  0.0645 -0.0754
12869TIP3    H160022   2.734  -0.028  14.021 -0.0087 -0.8565  1.3519
12869TIP3    H260023   2.714   0.096  14.105 -0.0458  1.1141 -1.4563
12870TIP3   OH260024   4.321   2.841  16.556 -0.4589 -0.3364 -1.4605
12870TIP3    H160025   4.349   2.758  16.594 -1.8135 -0.5326 -0.8303
12870TIP3    H260026   4.242   2.819  16.505 -1.8179  0.7883  0.0571
12871TIP3   OH260027   3.045   2.722   3.004  0.0608  0.0035  0.2093
12871TIP3    H160028   2.950   2.726   3.014 -0.0182  1.5063 -0.7642
12871TIP3    H260029   3.061   2.641   2.956 -0.7174 -0.2834  0.4161
12872TIP3   OH260030   0.937   3.184   2.499  0.1740  0.5438  0.1691
12872TIP3    H160031   0.992   3.227   2.565 -1.3758 -0.1560  1.9890
12872TIP3    H260032   0.855   3.165   2.545 -1.3385  0.8863 -2.2417
12873TIP3   OH260033   0.683   0.266  16.929 -0.2885 -0.0286 -0.3301
12873TIP3    H160034   0.726   0.255  17.014 -1.2665 -0.2719  0.1489
12873TIP3    H260035   0.738   0.329  16.883  0.2433  0.1321  0.4990
12874TIP3   OH260036   4.286   4.486  14.083 -0.3516  0.6498 -0.0130
12874TIP3    H160037   4.335   4.560  14.117 -3.1431  3.2144 -1.0877
12874TIP3    H260038   4.276   4.427  14.158  3.3596  0.4001  0.4516
12875TIP3   OH260039   4.132   1.437   2.194  0.5885 -0.7560  0.1643
12875TIP3    H160040   4.188   1.460   2.121  1.4395 -1.6890  0.4922
12875TIP3    H260041   4.185   1.455   2.272 -0.4747  0.6910  0.5993
12876TIP3   OH260042   2.364   2.965   1.235  0.6422 -0.3007 -0.0967
12876TIP3    H160043   2.292   2.941   1.177  0.3189  0.6004 -0.0868
12876TIP3    H260044   2.442   2.927   1.195  0.3403 -0.1732 -0.8066
12877TIP3   OH260045   3.574   6.744   0.086  0.4519  0.3666  0.3760
12877TIP3    H160046   3.649   6.759   0.028  0.8771 -0.5821  0.6715
12877TIP3    H260047   3.589   6.657   0.123 -1.2792 -0.2613 -0.2954
12878TIP3   OH260048   6.740   6.530   1.585 -0.3668 -0.4050  0.3317
12878TIP3    H160049   6.669   6.495   1.532 -0.0192  1.1317 -1.2533
12878TIP3    H260050   6.696   6.567   1.662 -1.0947 -0.9594  0.1897
12879TIP3   OH260051   5.804   6.643  17.173 -0.4169  0.5875 -0.7287
12879TIP3    H160052   5.735   6.580  17.193  0.0339 -0.0673 -1.1908
12879TIP3    H260053   5.769   6.727  17.202 -0.2280 -0.1283  1.7825
12880TIP3   OH260054   5.961   3.177   1.447  0.0952 -0.3187 -0.2666
12880TIP3    H160055   6.023   3.173   1.374  0.9690  0.8685  0.3646
12880TIP3    H260056   5.995   3.247   1.503 -2.8884  1.7885 -0.8654
12881TIP3   OH260057   5.312   6.567   2.928  0.1014  0.3921 -0.3245
12881TIP3    H160058   5.396   6.605   2.955 -0.7362  1.0470  1.6004
12881TIP3    H260059   5.258   6.643   2.906 -0.3413  0.0534 -0.4111
12882TIP3   OH260060   0.516   2.142   4.126  0.5980  0.2512  0.2161
12882TIP3    H160061   0.438   2.087   4.124  0.1997  0.7897  0.5997
12882TIP3    H260062   0.566   2.116   4.049 -0.2546  0.3095 -0.3654
12883TIP3   OH260063   0.934   2.146  12.214 -0.3764 -0.0287  0.4846
12883TIP3    H160064   0.921   2.115  12.124 -1.2469  0.7820  0.3170
12883TIP3    H260065   1.020   2.188  12.212  0.3645 -1.4597  0.4660
12884TIP3   OH260066   6.265   0.462   4.728  0.0551  0.3239  0.1396
12884TIP3    H160067   6.341   0.414   4.694 -1.4319 -2.2604  0.2045
12884TIP3    H260068   6.195   0.444   4.665 -0.6760  2.2364  0.3493
12885TIP3   OH260069   3.669   2.898  11.410  0.1819 -0.0613 -0.1485
12885TIP3    H160070   3.724   2.825  11.382  0.8671 -0.3798  1.8150
12885TIP3    H260071   3.710   2.975  11.371  0.6689 -0.5290 -0.5811
12886TIP3   OH260072   4.270   1.599   2.717  0.0527  0.5721 -0.2482
12886TIP3    H160073   4.324   1.671   2.687  0.9231  0.2529  0.5228
12886TIP3    H260074   4.204   1.640   2.773 -0.0200  0.8623 -0.5394
12887TIP3   OH260075   5.136   5.943   6.288 -0.3600  0.4539  0.1060
12887TIP3    H160076   5.192   5.897   6.350 -0.2301  1.0725  0.4569
12887TIP3    H260077   5.047   5.931   6.322 -0.1282  2.4896  1.5746
12888TIP3   OH260078   4.690   3.353  16.277  0.0360 -0.5016 -0.4306
12888TIP3    H160079   4.742   3.374  16.199 -0.4706  1.0308 -0.3884
12888TIP3    H260080   4.603   3.386  16.257 -0.2401 -0.5848  0.5775
12889TIP3   OH260081   5.752   0.231   3.376  0.5975 -0.5861  0.4199
12889TIP3    H160082   5.675   0.285   3.357  1.1794 -0.1725 -0.8802
12889TIP3    H260083   5.825   0.292   3.371  0.9040 -0.4269  3.9930
12890TIP3   OH260084   1.175   3.558   6.435  0.1992  0.0326  0.1870
12890TIP3    H160085   1.134   3.509   6.364 -0.4591 -1.1307  1.3161
12890TIP3    H260086   1.208   3.638   6.394 -3.2490  1.1223 -0.7930
12891TIP3   OH260087   4.759   6.610  10.376  0.2256  0.2013  0.1202
12891TIP3    H160088   4.791   6.582  10.461 -1.3970 -1.5087  0.2308
12891TIP3    H260089   4.737   6.529  10.330 -1.5129  1.1625 -0.8545
12892TIP3   OH260090   6.548   4.945   0.472 -0.0983 -0.1278  0.2271
12892TIP3    H160091   6.514   4.978   0.388  0.0732  0.1086  0.2484
12892TIP3    H260092   6.581   4.857   0.451  0.5937  0.2020 -0.1196
12893TIP3   OH260093   6.405   6.474  11.226 -0.4763 -0.3024  0.0955
12893TIP3    H160094   6.399   6.540  11.295 -0.7475 -0.0495 -0.1707
12893TIP3    H260095   6.497   6.475  11.200 -0.5421  0.1990 -0.1293
12894TIP3   OH260096   5.223   2.927   2.030 -0.2304 -0.9913  0.1242
12894TIP3    H160097   5.221   2.912   1.935 -1.1964 -1.8245  0.2503
12894TIP3    H260098   5.147   2.984   2.046 -0.2782 -1.1455  0.4385
12895TIP3   OH260099   5.312   2.224   5.289  0.0073 -0.2877 -0.4254
12895TIP3    H160100   5.382   2.286   5.270 -0.0028 -0.8702 -2.6402
12895TIP3    H260101   5.233   2.277   5.293  0.1081 -0.0450 -1.5068
12896TIP3   OH260102   0.128   3.832   1.122 -0.1268  0.2642  0.0058
12896TIP3    H160103   0.203   3.789   1.081  1.0395  1.3698  0.8980
12896TIP3    H260104   0.129   3.921   1.088 -2.3202 -0.2281 -1.5673
12897TIP3   OH260105   4.785   1.743   2.373  0.1764  0.3881  0.7495
12897TIP3    H160106   4.755   1.824   2.331  0.4713  0.3414  0.4370
12897TIP3    H260107   4.862   1.717   2.321  0.6829  0.4481  1.4507
12898TIP3   OH260108   2.851   0.145   1.584  0.4969  0.1367 -0.0122
12898TIP3    H160109   2.885   0.162   1.497 -1.5594  0.4049 -0.8113
12898TIP3    H260110   2.762   0.115   1.570  0.3922 -0.6513  1.9691
12899TIP3   OH260111   2.683   1.178   0.773  0.4211  0.1384 -0.3173
12899TIP3    H160112   2.758   1.197   0.830  1.2693 -1.1061 -0.9748
12899TIP3    H260113   2.617   1.242   0.798  1.0952  0.1814  1.4496
12900TIP3   OH260114   1.917   3.836  11.917  0.5729  0.5354 -0.1327
12900TIP3    H160115   1.854   3.897  11.956 -0.4252 -1.4039  1.4612
12900TIP3    H260116   1.870   3.798  11.843 -0.6340 -1.6332  1.6316
12901TIP3   OH260117   0.352   2.201  11.909  0.6308  0.4629  0.3062
12901TIP3    H160118   0.270   2.159  11.932  0.4929 -0.6326 -1.9653
12901TIP3    H260119   0.405   2.196  11.989 -1.4672  1.2510  1.8322
12902TIP3   OH260120   2.645   5.990   4.574  0.1512 -0.3296  0.2061
12902TIP3    H160121   2.563   5.949   4.547 -0.9986 -0.6520  3.6659
12902TIP3    H260122   2.621   6.080   4.597  1.3409  0.3827 -1.2138
12903TIP3   OH260123   2.689   6.441  14.675 -0.1363  0.0755  0.5379
12903TIP3    H160124   2.745   6.511  14.641  1.1127 -0.9118  0.4858
12903TIP3    H260125   2.600   6.470  14.657  0.4140  0.9202 -0.9409
12904TIP3   OH260126   2.342   4.096   5.520 -0.1843 -0.7468  0.0276
12904TIP3    H160127   2.313   4.184   5.495  1.7223  0.0914  0.5921
12904TIP3    H260128   2.287   4.072   5.595 -0.3474  0.1832  0.2113
12905TIP3   OH260129   5.737   2.240  15.947  0.0353  0.0399 -0.1070
12905TIP3    H160130   5.706   2.282  15.866 -0.4313  0.8709  0.4865
12905TIP3    H260131   5.726   2.307  16.014 -0.7370 -1.0241  0.8778
12906TIP3   OH260132   1.858   4.287  10.642 -0.9503 -0.0170  0.2412
12906TIP3    H160133   1.790   4.224  10.663  0.9905 -1.9203  1.2294
12906TIP3    H260134   1.933   4.233  10.616  0.3681  1.9480 -0.2420
12907TIP3   OH260135   0.182   6.212   2.211 -0.4590 -0.1911 -0.2556
12907TIP3    H160136   0.224   6.272   2.272  0.4956 -0.4133 -0.6730
12907TIP3    H260137   0.102   6.257   2.184  0.0621  0.7303 -0.2912
12908TIP3   OH260138   4.678   0.056  14.344 -0.3522  0.3624 -0.1576
12908TIP3    H160139   4.667   0.122  14.413 -2.9531 -1.6605  1.5651
12908TIP3    H260140   4.589   0.027  14.324  0.6132 -1.8102 -1.6775
12909TIP3   OH260141   0.333   2.158   2.288  0.3365 -0.3984  0.8479
12909TIP3    H160142   0.312   2.230   2.348  0.9174  0.4265  0.0925
12909TIP3    H260143   0.278   2.175   2.211  1.2292 -0.1520  0.2416
12910TIP3   OH260144   3.305   6.759   0.091  0.1157 -0.0689 -0.4956
12910TIP3    H160145   3.292   6.709   0.010  1.6056 -3.0329  0.9062
12910TIP3    H260146   3.398   6.781   0.090  0.3938 -1.0410  0.7903
12911TIP3   OH260147   6.807   6.076   1.682 -0.2395  0.0112 -0.0011
12911TIP3    H160148   6.873   6.007   1.671 -0.0075  0.2197  0.0837
12911TIP3    H260149   6.739   6.035   1.736 -1.5561 -1.1332 -2.3463
12912TIP3   OH260150   2.035   0.509   1.238  0.5151 -0.7085 -0.3114
12912TIP3    H160151   2.095   0.456   1.291 -1.3460 -1.7025  0.9497
12912TIP3    H260152   2.022   0.458   1.158 -1.1596 -2.2342  0.8381
12913TIP3   OH260153   0.178   0.243  16.280  0.6285  0.5584 -0.0473
12913TIP3    H160154   0.172   0.277  16.191 -4.0804  0.6951  0.0969
12913TIP3    H260155   0.160   0.149  16.271  0.0968  0.5800  0.7401
12914TIP3   OH260156   2.895   1.524   2.761  0.4684 -0.1572  0.0051
12914TIP3    H160157   2.952   1.531   2.685 -0.8176 -0.9528 -1.0857
12914TIP3    H260158   2.871   1.614   2.782 -0.0343  0.0186 -1.2511
12915TIP3   OH260159   6.666   0.063   5.496 -0.4498 -0.2972  0.4443
12915TIP3    H160160   6.734   0.015   5.544  0.1870  3.5611  3.9874
12915TIP3    H260161   6.586   0.048   5.546 -1.3709 -1.4273 -1.2662
12916TIP3   OH260162   1.744   1.170  15.892 -0.2039 -0.6075 -0.0246
12916TIP3    H160163   1.753   1.216  15.809 -0.7509  0.1678  0.3381
12916TIP3    H260164   1.780   1.082  15.875 -2.9480 -1.4866 -1.9472
12917TIP3   OH260165   4.532   4.380   0.892  0.5705 -0.6791 -0.7548
12917TIP3    H160166   4.617   4.345   0.919  0.5427 -0.4301 -0.3398
12917TIP3    H260167   4.484   4.390   0.974 -0.7813 -3.2073 -1.1360
12918TIP3   OH260168   4.266   5.627  10.623  0.3250  0.2837  0.2138
12918TIP3    H160169   4.228   5.540  10.624 -3.3385  1.6535 -1.3716
12918TIP3    H260170   4.304   5.636  10.535  1.6168  0.0140  0.7168
12919TIP3   OH260171   3.832   0.237   4.048  0.1314 -0.2769  0.1812
12919TIP3    H160172   3.842   0.173   4.118 -1.1119 -0.9829 -0.2630
12919TIP3    H260173   3.862   0.320   4.087 -1.0003 -0.5502  1.7234
12920TIP3   OH260174   1.507   6.616  13.991 -0.3466  0.1825 -0.0891
12920TIP3    H160175   1.596   6.598  13.961  0.0355 -1.1002  1.6191
12920TIP3    H260176   1.510   6.600  14.085 -2.1063  1.3372  0.2114
12921TIP3   OH260177   4.446   6.050  13.360  0.3942 -0.5355  0.7380
12921TIP3    H160178   4.369   6.093  13.324 -0.3140 -0.6819  1.9896
12921TIP3    H260179   4.443   6.071  13.454  1.7166 -0.7954  0.8583
12922TIP3   OH260180   0.963   5.447  14.388 -0.2412  0.8866  0.2909
12922TIP3    H160181   1.031   5.505  14.355  2.9305 -1.8374  1.4361
12922TIP3    H260182   0.937   5.395  14.311  0.7130  0.4017  0.2826
12923TIP3   OH260183   5.043   5.432   1.880 -0.4740 -0.2522  0.7956
12923TIP3    H160184   5.087   5.517   1.884 -1.8737  0.5738 -0.3849
12923TIP3    H260185   5.058   5.401   1.791 -3.6640  0.9091 -0.2786
12924TIP3   OH260186   2.468   4.347  12.206 -0.3684 -0.2395  0.1774
12924TIP3    H160187   2.439   4.438  12.210 -1.5817 -0.3877 -2.6737
12924TIP3    H260188   2.544   4.343  12.265  0.0742  2.7560 -0.0373
12925TIP3   OH260189   4.415   0.859   3.958  0.5072 -0.1616 -0.1347
12925TIP3    H160190   4.443   0.770   3.979 -1.2169 -0.5580  0.6464
12925TIP3    H260191   4.454   0.913   4.026  0.9156 -0.4192 -0.1596
12926TIP3   OH260192   1.652   1.971   4.649 -0.6904 -0.0420 -0.1408
12926TIP3    H160193   1.577   1.941   4.701 -0.0903 -1.2728  0.0498
12926TIP3    H260194   1.654   2.066   4.662 -1.0096 -0.2316  1.4681
12927TIP3   OH260195   3.608   4.882  14.233 -0.4975 -0.4573  0.1980
12927TIP3    H160196   3.589   4.971  14.204 -1.4558 -1.2008 -1.6183
12927TIP3    H260197   3.656   4.894  14.315 -2.2622  1.6846  1.0328
12928TIP3   OH260198   4.310   1.327  17.081 -0.0701 -0.0701  0.5424
12928TIP3    H160199   4.337   1.239  17.107  0.0904  0.1502  1.1505
12928TIP3    H260200   4.369   1.350  17.009 -1.6032 -1.3397 -1.2037
12929TIP3   OH260201   0.676   1.391   1.935  0.0247 -0.1589 -0.2341
12929TIP3    H160202   0.617   1.448   1.984 -0.8239 -1.4361  0.2715
12929TIP3    H260203   0.763   1.429   1.948 -0.4990  0.9125  0.2281
12930TIP3   OH260204   3.989   4.491  15.174 -0.6095  0.8954 -0.2438
12930TIP3    H160205   4.046   4.542  15.116 -1.6067 -0.0194 -2.1518
12930TIP3    H260206   4.041   4.414  15.196 -0.1522  1.3384  0.2328
12931TIP3   OH260207   4.573   0.727   2.139 -0.0001  0.2942 -0.5919
12931TIP3    H160208   4.480   0.736   2.117 -0.3889  1.5154  1.2688
12931TIP3    H260209   4.607   0.667   2.074 -1.5561  1.6339 -2.7916
12932TIP3   OH260210   3.010   1.176   3.280 -0.7384 -0.0212 -0.6233
12932TIP3    H160211   2.966   1.259   3.294 -0.3010 -0.0018  0.8124
12932TIP3    H260212   3.015   1.166   3.185 -0.5641  1.7092 -0.8133
12933TIP3   OH260213   3.192   4.669  16.341  0.0607 -0.5937 -0.2990
12933TIP3    H160214   3.226   4.719  16.267  0.8032 -0.5356  0.0708
12933TIP3    H260215   3.198   4.577  16.314 -2.1516 -0.4897 -1.3403
12934TIP3   OH260216   5.999   6.591  16.604 -0.4522  0.4155  0.1652
12934TIP3    H160217   6.032   6.674  16.638 -2.1479  0.4530  1.9352
12934TIP3    H260218   6.001   6.532  16.680  0.9601 -1.2919 -1.1016
12935TIP3   OH260219   3.172   2.763  15.990  0.4357 -0.2852  0.1840
12935TIP3    H160220   3.256   2.786  16.030 -0.0458  0.6422  0.7219
12935TIP3    H260221   3.107   2.789  16.056 -0.3104 -0.1673 -0.5789
12936TIP3   OH260222   6.691   0.721   2.037  0.2368 -0.5959  0.0669
12936TIP3    H160223   6.747   0.654   1.999  0.0561 -2.1678  2.4043
12936TIP3    H260224   6.608   0.713   1.990  0.9095 -0.4279 -1.1963
12937TIP3   OH260225   3.138   6.345   0.379 -0.5930  0.1839 -0.2555
12937TIP3    H160226   3.107   6.267   0.424  1.1269 -0.4771 -0.1430
12937TIP3    H260227   3.093   6.344   0.294 -2.5230  0.4890  0.7099
12938TIP3   OH260228   0.730   4.476  16.388  0.0345 -0.0516  0.5088
12938TIP3    H160229   0.678   4.406  16.349 -0.3861  0.8928 -0.6410
12938TIP3    H260230   0.676   4.554  16.381  1.2296  0.7594  0.1328
12939TIP3   OH260231   0.381   6.034  12.094  1.0599  0.4769 -0.3835
12939TIP3    H160232   0.423   5.991  12.019 -2.9459 -1.1766 -1.9957
12939TIP3    H260233   0.364   5.963  12.155 -1.1513  0.5996 -0.7777
12940TIP3   OH260234   1.663   4.312  16.884  0.3474 -0.1773  0.3792
12940TIP3    H160235   1.662   4.276  16.973  0.4727 -2.7829 -0.5825
12940TIP3    H260236   1.742   4.275  16.845  0.9532  1.9014 -0.4919
12941TIP3   OH260237   5.923   1.102   4.168 -0.1874  0.6991  0.1266
12941TIP3    H160238   5.864   1.081   4.240  0.5777 -0.6174  0.4080
12941TIP3    H260239   6.010   1.103   4.208  0.2428  0.0087 -0.7573
12942TIP3   OH260240   0.066   1.201  14.217  0.1990  0.0182  0.0932
12942TIP3    H160241   0.053   1.142  14.291 -2.7433  1.9126  1.2312
12942TIP3    H260242   0.120   1.272  14.252  1.8312 -0.7767 -0.6658
12943TIP3   OH260243   0.974   1.385   0.262  0.9204  0.5385  0.0569
12943TIP3    H160244   0.910   1.446   0.299  1.0066  1.1751 -0.8050
12943TIP3    H260245   0.959   1.390   0.168  0.4777 -1.2969 -0.0043
12944TIP3   OH260246   4.100   3.359   2.168  0.3038  0.2674  0.0080
12944TIP3    H160247   4.084   3.429   2.231  0.0174 -0.3078  0.5805
12944TIP3    H260248   4.013   3.333   2.137  0.4857  1.1225 -1.2714
12945TIP3   OH260249   0.105   1.824  15.286 -0.0157 -0.5235  0.2031
12945TIP3    H160250   0.169   1.762  15.249  0.3882  0.8671 -1.5670
12945TIP3    H260251   0.147   1.909  15.280 -2.4012  0.6337 -2.1505
12946TIP3   OH260252   6.135   4.020  14.657  0.6703 -0.0440 -0.2358
12946TIP3    H160253   6.124   4.037  14.564  0.1010 -2.3154 -0.6356
12946TIP3    H260254   6.048   3.995  14.687  1.4389 -2.4381  0.1649
12947TIP3   OH260255   4.550   4.875  15.383  0.1551  0.0707  0.1717
12947TIP3    H160256   4.511   4.852  15.299 -0.8133 -2.0161  1.1257
12947TIP3    H260257   4.571   4.968  15.375 -0.9363  0.1900 -1.9692
12948TIP3   OH260258   1.123   2.954   0.135 -0.2033 -0.0988 -0.2896
12948TIP3    H160259   1.203   2.922   0.093 -1.4944 -1.5894 -1.7407
12948TIP3    H260260   1.140   2.944   0.229  1.3089 -0.3386 -0.5580
12949TIP3   OH260261   2.874   6.548  16.308  0.0198  0.2083  0.0895
12949TIP3    H160262   2.809   6.478  16.306 -1.3741  1.4954 -1.1580
12949TIP3    H260263   2.863   6.588  16.394  0.0121 -0.3292  0.3464
12950TIP3   OH260264   5.235   2.340   2.818  0.6250  0.0703 -0.5649
12950TIP3    H160265   5.156   2.286   2.819 -0.6932  1.9077 -1.3486
12950TIP3    H260266   5.303   2.282   2.853 -0.5816 -2.2517 -1.7874
12951TIP3   OH260267   3.593   4.696   0.865 -0.3218 -0.1713 -0.2543
12951TIP3    H160268   3.547   4.635   0.807  1.0354 -0.6212 -0.9237
12951TIP3    H260269   3.543   4.695   0.946 -1.7367 -0.2520 -1.1073
12952TIP3   OH260270   4.002   1.311   3.814  0.1939  0.0383  0.5143
12952TIP3    H160271   4.082   1.355   3.786  0.0045  0.9206  1.2906
12952TIP3    H260272   3.987   1.344   3.903 -0.6991 -0.5778  0.6046
12953TIP3   OH260273   5.030   0.793  12.898 -0.3692  0.0586 -0.2195
12953TIP3    H160274   4.968   0.843  12.845 -2.1481 -1.0494  0.7361
12953TIP3    H260275   5.095   0.858  12.927 -1.4643  1.3956 -0.6574
12954TIP3   OH260276   5.365   0.567   2.297  0.0886  0.1396 -0.3008
12954TIP3    H160277   5.307   0.616   2.355  0.0187 -0.5826  0.2528
12954TIP3    H260278   5.308   0.502   2.256  0.3860 -0.1869 -0.2035
12955TIP3   OH260279   6.803   1.356   1.206  0.1536 -0.4710  0.3451
12955TIP3    H160280   6.726   1.311   1.241  0.9086 -1.3503  0.9164
12955TIP3    H260281   6.875   1.330   1.264  0.2760  3.2554  2.1544
12956TIP3   OH260282   1.110   1.838   5.412  0.0913  0.0281  0.0508
12956TIP3    H160283   1.137   1.766   5.355 -0.5829  0.4803 -0.8641
12956TIP3    H260284   1.185   1.852   5.470  0.3034 -1.2761  0.1247
12957TIP3   OH260285   5.464   1.841  14.721 -0.7600 -0.4618 -0.4828
12957TIP3    H160286   5.481   1.810  14.810  2.4701 -0.0537 -0.8363
12957TIP3    H260287   5.398   1.781  14.686 -2.0726 -0.6525  2.1258
12958TIP3   OH260288   3.032   1.268   2.632  0.2375 -0.2296 -0.2565
12958TIP3    H160289   3.108   1.229   2.587 -0.0663 -1.0001 -0.1301
12958TIP3    H260290   3.001   1.198   2.689 -1.2066 -0.2875 -1.0752
12959TIP3   OH260291   0.547   6.183   5.347  0.0032 -0.5067 -0.1220
12959TIP3    H160292   0.580   6.112   5.402 -1.6742 -1.1144  0.1456
12959TIP3    H260293   0.610   6.254   5.360  1.6641 -1.8808 -0.3133
12960TIP3   OH260294   1.449   1.729   5.279 -0.3056  0.2056  0.2461
12960TIP3    H160295   1.495   1.648   5.255 -0.4032 -0.0251  0.8091
12960TIP3    H260296   1.424   1.715   5.371  0.7161  1.3512  0.7199
12961TIP3   OH260297   1.693   0.192   1.623  0.1158  0.3587 -0.2226
12961TIP3    H160298   1.757   0.158   1.560  1.8152  0.1431  1.5100
12961TIP3    H260299   1.637   0.249   1.570  0.7549 -0.6547 -2.1206
12962TIP3   OH260300   0.814   0.474  16.763  0.3499  0.0852  0.3190
12962TIP3    H160301   0.726   0.508  16.746 -0.0369 -1.1443 -0.2338
12962TIP3    H260302   0.853   0.464  16.676  1.1331  0.8424  0.5705
12963TIP3   OH260303   2.945   3.523   4.505 -0.0326  0.5393  0.0992
12963TIP3    H160304   3.012   3.463   4.471 -0.3723 -0.8406  1.7164
12963TIP3    H260305   2.899   3.472   4.571 -1.9813  1.8228 -0.1902
12964TIP3   OH260306   2.756   2.511  10.605  0.7510  1.2784 -0.4268
12964TIP3    H160307   2.680   2.468  10.644  1.8453 -0.7665 -0.4348
12964TIP3    H260308   2.747   2.496  10.511  1.1522  1.0389 -0.4302
12965TIP3   OH260309   6.430   3.426  14.070 -0.3777  0.4621  0.9991
12965TIP3    H160310   6.447   3.464  14.156  4.0277 -0.5285  0.7932
12965TIP3    H260311   6.416   3.333  14.088 -2.4527  0.6833  0.7813
12966TIP3   OH260312   2.359   2.968  13.865 -0.8425 -0.3628  0.0639
12966TIP3    H160313   2.412   2.922  13.799  0.8357 -0.8897  1.6904
12966TIP3    H260314   2.357   2.908  13.940 -0.5716  1.2324  1.3902
12967TIP3   OH260315   0.701   3.100  15.156 -0.4007 -0.3950 -0.0939
12967TIP3    H160316   0.698   3.159  15.080  1.7110  0.0651  0.1217
12967TIP3    H260317   0.712   3.013  15.118  2.3814 -0.0037 -0.3740
12968TIP3   OH260318   2.757   1.754  13.278  0.5069 -0.1266  0.4341
12968TIP3    H160319   2.740   1.710  13.361 -2.5868 -1.3208 -0.7100
12968TIP3    H260320   2.729   1.845  13.293 -1.0746 -0.5868  0.4566
12969TIP3   OH260321   1.452   5.392  13.511 -0.0155  0.1603  0.3863
12969TIP3    H160322   1.412   5.324  13.565 -2.6478  0.4297 -1.0783
12969TIP3    H260323   1.507   5.344  13.449  0.6376 -0.3578  1.3319
12970TIP3   OH260324   3.937   6.783  11.055 -0.3332 -0.4115 -0.3799
12970TIP3    H160325   3.993   6.713  11.089  0.7713  1.1273  1.0891
12970TIP3    H260326   3.973   6.801  10.968 -0.2449 -1.2514 -0.5260
12971TIP3   OH260327   1.562   4.739  12.161  0.2474 -0.2557 -0.1432
12971TIP3    H160328   1.588   4.798  12.232 -1.4904  2.5318 -1.6212
12971TIP3    H260329   1.490   4.687  12.197 -1.5679  2.1114 -0.1235
12972TIP3   OH260330   1.324   3.944  16.191  0.1373  0.2572 -0.1096
12972TIP3    H160331   1.328   3.855  16.226 -0.9398  0.7848  1.4735
12972TIP3    H260332   1.267   3.991  16.252  1.0506  2.1523 -0.6561
12973TIP3   OH260333   0.657   5.331   2.706 -0.5698  0.1090  0.2310
12973TIP3    H160334   0.623   5.418   2.727 -1.1078 -0.4846  1.9560
12973TIP3    H260335   0.687   5.339   2.615 -2.1970  1.6037 -0.2394
12974TIP3   OH260336   2.674   3.894   4.439 -0.2924  0.1540  0.3090
12974TIP3    H160337   2.581   3.911   4.455 -0.6804  0.3897 -1.8028
12974TIP3    H260338   2.719   3.971   4.471 -0.8275  0.1105  1.2039
12975TIP3   OH260339   1.656   5.638   0.207 -0.1787  0.3222 -0.1020
12975TIP3    H160340   1.630   5.666   0.294  1.4894  0.3138  0.4286
12975TIP3    H260341   1.684   5.719   0.163  1.0428  0.0424  0.1330
12976TIP3   OH260342   1.444   1.501  16.348  0.2202 -0.3358  0.0127
12976TIP3    H160343   1.448   1.437  16.419  0.8391  0.8793  1.1327
12976TIP3    H260344   1.512   1.474  16.287 -1.3179 -2.2807 -0.9674
12977TIP3   OH260345   5.978   2.949  10.662 -0.0689  0.2437 -0.4967
12977TIP3    H160346   6.029   3.006  10.718 -3.2764  2.4403  0.5148
12977TIP3    H260347   5.945   2.880  10.720  1.8772 -1.3937 -1.2211
12978TIP3   OH260348   1.583   2.313  11.405 -0.5596  0.4550 -0.9491
12978TIP3    H160349   1.656   2.354  11.452 -0.6072  1.2045 -1.5112
12978TIP3    H260350   1.621   2.233  11.369 -0.1360  0.6104 -0.8597
12979TIP3   OH260351   2.098   4.347   3.511 -0.2474  0.0019  0.4784
12979TIP3    H160352   2.075   4.396   3.590  1.8023 -0.1359  1.2245
12979TIP3    H260353   2.067   4.258   3.528 -1.2897  0.3460  0.4088
12980TIP3   OH260354   4.459   2.663  13.892  0.4960 -0.1880 -0.2522
12980TIP3    H160355   4.533   2.627  13.940 -0.3261 -0.6335  0.7069
12980TIP3    H260356   4.489   2.749  13.863  2.6145 -1.6679 -2.8895
12981TIP3   OH260357   4.206   0.848  13.501  0.6199 -0.2484  0.2880
12981TIP3    H160358   4.180   0.835  13.410  0.0998 -1.2700  0.5717
12981TIP3    H260359   4.276   0.913  13.497 -0.0053  0.3833 -0.7553
12982TIP3   OH260360   5.878   3.396  16.960  0.3870  0.1507 -0.0803
12982TIP3    H160361   5.917   3.316  16.926  0.5049  1.3053 -2.9061
12982TIP3    H260362   5.932   3.467  16.926 -1.2372  1.5608  0.0980
12983TIP3   OH260363   1.798   1.067  15.007 -0.4483  0.7401  0.2169
12983TIP3    H160364   1.841   1.010  15.071 -0.8042 -0.8352 -0.8916
12983TIP3    H260365   1.712   1.084  15.044 -0.1620  0.9970  0.7837
12984TIP3   OH260366   3.103   1.531  15.128 -0.1103 -0.4797 -0.0822
12984TIP3    H160367   3.137   1.530  15.039  0.6776  3.6627 -0.0098
12984TIP3    H260368   3.008   1.518  15.117  0.0375 -0.6217 -1.4182
12985TIP3   OH260369   4.787   6.512  11.551  0.6112  0.0966 -0.1178
12985TIP3    H160370   4.758   6.429  11.514 -0.8238  1.3243 -1.9475
12985TIP3    H260371   4.833   6.488  11.632 -1.7210 -2.3272  0.6339
12986TIP3   OH260372   1.605   6.314  16.778  0.8428  0.4049 -0.1758
12986TIP3    H160373   1.536   6.379  16.764  1.3033  0.7186 -1.0129
12986TIP3    H260374   1.663   6.322  16.702  0.7039 -1.2455 -0.5053
12987TIP3   OH260375   4.924   6.152  15.386 -0.0429  0.0679  0.2339
12987TIP3    H160376   4.936   6.113  15.299 -0.7709 -1.0334  0.6036
12987TIP3    H260377   4.940   6.245  15.372  0.3315 -0.1520 -0.9844
12988TIP3   OH260378   5.549   5.119  15.290  0.1636 -0.2552  0.0299
12988TIP3    H160379   5.622   5.124  15.229 -0.2130  0.9331 -0.3696
12988TIP3    H260380   5.519   5.029  15.285 -0.3457 -0.0263 -2.1565
12989TIP3   OH260381   6.506   2.005  11.726  0.8153  0.3648 -0.1839
12989TIP3    H160382   6.541   1.918  11.710  0.6610  0.3817 -0.6244
12989TIP3    H260383   6.411   1.995  11.718  0.7259  0.3771  0.7150
12990TIP3   OH260384   1.568   4.997  14.965 -0.0264  0.2318  0.2092
12990TIP3    H160385   1.518   5.057  15.020 -0.5512 -0.0255  0.0277
12990TIP3    H260386   1.659   5.009  14.992 -0.3493 -0.4982  1.7405
12991TIP3   OH260387   4.621   5.190   3.890 -0.2335  0.0045  0.0734
12991TIP3    H160388   4.657   5.250   3.955  1.3959  0.3511 -1.0882
12991TIP3    H260389   4.637   5.103   3.926 -0.7508  0.1970  0.8144
12992TIP3   OH260390   2.044   5.309  11.792 -0.0297  0.5592  0.0300
12992TIP3    H160391   1.995   5.226  11.787 -0.6693  0.9964 -1.7367
12992TIP3    H260392   2.000   5.358  11.861  0.1873 -0.4606  0.9147
12993TIP3   OH260393   5.810   4.332  11.903  0.6320 -0.1482 -0.0093
12993TIP3    H160394   5.870   4.405  11.917  0.5433  0.1563 -1.1261
12993TIP3    H260395   5.776   4.312  11.991 -0.2350  1.9017  0.1783
12994TIP3   OH260396   0.779   2.170  12.665  0.0787 -0.1249  0.1651
12994TIP3    H160397   0.873   2.181  12.675 -0.1279 -0.4648  4.2487
12994TIP3    H260398   0.744   2.259  12.673 -0.0896 -0.3884  4.7674
12995TIP3   OH260399   6.072   5.120  13.100  0.4829  0.2571  0.5811
12995TIP3    H160400   6.078   5.184  13.170  2.9790 -1.2574  1.9035
12995TIP3    H260401   6.159   5.120  13.059  0.2825 -1.5814  0.0405
12996TIP3   OH260402   3.363   1.270   1.074  0.3043  0.4769 -0.2338
12996TIP3    H160403   3.363   1.328   1.150 -0.6125  1.3455 -0.8724
12996TIP3    H260404   3.275   1.279   1.036  0.1037 -1.3905 -0.3185
12997TIP3   OH260405   5.438   4.819   5.591  0.5301 -0.2693 -0.4705
12997TIP3    H160406   5.402   4.778   5.513  0.7577 -0.7459 -0.3336
12997TIP3    H260407   5.362   4.855   5.637  0.2419 -1.1042 -0.2738
12998TIP3   OH260408   4.941   4.832   1.308  0.2695 -0.4316  0.5236
12998TIP3    H160409   4.934   4.870   1.395  2.6069 -0.5328  0.8173
12998TIP3    H260410   4.915   4.902   1.249  0.9323  0.4191  1.2199
12999TIP3   OH260411   4.920   4.826   0.772  0.5360 -0.0712  0.0437
12999TIP3    H160412   4.881   4.879   0.842  1.1719 -2.1874  2.1606
12999TIP3    H260413   4.910   4.736   0.803  1.7908 -1.0401 -2.1651
13000TIP3   OH260414   0.699   2.235   4.476 -0.0696 -0.2774  0.2286
13000TIP3    H160415   0.757   2.305   4.505  0.6031 -0.7495  0.0392
13000TIP3    H260416   0.755   2.158   4.472 -0.1514 -0.2894 -2.1405
13001TIP3   OH260417   4.610   5.242   1.466 -0.1329  0.1024 -0.7822
13001TIP3    H160418   4.539   5.210   1.410  0.1132  0.0866 -1.0818
13001TIP3    H260419   4.618   5.335   1.445 -0.2973  0.1823 -0.4973
13002TIP3   OH260420   0.618   5.405  13.581  0.7966 -0.0618 -0.2042
13002TIP3    H160421   0.589   5.398  13.490  2.4137  1.0806 -0.8568
13002TIP3    H260422   0.714   5.406  13.576  0.9389  2.7409  1.2383
13003TIP3   OH260423   3.670   3.797   3.871 -0.2216 -0.1000 -0.2112
13003TIP3    H160424   3.604   3.736   3.903  1.9971 -4.6872 -3.2781
13003TIP3    H260425   3.633   3.834   3.791  0.7841 -3.1352 -2.2694
13004TIP3   OH260426   4.798   2.953  16.950  0.0104 -0.7643  0.5878
13004TIP3    H160427   4.812   2.862  16.978  3.0581 -1.0581 -1.3275
13004TIP3    H260428   4.836   2.956  16.862 -0.9125  2.1723  0.1932
13005TIP3   OH260429   3.365   5.884  11.615  0.2442 -0.2850 -0.1798
13005TIP3    H160430   3.277   5.904  11.584 -0.2237 -0.5913  0.9002
13005TIP3    H260431   3.398   5.818  11.554 -0.1499  0.0578 -0.7685
13006TIP3   OH260432   5.616   4.995   4.973 -0.1406  0.0236 -0.2596
13006TIP3    H160433   5.556   5.033   4.909 -0.0985  0.6561  0.0694
13006TIP3    H260434   5.681   4.949   4.920 -0.0696  0.5919 -0.6765
13007TIP3   OH260435   6.552   0.639  11.800  0.4283 -0.0336  0.0767
13007TIP3    H160436   6.617   0.623  11.869  0.4485 -1.9762 -0.3501
13007TIP3    H260437   6.573   0.575  11.732  0.1837  1.6096 -1.6111
13008TIP3   OH260438   4.860   4.623   5.834  0.9596 -0.1779 -0.1435
13008TIP3    H160439   4.891   4.711   5.813 -0.8000  0.3133 -0.8564
13008TIP3    H260440   4.920   4.565   5.786  0.5586  0.7501 -1.8710
13009TIP3   OH260441   0.698   6.553   4.189 -0.0875  0.0605  0.1994
13009TIP3    H160442   0.627   6.494   4.165  1.1701 -0.7349 -1.7550
13009TIP3    H260443   0.655   6.622   4.241 -2.1024 -0.8802 -0.1244
13010TIP3   OH260444   0.446   0.422   3.743 -0.0131  0.0938 -0.2229
13010TIP3    H160445   0.471   0.499   3.692 -1.8172 -0.8355 -2.7271
13010TIP3    H260446   0.351   0.416   3.731 -0.2677 -1.2108  1.8894
13011TIP3   OH260447   5.141   2.814  13.619 -0.0194  0.3263  0.2813
13011TIP3    H160448   5.206   2.750  13.646  0.2168 -0.3558 -1.7750
13011TIP3    H260449   5.165   2.838  13.530 -1.5516  1.4170  0.1120
13012TIP3   OH260450   1.187   6.568   0.315  0.2838  0.0640 -0.3440
13012TIP3    H160451   1.170   6.662   0.314  0.3786  0.0888 -1.3256
13012TIP3    H260452   1.240   6.554   0.393 -0.2329  0.7289  0.1414
13013TIP3   OH260453   2.781   5.789  16.896  0.5439 -0.0163  0.3169
13013TIP3    H160454   2.853   5.849  16.878 -0.3093  1.5364  1.7858
13013TIP3    H260455   2.818   5.702  16.882  1.9429  0.8019 -1.4870
13014TIP3   OH260456   6.307   1.951   3.968  0.9578 -0.2147  0.0240
13014TIP3    H160457   6.226   1.910   3.998  1.3887  0.0213  1.5594
13014TIP3    H260458   6.286   2.044   3.960  0.7179 -0.3335 -0.9208
13015TIP3   OH260459   5.108   2.675   4.528  0.3260  0.2716 -0.2527
13015TIP3    H160460   5.164   2.675   4.606 -0.7867 -2.0745  0.6595
13015TIP3    H260461   5.170   2.680   4.455  1.5800  0.0951  0.7442
13016TIP3   OH260462   1.066   1.765   1.142  0.5616 -0.4647 -0.4049
13016TIP3    H160463   1.048   1.680   1.183 -0.9660 -0.7037 -1.4642
13016TIP3    H260464   0.990   1.780   1.085  1.4898  0.9365 -1.3316
13017TIP3   OH260465   2.666   5.201  11.072  0.7263 -0.3040 -0.2622
13017TIP3    H160466   2.618   5.172  11.149  1.1030 -0.5485 -0.1161
13017TIP3    H260467   2.664   5.125  11.013  1.8703 -0.7062  0.1944
13018TIP3   OH260468   5.035   4.633  13.620 -0.2272  0.1264  0.5249
13018TIP3    H160469   5.121   4.666  13.646 -0.1462 -0.0135  0.4353
13018TIP3    H260470   4.974   4.675  13.681 -0.2206  1.0995 -0.1123
13019TIP3   OH260471   6.485   0.059   1.257 -0.6537  0.1101 -0.2695
13019TIP3    H160472   6.397   0.097   1.264 -0.6816 -0.0344  0.2731
13019TIP3    H260473   6.482  -0.016   1.317 -0.9515 -1.4219 -2.0941
13020TIP3   OH260474   1.733   5.167  12.056 -0.3120 -0.3672 -0.1848
13020TIP3    H160475   1.771   5.127  12.135 -0.6621 -1.1068 -0.3784
13020TIP3    H260476   1.808   5.190  12.002 -0.0951 -0.6286  0.0015
13021TIP3   OH260477   2.116   4.171   3.917  0.0893  0.0900  0.0037
13021TIP3    H160478   2.146   4.092   3.871  2.1721 -0.7770  2.5717
13021TIP3    H260479   2.065   4.137   3.991 -2.5837  1.4121 -1.0779
13022TIP3   OH260480   2.100   4.682  15.719 -0.0542  0.6146 -0.5389
13022TIP3    H160481   2.119   4.660  15.628 -1.6487  1.7893 -1.2185
13022TIP3    H260482   2.060   4.603  15.756  0.0689  0.3239 -1.0305
13023TIP3   OH260483   1.459   6.521  11.412  0.5291  0.1392 -0.4144
13023TIP3    H160484   1.454   6.606  11.366  2.2977 -0.0387 -1.0163
13023TIP3    H260485   1.491   6.543  11.499 -1.6228  0.3340  0.4005
13024TIP3   OH260486   6.517   6.333  12.219  0.2166 -0.0353 -0.4770
13024TIP3    H160487   6.498   6.264  12.283 -0.7590  0.7445  0.1077
13024TIP3    H260488   6.532   6.286  12.137 -0.0317 -0.9692 -0.0091
13025TIP3   OH260489   5.299   5.565  16.571  0.4451  0.3515 -0.1732
13025TIP3    H160490   5.277   5.657  16.557 -0.4603  0.1575 -0.1236
13025TIP3    H260491   5.345   5.563  16.655  2.4580  1.0261 -1.1875
13026TIP3   OH260492   2.804   4.424  12.188  0.4695  0.2069 -0.4173
13026TIP3    H160493   2.846   4.429  12.102  1.0201 -2.9392 -0.4534
13026TIP3    H260494   2.796   4.515  12.216  2.9435  1.1945 -2.5023
13027TIP3   OH260495   4.953   6.061  12.352  0.0716 -0.4441 -0.0369
13027TIP3    H160496   4.894   6.068  12.277 -0.1377  1.2576  0.2383
13027TIP3    H260497   4.931   5.978  12.393 -2.3654  0.2671  0.2244
13028TIP3   OH260498   0.550   2.154  15.764 -0.0213 -0.1211  0.4576
13028TIP3    H160499   0.575   2.225  15.706 -1.0506  0.6416  0.9036
13028TIP3    H260500   0.455   2.144  15.751 -0.1142 -0.5341  1.3372
13029TIP3   OH260501   6.490   1.918  15.443 -0.9798  0.1966  0.3516
13029TIP3    H160502   6.491   1.837  15.391 -1.8447 -0.4876  1.3546
13029TIP3    H260503   6.578   1.926  15.478 -0.6439  0.1728 -0.4766
13030TIP3   OH260504   1.572   6.003  15.144 -0.1640  0.6861 -0.1102
13030TIP3    H160505   1.665   6.015  15.166  0.2368  0.5545 -1.6314
13030TIP3    H260506   1.549   6.080  15.093 -1.1126  1.0565  0.8352
13031TIP3   OH260507   3.492   5.370  12.574  0.1675 -0.2170 -0.4225
13031TIP3    H160508   3.488   5.464  12.593 -0.0310 -0.4138  0.5563
13031TIP3    H260509   3.414   5.353  12.520 -0.8514 -0.1486  0.9658
13032TIP3   OH260510   0.561   6.158   4.538 -0.5159  0.0782 -0.3401
13032TIP3    H160511   0.552   6.142   4.632  0.0467 -1.2987 -0.5097
13032TIP3    H260512   0.606   6.243   4.532  2.9741 -1.5368  0.7237
13033TIP3   OH260513   0.135   6.407   0.804  0.0628  0.4924 -0.3672
13033TIP3    H160514   0.096   6.443   0.883  1.7184  1.0749  0.2122
13033TIP3    H260515   0.126   6.476   0.738  0.7885  0.9178 -0.0228
13034TIP3   OH260516   3.232   3.822   3.767  0.3282 -0.3401  0.2041
13034TIP3    H160517   3.319   3.782   3.773  0.0394 -1.3806 -1.8921
13034TIP3    H260518   3.173   3.758   3.807  0.3193 -0.3364  0.1971
13035TIP3   OH260519   1.146   0.077  15.703  0.1065 -0.2011  0.6426
13035TIP3    H160520   1.124   0.067  15.610  0.3778 -0.7697  0.6315
13035TIP3    H260521   1.239   0.057  15.708  0.2448  0.5144  0.9400
13036TIP3   OH260522   4.727   6.020  13.285  0.3012 -0.3231 -0.1372
13036TIP3    H160523   4.725   5.927  13.306 -0.0956 -0.1816  0.4572
13036TIP3    H260524   4.644   6.054  13.317 -0.5543 -0.1882 -2.3452
13037TIP3   OH260525   3.886   2.396  17.100  0.1078 -0.4199  0.3277
13037TIP3    H160526   3.907   2.303  17.093  3.1920  0.2534 -1.1348
13037TIP3    H260527   3.945   2.430  17.167 -0.5060  0.6214  0.3659
13038TIP3   OH260528   4.419   5.992   6.272  0.4253  0.1224  0.3632
13038TIP3    H160529   4.418   5.921   6.336 -0.3383  0.5535  0.8354
13038TIP3    H260530   4.338   6.040   6.287  0.7355  0.8570 -0.2297
13039TIP3   OH260531   0.581   3.226  17.051 -0.0466 -0.2046 -0.5983
13039TIP3    H160532   0.489   3.250  17.042 -0.3775 -1.6185 -1.1739
13039TIP3    H260533   0.583   3.167  17.126  0.3159 -0.5499 -0.8788
13040TIP3   OH260534   0.656   4.947   5.170 -0.7155  0.5576  0.1759
13040TIP3    H160535   0.566   4.913   5.169 -0.7531  0.6126  0.9813
13040TIP3    H260536   0.653   5.020   5.233 -0.3439  1.2336 -0.5690
13041TIP3   OH260537   2.132   0.416   3.726 -0.0792 -0.1845 -0.0022
13041TIP3    H160538   2.164   0.374   3.646  0.2384 -0.1481  0.1018
13041TIP3    H260539   2.211   0.455   3.765 -0.5697  1.8986 -0.9145
13042TIP3   OH260540   1.033   4.754  15.779 -0.3375 -0.0514  0.1881
13042TIP3    H160541   1.116   4.801  15.792 -0.2473 -0.5590  1.5562
13042TIP3    H260542   0.984   4.769  15.860 -2.1416  1.2834 -1.0648
13043TIP3   OH260543   1.005   1.137  15.450  0.1050  0.9066 -0.0773
13043TIP3    H160544   1.023   1.064  15.391  0.6964  0.7570  0.2778
13043TIP3    H260545   0.989   1.096  15.535  2.6042  1.2397  0.6570
13044TIP3   OH260546   3.270   1.257   0.775 -0.2492  0.8560  0.1590
13044TIP3    H160547   3.181   1.224   0.761  0.7461 -1.4628 -1.2448
13044TIP3    H260548   3.319   1.180   0.803  1.6043  1.8064 -0.3684
13045TIP3   OH260549   6.090   2.416  14.335  0.3164  0.2361  0.1507
13045TIP3    H160550   6.038   2.465  14.272  1.0334  0.1570 -0.5184
13045TIP3    H260551   6.154   2.368  14.282  1.1695  0.4359  0.9525
13046TIP3   OH260552   4.212   2.737  15.411 -0.1978 -0.0010  0.1657
13046TIP3    H160553   4.219   2.706  15.501  0.7648  1.8091  0.7633
13046TIP3    H260554   4.184   2.660  15.361 -1.1845 -0.9314  2.0577
13047TIP3   OH260555   1.499   5.666  15.878  0.0380 -0.2023  0.3304
13047TIP3    H160556   1.429   5.612  15.841 -0.2742 -0.0359  0.6760
13047TIP3    H260557   1.579   5.616  15.860 -0.0881 -0.0639 -0.6730
13048TIP3   OH260558   4.898   5.721   2.102 -0.4232  0.1009 -0.3010
13048TIP3    H160559   4.983   5.697   2.066 -0.7331 -1.0827 -0.3049
13048TIP3    H260560   4.835   5.676   2.045 -0.9662 -0.7681  0.9310
13049TIP3   OH260561   3.763   5.818  11.448 -0.1688  0.6146 -0.0848
13049TIP3    H160562   3.717   5.902  11.456 -0.5822  0.3166  0.7299
13049TIP3    H260563   3.783   5.811  11.354 -3.6305 -0.2030 -0.9063
13050TIP3   OH260564   0.195   3.824   3.820 -0.3229 -0.0781  1.0078
13050TIP3    H160565   0.141   3.784   3.752  0.8098 -0.0952  0.0912
13050TIP3    H260566   0.150   3.906   3.841 -0.2071  0.3874 -0.4526
13051TIP3   OH260567   4.203   3.667  14.780 -0.4448  0.2701 -0.5144
13051TIP3    H160568   4.287   3.712  14.779  0.1400 -0.7718  0.0332
13051TIP3    H260569   4.145   3.722  14.727  0.6934  0.7863 -1.2455
13052TIP3   OH260570   3.076   5.145  12.602  0.2158  0.1842  0.1622
13052TIP3    H160571   3.081   5.167  12.695 -1.0389  0.2742  0.2265
13052TIP3    H260572   3.025   5.217  12.564 -0.9491 -0.8132 -0.2374
13053TIP3   OH260573   0.919   6.282   6.376 -0.3230  0.0854  0.7047
13053TIP3    H160574   0.985   6.220   6.346 -0.1581  1.1816 -1.4166
13053TIP3    H260575   0.946   6.306   6.465  1.9681  0.2665  0.0167
13054TIP3   OH260576   4.028   6.194   5.058  0.0813 -0.3259 -0.4315
13054TIP3    H160577   3.985   6.264   5.008  0.2608 -0.6589 -1.0644
13054TIP3    H260578   4.090   6.240   5.115  0.9517 -0.0208 -1.5913
13055TIP3   OH260579   3.125   4.194  15.680 -0.1486  0.3835 -0.0480
13055TIP3    H160580   3.200   4.145  15.646  0.3188  1.4121 -0.5297
13055TIP3    H260581   3.162   4.276  15.712 -0.6381 -0.3291  2.5544
13056TIP3   OH260582   4.858   2.812  14.687  0.8534  0.2470 -0.3551
13056TIP3    H160583   4.820   2.752  14.752  1.8888  0.2126  0.2387
13056TIP3    H260584   4.802   2.889  14.691 -0.1554 -0.4374 -0.7136
13057TIP3   OH260585   5.482   4.028  11.237  0.4586 -0.4601  0.1830
13057TIP3    H160586   5.414   4.077  11.191 -0.6780 -2.1405 -0.0309
13057TIP3    H260587   5.536   3.990  11.167  1.0739  0.1144  0.3355
13058TIP3   OH260588   2.860   1.418   1.604 -0.1068  0.3278  0.5015
13058TIP3    H160589   2.868   1.485   1.672  1.7425  0.4717  0.2037
13058TIP3    H260590   2.801   1.352   1.642 -1.7437  1.9481  0.9059
13059TIP3   OH260591   3.118   2.046  12.310  0.5330 -0.2012 -0.3261
13059TIP3    H160592   3.176   2.007  12.375  0.4405  1.0674  0.5448
13059TIP3    H260593   3.050   2.090  12.361  0.4196  0.7620 -1.2710
13060TIP3   OH260594   3.897   6.068  16.946 -0.0331  0.0379  0.0496
13060TIP3    H160595   3.900   5.982  16.989  1.1041  0.8661  1.7518
13060TIP3    H260596   3.811   6.102  16.967  0.0707 -0.0739  0.6820
13061TIP3   OH260597   1.144   5.872   5.674  0.4290 -0.7253 -0.0411
13061TIP3    H160598   1.111   5.935   5.610 -1.7003 -0.8273  0.8948
13061TIP3    H260599   1.211   5.823   5.627  1.6480  1.7187 -1.0239
13062TIP3   OH260600   0.020   3.435  13.320 -0.1114  0.0804 -0.1064
13062TIP3    H160601  -0.022   3.516  13.348 -0.6403 -0.5962  1.1379
13062TIP3    H260602   0.011   3.376  13.395 -3.3273 -2.5303 -2.2542
13063TIP3   OH260603   6.479   4.679   0.376  0.0943 -0.0248 -0.3870
13063TIP3    H160604   6.495   4.617   0.448  1.2406  1.2515  0.4957
13063TIP3    H260605   6.518   4.637   0.300  1.1914 -0.2507  0.2758
13064TIP3   OH260606   1.012   4.104   4.891 -0.0349  0.1698 -0.5933
13064TIP3    H160607   0.995   4.036   4.956 -1.8960  0.9294 -0.2212
13064TIP3    H260608   1.089   4.073   4.843  0.1673 -1.3692  0.6527
13065TIP3   OH260609   3.601   1.063  14.962  0.1910  0.3585  0.2070
13065TIP3    H160610   3.576   0.980  14.922 -0.6896  0.4724  0.5087
13065TIP3    H260611   3.554   1.064  15.045  1.0126  0.6944  0.6854
13066TIP3   OH260612   0.986   3.869   5.038  0.2419  0.0896  0.1928
13066TIP3    H160613   0.895   3.839   5.046  0.0851  0.6325  0.4905
13066TIP3    H260614   1.032   3.822   5.108 -0.7236  3.2321  3.2338
13067TIP3   OH260615   4.273   0.773  15.209  0.2638  0.5626 -0.0824
13067TIP3    H160616   4.297   0.690  15.249  0.7511  0.4633 -0.5825
13067TIP3    H260617   4.225   0.820  15.278  0.0860 -0.0797  0.2329
13068TIP3   OH260618   0.004   0.927  14.019 -0.1237  0.0380 -0.2669
13068TIP3    H160619   0.090   0.894  14.046 -0.7310 -1.0006  0.4811
13068TIP3    H260620  -0.032   0.967  14.098  0.0060  1.2764 -0.8027
13069TIP3   OH260621   1.222   1.008   0.120  0.3653  0.0409  0.2277
13069TIP3    H160622   1.257   1.038   0.203  1.2152 -1.4914  0.4607
13069TIP3    H260623   1.159   0.939   0.143  0.2490 -0.0601 -0.3614
13070TIP3   OH260624   6.087   5.818  13.955 -0.1349  0.7539  0.0059
13070TIP3    H160625   6.108   5.909  13.935  0.7381  0.7262  0.7536
13070TIP3    H260626   6.009   5.800  13.902  0.3784  1.5649 -1.0809
13071TIP3   OH260627   5.723   3.771  11.291 -0.1555 -0.2149  0.2215
13071TIP3    H160628   5.747   3.796  11.201 -2.1781 -0.6193 -0.4882
13071TIP3    H260629   5.752   3.680  11.299  2.2027  0.5403  0.8638
13072TIP3   OH260630   1.926   2.129   1.880  0.3886 -0.5027  0.6199
13072TIP3    H160631   1.875   2.110   1.959  0.3567 -1.0885  0.4681
13072TIP3    H260632   2.017   2.113   1.906  0.6869  1.8808  1.2946
13073TIP3   OH260633   2.536   4.531  15.000 -0.6009 -0.0736 -0.1450
13073TIP3    H160634   2.618   4.535  15.048  0.0740  1.4606 -1.3243
13073TIP3    H260635   2.562   4.526  14.908 -1.6627  3.4708 -0.8060
13074TIP3   OH260636   5.104   6.336   4.518  0.0602 -0.1240  0.2832
13074TIP3    H160637   5.197   6.356   4.523  0.0893 -0.1358 -0.1360
13074TIP3    H260638   5.093   6.300   4.430  0.0758 -2.2414  1.0893
13075TIP3   OH260639   1.725   1.335   6.123 -0.5138 -0.4250  0.1038
13075TIP3    H160640   1.758   1.245   6.125 -1.0700 -0.6224  1.7836
13075TIP3    H260641   1.781   1.382   6.186 -1.2705  0.0149  0.4553
13076TIP3   OH260642   0.458   6.193  15.676 -0.2879 -0.6658  0.0427
13076TIP3    H160643   0.418   6.273  15.710  0.3055  0.1596 -1.1071
13076TIP3    H260644   0.510   6.223  15.601  0.2676 -2.0814 -0.1648
13077TIP3   OH260645   2.118   0.529  16.542  0.8943  0.7744  0.8175
13077TIP3    H160646   2.108   0.607  16.596  1.1954  1.4324 -0.0642
13077TIP3    H260647   2.208   0.500  16.557  0.7601  0.5481  1.1995
13078TIP3   OH260648   2.445   1.884  16.795  0.0568  0.1539 -0.4821
13078TIP3    H160649   2.428   1.956  16.857  0.0267 -1.5506  1.6028
13078TIP3    H260650   2.363   1.835  16.792  1.4015 -2.5799  2.0879
13079TIP3   OH260651   1.081   2.504   0.240  0.1136 -0.0281 -0.3160
13079TIP3    H160652   1.137   2.475   0.312 -0.5564 -0.0460  0.2180
13079TIP3    H260653   1.007   2.548   0.284  1.3785  3.1335 -1.0984
13080TIP3   OH260654   6.326   2.248  14.273  0.0487  0.3325  0.4154
13080TIP3    H160655   6.353   2.202  14.352  1.1126 -1.1092 -0.7089
13080TIP3    H260656   6.382   2.326  14.270 -0.0543  0.4369  1.1153
13081TIP3   OH260657   1.247   3.495  15.589 -0.3501  0.1913 -0.3416
13081TIP3    H160658   1.165   3.446  15.591 -0.1211 -0.1920 -0.1132
13081TIP3    H260659   1.231   3.568  15.530 -0.3378 -0.8273 -1.6548
13082TIP3   OH260660   0.538   3.297   5.737  0.0509 -0.0541  0.2595
13082TIP3    H160661   0.618   3.271   5.783 -0.4809  0.7256  1.6737
13082TIP3    H260662   0.562   3.294   5.644  1.3469 -1.0231  0.5977
13083TIP3   OH260663   2.058   5.788   2.960  0.0063  0.6164  0.1638
13083TIP3    H160664   2.082   5.820   3.047  1.4273 -0.5955  0.2590
13083TIP3    H260665   2.137   5.797   2.908 -0.9347  1.6795 -1.1519
13084TIP3   OH260666   5.247   0.351  16.623 -0.5753 -0.2811  0.1954
13084TIP3    H160667   5.297   0.301  16.687 -0.1428  0.9925  0.9040
13084TIP3    H260668   5.244   0.295  16.545 -1.6042 -2.1035  1.4827
13085TIP3   OH260669   0.647   1.255  10.999 -0.0985  0.0904 -0.0188
13085TIP3    H160670   0.577   1.315  10.972 -0.6615 -0.7351 -0.4421
13085TIP3    H260671   0.639   1.250  11.095  1.6887  2.7636  0.3892
13086TIP3   OH260672   1.156   5.329   0.142  0.1844 -0.3616 -0.2102
13086TIP3    H160673   1.203   5.250   0.169 -0.9892 -1.5243 -1.4183
13086TIP3    H260674   1.096   5.299   0.074  0.5666  1.7998 -1.5967
13087TIP3   OH260675   0.779   4.280   2.724  0.0284 -0.3564  0.1398
13087TIP3    H160676   0.689   4.306   2.739  0.1706  0.8868 -1.0052
13087TIP3    H260677   0.773   4.194   2.681 -0.5217 -1.1251  1.6940
13088TIP3   OH260678   3.193   6.508  11.364 -0.2659 -0.4007  1.1135
13088TIP3    H160679   3.106   6.473  11.345  0.3127 -1.1244 -0.4013
13088TIP3    H260680   3.246   6.481  11.289  1.2717  0.0097  2.0156
13089TIP3   OH260681   3.406   5.916   3.589  0.0118 -0.2220 -0.4705
13089TIP3    H160682   3.332   5.937   3.647  0.4526  1.5203 -0.4819
13089TIP3    H260683   3.391   5.969   3.511 -0.1158 -1.8930 -1.6188
13090TIP3   OH260684   3.205   4.329  16.562  0.2189  0.9349 -0.0432
13090TIP3    H160685   3.140   4.378  16.510 -0.1073  0.0090 -0.5381
13090TIP3    H260686   3.152   4.275  16.620  0.5684  0.8145  0.1628
13091TIP3   OH260687   6.758   5.790  13.638 -0.0829 -0.8460  0.0293
13091TIP3    H160688   6.778   5.704  13.676  0.3044 -0.9438 -0.3708
13091TIP3    H260689   6.747   5.772  13.545 -0.3839 -0.5159 -0.0003
13092TIP3   OH260690   2.408   3.887   2.852 -0.0522 -0.0585  0.2336
13092TIP3    H160691   2.451   3.874   2.767 -0.2741  0.2320  0.0743
13092TIP3    H260692   2.428   3.978   2.876 -0.7022  0.1317  0.0804
13093TIP3   OH260693   5.959   6.472  13.513  0.0013  0.2063  0.0385
13093TIP3    H160694   6.017   6.541  13.480 -0.4460  0.9275  0.7325
13093TIP3    H260695   5.979   6.467  13.607 -2.3573  1.8213  0.7142
13094TIP3   OH260696   6.299   3.031  14.642 -0.4000 -0.0508  0.7194
13094TIP3    H160697   6.260   2.944  14.642 -1.8789  0.5705 -0.7396
13094TIP3    H260698   6.227   3.091  14.622  1.1676  1.1669 -1.8506
13095TIP3   OH260699   5.380   3.150  16.612 -0.1715 -0.2204  0.1521
13095TIP3    H160700   5.307   3.088  16.623  1.3161 -2.0251  0.3679
13095TIP3    H260701   5.458   3.099  16.634  1.2079  1.5450 -0.4217
13096TIP3   OH260702   3.752   3.610   5.648 -0.0410  0.2326  0.0527
13096TIP3    H160703   3.724   3.674   5.714  0.8434  1.1593 -0.4407
13096TIP3    H260704   3.815   3.657   5.595 -1.2725 -0.2544 -1.9405
13097TIP3   OH260705   2.748   2.984   5.405  0.1660 -0.1240 -0.4313
13097TIP3    H160706   2.702   3.013   5.326 -1.2742 -1.3154 -0.0898
13097TIP3    H260707   2.678   2.964   5.467  1.1581 -1.6235  0.2670
13098TIP3   OH260708   2.732   4.529   5.535 -0.1479  0.5143 -0.0657
13098TIP3    H160709   2.644   4.567   5.543 -0.4532 -0.0242 -0.7745
13098TIP3    H260710   2.791   4.599   5.563 -0.8517  0.4428  1.7271
13099TIP3   OH260711   5.383   0.389  14.064 -0.1953  0.0951 -0.2011
13099TIP3    H160712   5.428   0.389  14.148 -0.5882 -0.6658  0.0124
13099TIP3    H260713   5.426   0.459  14.014  1.9505 -1.2454 -0.3810
13100TIP3   OH260714   6.042   0.678   4.439 -0.5368 -0.0680 -0.6305
13100TIP3    H160715   6.060   0.587   4.463 -0.1781  0.6345  2.1689
13100TIP3    H260716   6.058   0.682   4.345 -1.8420 -3.1583 -1.0909
13101TIP3   OH260717   3.118   0.041  16.040 -0.4696  0.3062 -0.4025
13101TIP3    H160718   3.067  -0.040  16.047 -0.7227  0.5251  0.3740
13101TIP3    H260719   3.209   0.011  16.038 -0.4919  0.0336  1.1244
13102TIP3   OH260720   4.616   4.316  13.857 -0.1897  0.0017 -0.5556
13102TIP3    H160721   4.604   4.345  13.948 -0.0532  0.1948 -0.5973
13102TIP3    H260722   4.692   4.367  13.826 -0.8537  0.6789 -1.0944
13103TIP3   OH260723   0.722   5.860  10.872  0.3831 -0.3210  0.4156
13103TIP3    H160724   0.740   5.953  10.860 -1.5770 -0.0217 -0.7212
13103TIP3    H260725   0.630   5.857  10.899 -0.9499 -2.0435 -3.5941
13104TIP3   OH260726   4.542   0.309  16.018 -0.3039 -0.2474 -0.0098
13104TIP3    H160727   4.488   0.388  16.026  0.2559  0.0093  1.4243
13104TIP3    H260728   4.507   0.249  16.084 -1.0555 -1.4326 -1.4254
13105TIP3   OH260729   4.025   0.268   1.940 -0.2352 -0.0479  0.3305
13105TIP3    H160730   4.031   0.362   1.953  0.8868  0.0081 -0.4158
13105TIP3    H260731   3.934   0.246   1.959 -0.5907  1.2299  0.1794
13106TIP3   OH260732   3.848   6.324  13.017  0.3400 -0.1308 -0.4391
13106TIP3    H160733   3.905   6.294  12.946  2.5213  1.0866  0.6978
13106TIP3    H260734   3.765   6.343  12.974 -0.5764 -5.3311 -1.6297
13107TIP3   OH260735   1.051   2.469  11.729  0.3824  0.4593  0.1855
13107TIP3    H160736   0.959   2.464  11.757  0.1892  0.7541 -0.3707
13107TIP3    H260737   1.101   2.443  11.806 -0.2074 -0.7115  0.1978
13108TIP3   OH260738   0.453   4.742   5.457 -0.1383 -0.3131 -0.4047
13108TIP3    H160739   0.369   4.710   5.490 -0.0185 -0.1909  0.0204
13108TIP3    H260740   0.430   4.822   5.408 -0.4066 -0.8996 -1.2649
13109TIP3   OH260741   6.159   2.203  16.156 -0.7239  0.5747  0.7522
13109TIP3    H160742   6.097   2.236  16.221  0.1693  2.8309  0.5455
13109TIP3    H260743   6.136   2.250  16.075 -1.3362 -1.6216 -0.4382
13110TIP3   OH260744   4.866   4.149   3.699 -0.7353  0.2228 -0.5703
13110TIP3    H160745   4.921   4.189   3.632 -0.5018  1.2336  0.2044
13110TIP3    H260746   4.893   4.192   3.781  0.1686 -2.1122  0.4689
13111TIP3   OH260747   1.331   1.517  16.667 -0.5299 -0.1502 -0.5450
13111TIP3    H160748   1.253   1.549  16.621  0.0981  1.3718 -0.5825
13111TIP3    H260749   1.391   1.592  16.669  1.0905 -1.3774 -0.8243
13112TIP3   OH260750   0.610   2.391  16.595 -0.7025 -0.4820 -0.1743
13112TIP3    H160751   0.589   2.371  16.686 -0.6136  0.5716  0.0842
13112TIP3    H260752   0.663   2.470  16.600 -0.5229 -0.5382 -1.1317
13113TIP3   OH260753   5.693   0.199   5.068  0.0368 -0.4956 -0.1377
13113TIP3    H160754   5.761   0.238   5.013 -0.7279 -0.2075 -0.9190
13113TIP3    H260755   5.739   0.165   5.144  0.9156  0.6741 -0.1212
13114TIP3   OH260756   5.768   4.873  11.619 -0.2440  0.0112  0.1655
13114TIP3    H160757   5.796   4.963  11.639  3.5286 -0.6201 -1.3857
13114TIP3    H260758   5.778   4.866  11.524 -1.1413 -1.8981  0.1744
13115TIP3   OH260759   5.877   1.814   5.621  0.0975  0.0878 -0.3672
13115TIP3    H160760   5.791   1.851   5.641 -0.1208 -1.4349  1.9149
13115TIP3    H260761   5.940   1.876   5.659 -0.1756 -0.5631  1.2323
13116TIP3   OH260762   6.526   5.363  15.353  0.1674 -0.5402  0.1234
13116TIP3    H160763   6.449   5.420  15.354  1.4579  1.2853  0.3236
13116TIP3    H260764   6.490   5.274  15.359 -1.8671  0.3020  1.7151
13117TIP3   OH260765   6.325   5.676  11.174  0.1712  0.0668  0.1245
13117TIP3    H160766   6.252   5.626  11.140  1.5127 -1.5620 -0.5076
13117TIP3    H260767   6.400   5.650  11.120  1.6429  0.0908  2.0160
13118TIP3   OH260768   5.203   4.887   2.788 -0.2425  0.3847  0.3995
13118TIP3    H160769   5.128   4.919   2.738 -0.7140 -0.7581  0.3286
13118TIP3    H260770   5.227   4.805   2.744  0.1985  0.0578  1.2319
13119TIP3   OH260771   3.065   3.476   3.066 -0.4843 -0.0980 -0.2724
13119TIP3    H160772   3.119   3.489   2.988  0.4165  0.6360  0.4413
13119TIP3    H260773   3.027   3.562   3.084 -1.6074 -0.5283 -0.5507
13120TIP3   OH260774   5.659   3.978  14.118 -0.6126  0.1633 -0.6771
13120TIP3    H160775   5.670   4.063  14.162 -0.4051 -0.4756  0.5487
13120TIP3    H260776   5.578   3.987  14.068 -1.2283  0.6999  0.3829
13121TIP3   OH260777   4.528   1.719   4.936 -0.3612 -0.0186  0.5734
13121TIP3    H160778   4.491   1.632   4.923  0.6581 -0.5074  0.8663
13121TIP3    H260779   4.622   1.705   4.942  0.1253  1.4372 -2.1529
13122TIP3   OH260780   1.402   0.655  11.392 -0.1544  0.2250 -0.7676
13122TIP3    H160781   1.498   0.654  11.390 -0.1259  0.8031  0.0025
13122TIP3    H260782   1.380   0.688  11.479 -1.0787 -2.0639 -0.0727
13123TIP3   OH260783   5.922   4.238   4.779  0.1316 -0.6678  0.0615
13123TIP3    H160784   6.004   4.276   4.811 -0.8321  0.5800  1.1683
13123TIP3    H260785   5.921   4.257   4.685  2.0973 -2.6326 -0.4168
13124TIP3   OH260786   0.428   3.610   1.220 -0.3684 -0.3849 -0.1931
13124TIP3    H160787   0.391   3.522   1.217  1.3457 -1.1567 -3.1168
13124TIP3    H260788   0.395   3.652   1.140 -0.0864  1.1816  0.4714
13125TIP3   OH260789   6.364   1.168   0.638  0.1777 -0.8517  0.4775
13125TIP3    H160790   6.324   1.218   0.709  2.3240  3.5699 -1.0376
13125TIP3    H260791   6.305   1.182   0.563  1.0238 -0.0488 -0.0715
13126TIP3   OH260792   5.484   4.241  16.239 -0.0161 -0.4623 -0.6652
13126TIP3    H160793   5.483   4.322  16.291 -1.5109 -0.9535  0.1138
13126TIP3    H260794   5.442   4.265  16.157 -1.1772 -0.6130 -0.1340
13127TIP3   OH260795   2.151   5.667  13.919  0.2327  0.7601 -0.1772
13127TIP3    H160796   2.122   5.641  13.832  0.1363  1.7459 -0.4499
13127TIP3    H260797   2.083   5.726  13.950 -0.3068 -0.4524  1.0414
13128TIP3   OH260798   3.463   3.139  14.715  0.0679  0.4512 -0.4042
13128TIP3    H160799   3.373   3.126  14.744  0.7448 -0.0949  1.6469
13128TIP3    H260800   3.511   3.161  14.795  1.7315  0.8720 -1.4635
13129TIP3   OH260801   6.198   1.756   3.715 -0.2795  0.5095 -0.3058
13129TIP3    H160802   6.147   1.740   3.795 -0.2283 -0.6302 -0.4836
13129TIP3    H260803   6.133   1.780   3.649 -0.7366 -1.5463 -0.6969
13130TIP3   OH260804   5.008   5.047  11.394  0.1503  0.0838  0.6130
13130TIP3    H160805   5.081   4.986  11.398 -0.0374 -0.0962  3.6815
13130TIP3    H260806   4.930   4.991  11.396 -0.1362  0.3191 -1.5574
13131TIP3   OH260807   5.480   4.861   5.204  0.0613 -0.7977 -0.1856
13131TIP3    H160808   5.527   4.901   5.131  0.3112 -2.5754 -1.0428
13131TIP3    H260809   5.413   4.925   5.227 -0.2412 -0.3263 -2.2101
13132TIP3   OH260810   1.104   5.311   6.213  0.8328 -0.6134 -0.5927
13132TIP3    H160811   1.027   5.366   6.214  0.4516 -1.1401 -0.1086
13132TIP3    H260812   1.163   5.352   6.150  0.5912  0.3796 -0.1811
13133TIP3   OH260813   5.004   2.075   1.487 -0.0189 -0.7256 -0.2891
13133TIP3    H160814   5.098   2.059   1.490 -0.3549 -2.9805  0.0134
13133TIP3    H260815   4.985   2.127   1.565  0.9283 -0.4943 -0.2066
13134TIP3   OH260816   3.101   5.923   1.797 -0.0236 -0.6517 -0.4826
13134TIP3    H160817   3.087   5.873   1.716 -0.5171 -0.6099 -0.4244
13134TIP3    H260818   3.034   5.891   1.857 -0.9778  0.7599 -0.7681
13135TIP3   OH260819   2.118   3.874   2.769 -0.0341  0.0125 -0.2831
13135TIP3    H160820   2.095   3.958   2.809  1.6301  0.6220 -0.5164
13135TIP3    H260821   2.208   3.857   2.799 -0.7888 -2.3515  0.8296
13136TIP3   OH260822   0.019   2.318  15.203 -0.1006  0.1636  0.4109
13136TIP3    H160823  -0.053   2.288  15.259  0.1154  0.3227  0.7841
13136TIP3    H260824  -0.014   2.399  15.164  0.2496  0.8059  1.4015
13137TIP3   OH260825   4.331   0.498   0.617  0.4194  0.1803  0.4107
13137TIP3    H160826   4.326   0.402   0.627 -0.4180  0.1333 -0.3254
13137TIP3    H260827   4.261   0.530   0.674  1.3955  0.4418  1.5106
13138TIP3   OH260828   2.220   5.755  14.665 -0.4764  0.4016  0.6544
13138TIP3    H160829   2.296   5.779  14.719 -0.1934  0.4580  0.2395
13138TIP3    H260830   2.221   5.660  14.663  1.6527  0.3262 -2.1344
13139TIP3   OH260831   5.901   3.669  13.259  0.0253 -0.3165  0.1949
13139TIP3    H160832   5.871   3.581  13.238  0.6288 -0.2598 -0.9783
13139TIP3    H260833   5.895   3.717  13.177  1.2011  0.2961  0.4446
13140TIP3   OH260834   4.633   6.191  16.235 -0.4666 -0.2245 -0.4823
13140TIP3    H160835   4.552   6.175  16.283 -0.2156  1.5226  0.6139
13140TIP3    H260836   4.614   6.266  16.180  1.0611  1.9268  1.7083
13141TIP3   OH260837   5.001   2.140  12.888 -0.1375  0.4540 -0.5151
13141TIP3    H160838   4.913   2.103  12.888  0.3212 -0.7379  1.1392
13141TIP3    H260839   4.987   2.235  12.894 -1.2915  0.4529 -2.3835
13142TIP3   OH260840   3.323   3.057  14.423  0.9615  0.0074  0.7087
13142TIP3    H160841   3.320   2.971  14.465  2.0100  0.2522  1.3264
13142TIP3    H260842   3.240   3.098  14.448  0.5925 -0.6935  0.6713
13143TIP3   OH260843   4.689   3.434   1.280 -0.2127 -0.6370 -0.4432
13143TIP3    H160844   4.777   3.396   1.289  0.6645  1.4665  0.6543
13143TIP3    H260845   4.705   3.525   1.255 -2.0627 -0.1336  0.0540
13144TIP3   OH260846   6.101   4.324  13.809  0.2047  0.3246  0.6442
13144TIP3    H160847   6.122   4.376  13.731 -0.4932  0.9793  0.8804
13144TIP3    H260848   6.183   4.321  13.859  1.3353 -2.0186 -1.1583
13145TIP3   OH260849   2.062   1.019  12.890  0.5015  0.0874 -0.2230
13145TIP3    H160850   2.122   0.966  12.837 -0.2188 -1.7616  0.7335
13145TIP3    H260851   2.118   1.088  12.928  2.1076 -1.6878  0.8081
13146TIP3   OH260852   2.191   6.440   0.572 -0.0354  0.4972  0.3688
13146TIP3    H160853   2.256   6.508   0.553  1.6356 -1.1591 -0.2176
13146TIP3    H260854   2.176   6.397   0.487 -1.7385  0.6595  0.5469
13147TIP3   OH260855   2.957   0.336   5.848  0.6816 -0.1487 -0.0343
13147TIP3    H160856   2.897   0.398   5.807 -0.8449 -1.6009 -0.1419
13147TIP3    H260857   3.026   0.323   5.783  1.0657  1.4153  0.0166
13148TIP3   OH260858   2.668   2.806   1.260  0.3410  0.4486 -0.2784
13148TIP3    H160859   2.755   2.799   1.299 -0.7270  3.4550  3.1636
13148TIP3    H260860   2.616   2.742   1.307  0.1006  0.6200 -0.3116
13149TIP3   OH260861   1.861   6.073   0.320  0.1183  0.2100  0.0409
13149TIP3    H160862   1.795   6.141   0.309 -0.5772 -0.3291  0.7489
13149TIP3    H260863   1.945   6.120   0.318 -0.3559  1.1070  0.7198
13150TIP3   OH260864   1.970   1.491  10.612  0.0605  0.8839 -0.1162
13150TIP3    H160865   2.061   1.463  10.606 -0.0288  0.5344  0.1410
13150TIP3    H260866   1.958   1.550  10.537  0.5071  0.9621 -0.1288
13151TIP3   OH260867   5.797   5.879   0.603  1.0916  0.5364 -0.0250
13151TIP3    H160868   5.753   5.872   0.687 -1.7441 -1.9567 -1.4958
13151TIP3    H260869   5.885   5.843   0.618 -0.5852 -3.6676  1.2179
13152TIP3   OH260870   3.585   1.190  12.766 -0.1319  0.6417 -0.4507
13152TIP3    H160871   3.623   1.104  12.744  1.6852  1.8718 -2.5858
13152TIP3    H260872   3.492   1.181  12.743  0.1139 -0.6392 -1.0790
13153TIP3   OH260873   1.103   2.998  14.100 -0.1768  0.0681 -0.3150
13153TIP3    H160874   1.156   3.076  14.109  1.1419 -0.7402 -0.7546
13153TIP3    H260875   1.021   3.018  14.145  0.7822  1.0868  1.0323
13154TIP3   OH260876   2.946   2.716   0.583  0.2569 -0.0186 -0.0610
13154TIP3    H160877   3.017   2.716   0.648  1.8373  1.1285 -1.6968
13154TIP3    H260878   2.887   2.646   0.613  1.9449 -0.8745  1.4919
13155TIP3   OH260879   3.488   5.340  11.428  0.2565 -0.1947  0.2051
13155TIP3    H160880   3.446   5.332  11.342  0.6065 -1.0728  0.1066
13155TIP3    H260881   3.579   5.362  11.408  0.1076  0.6237  0.3896
13156TIP3   OH260882   5.974   2.163  11.772  0.2720 -0.1129  0.5716
13156TIP3    H160883   5.926   2.169  11.855  0.6405 -0.3305  0.7991
13156TIP3    H260884   5.949   2.243  11.725 -3.6714 -2.0876 -1.1366
13157TIP3   OH260885   0.289   2.082   5.330 -0.2573 -0.1712 -0.1898
13157TIP3    H160886   0.342   2.050   5.257 -0.2157  0.4665 -0.4412
13157TIP3    H260887   0.283   2.006   5.389 -1.8696 -1.3038 -1.7062
13158TIP3   OH260888   2.703   0.246  11.056 -0.1786  0.5616 -0.3688
13158TIP3    H160889   2.636   0.280  10.996  1.3144 -0.2263 -2.6128
13158TIP3    H260890   2.765   0.317  11.066  0.9954 -0.1576 -2.0558
13159TIP3   OH260891   6.787   4.634   0.897 -0.2444 -0.4757 -0.5635
13159TIP3    H160892   6.867   4.582   0.884  0.0399 -0.9520  2.3955
13159TIP3    H260893   6.814   4.724   0.883  0.4800 -0.7219 -0.8115
13160TIP3   OH260894   3.575   2.747  12.160  0.1736  0.0764  0.3684
13160TIP3    H160895   3.519   2.689  12.212 -0.2957  0.9774  0.8800
13160TIP3    H260896   3.580   2.828  12.210  4.3285 -0.8782  1.8407
13161TIP3   OH260897   2.060   1.084  11.235 -0.3900 -0.0376 -0.3311
13161TIP3    H160898   2.076   1.059  11.326  0.2187 -0.0907 -0.4518
13161TIP3    H260899   1.983   1.141  11.239  0.7028  1.4370  0.4390
13162TIP3   OH260900   2.805   0.820  14.998  0.2160  0.1003  0.3205
13162TIP3    H160901   2.836   0.897  14.949 -1.7981  0.3227 -0.6966
13162TIP3    H260902   2.788   0.755  14.931  2.4872 -1.5628  1.2098
13163TIP3   OH260903   0.605   1.005  16.319  0.3466  0.1015  0.2755
13163TIP3    H160904   0.619   0.977  16.229  0.3212  0.3641  0.1899
13163TIP3    H260905   0.510   1.006  16.330  0.3586 -1.8861  0.9220
13164TIP3   OH260906   2.113   4.391   1.343 -0.5846  0.4377 -0.7226
13164TIP3    H160907   2.094   4.377   1.435 -0.7892 -1.9432 -1.0767
13164TIP3    H260908   2.192   4.446   1.343 -1.4281  1.7239  0.8078
13165TIP3   OH260909   2.945   1.550   4.317 -0.0194  0.3633 -0.2599
13165TIP3    H160910   2.942   1.629   4.264 -0.7046  1.0197  0.7080
13165TIP3    H260911   2.854   1.537   4.346  0.0643 -0.8255 -0.4676
13166TIP3   OH260912   1.868   3.316   5.786  0.2680  0.2426 -0.4003
13166TIP3    H160913   1.917   3.289   5.864  1.3630  1.1589 -0.7339
13166TIP3    H260914   1.862   3.412   5.795 -1.1083  0.1908 -0.5904
13167TIP3   OH260915   0.574   4.412  13.072 -0.2542 -0.2067  0.3077
13167TIP3    H160916   0.569   4.504  13.045 -0.7735  0.0313  1.1680
13167TIP3    H260917   0.527   4.364  13.004 -0.8188  0.2876  0.3417
13168TIP3   OH260918   4.684   4.356  16.086  0.4329 -0.2044  0.4017
13168TIP3    H160919   4.638   4.278  16.118  0.7586 -0.1624  0.9910
13168TIP3    H260920   4.755   4.322  16.033 -0.7391 -0.2609 -1.2288
13169TIP3   OH260921   5.446   4.008  12.077 -0.6787  0.2473 -0.2728
13169TIP3    H160922   5.508   4.014  12.150 -1.1318  0.2002  0.1166
13169TIP3    H260923   5.502   3.993  12.000 -0.1114  1.3750 -0.1063
13170TIP3   OH260924   3.257   4.324  12.415  0.4258 -0.6205 -0.0931
13170TIP3    H160925   3.261   4.411  12.375  2.2127 -0.8218 -0.4529
13170TIP3    H260926   3.165   4.299  12.410 -0.0982  1.1797 -0.1186
13171TIP3   OH260927   1.666   6.731   3.922 -0.1057 -0.5060 -0.9335
13171TIP3    H160928   1.699   6.819   3.941 -0.6967 -0.1223 -1.6375
13171TIP3    H260929   1.611   6.709   3.997  0.5060 -0.5261 -0.4786
13172TIP3   OH260930   4.406   4.616  13.043  0.6074 -0.4535 -0.1479
13172TIP3    H160931   4.330   4.648  12.994 -0.8891  0.6491  2.6802
13172TIP3    H260932   4.481   4.656  13.000 -0.6950  1.2917 -0.9322
13173TIP3   OH260933   6.511   4.212  16.888  0.8740  0.0436  0.6618
13173TIP3    H160934   6.538   4.266  16.813  1.3876 -1.8833 -0.6046
13173TIP3    H260935   6.509   4.123  16.854  0.6117 -0.8331  2.8341
13174TIP3   OH260936   6.297   4.916  13.844  0.3862 -0.8545 -0.5457
13174TIP3    H160937   6.279   5.009  13.827 -0.0821 -0.8578 -0.0866
13174TIP3    H260938   6.281   4.873  13.760  1.0161 -0.4676 -0.8708
13175TIP3   OH260939   0.266   5.869  12.306  0.3228 -0.0690  0.0828
13175TIP3    H160940   0.259   5.778  12.276  0.8882  0.6922 -2.5845
13175TIP3    H260941   0.178   5.890  12.338  0.4422 -1.8194  1.7847
13176TIP3   OH260942   1.732   2.323  12.536 -0.7503  0.3881 -0.6111
13176TIP3    H160943   1.771   2.307  12.622 -0.8351 -0.0097 -0.6431
13176TIP3    H260944   1.771   2.405  12.507 -2.4195  1.7350  0.7699
13177TIP3   OH260945   6.341   0.061  16.444  0.0558 -0.1793  0.3264
13177TIP3    H160946   6.399   0.134  16.467  1.0458 -0.9239  0.2693
13177TIP3    H260947   6.273   0.100  16.388  0.7821  0.6310 -0.0068
13178TIP3   OH260948   1.503   3.222   1.623 -0.6733  0.0800 -0.5192
13178TIP3    H160949   1.472   3.292   1.566 -1.3525 -0.2742 -0.5910
13178TIP3    H260950   1.524   3.150   1.564 -2.9492 -0.8863 -0.2469
13179TIP3   OH260951   3.044   6.811  13.999 -0.3796  0.0137  0.0153
13179TIP3    H160952   3.047   6.757  13.919 -0.6376  1.4603 -1.0176
13179TIP3    H260953   2.951   6.821  14.018 -0.4652  1.8315 -1.0883
13180TIP3   OH260954   5.412   5.461   2.747 -0.5971  0.2334  0.0949
13180TIP3    H160955   5.424   5.510   2.828 -1.9376 -1.0643  1.1050
13180TIP3    H260956   5.499   5.464   2.705 -0.4314  2.7998  0.4381
13181TIP3   OH260957   6.288   5.799  13.188  0.0303 -0.6537  0.4382
13181TIP3    H160958   6.272   5.727  13.248 -1.6980  0.7123  1.7416
13181TIP3    H260959   6.247   5.772  13.106 -0.6464 -1.1441  0.9308
13182TIP3   OH260960   0.958   1.022  14.284 -0.2367 -0.5140  0.7150
13182TIP3    H160961   1.042   0.978  14.272  0.1258 -0.1959  1.9456
13182TIP3    H260962   0.941   1.017  14.378 -1.4610 -0.3209  0.5241
13183TIP3   OH260963   3.771   2.710  16.570  0.3422  0.0463 -0.1805
13183TIP3    H160964   3.786   2.777  16.637  0.0831 -1.1384  1.1043
13183TIP3    H260965   3.857   2.670  16.557  0.2917 -0.0564 -0.1961
13184TIP3   OH260966   3.241   5.147  12.178  0.8677 -0.0969  0.3683
13184TIP3    H160967   3.299   5.077  12.208 -0.3187 -0.7479  1.2727
13184TIP3    H260968   3.154   5.121  12.211  0.1930  1.1988 -0.3114
13185TIP3   OH260969   4.606   5.019  10.825 -0.7358  0.3465  0.3874
13185TIP3    H160970   4.666   5.087  10.794 -2.2303  2.8249  2.6085
13185TIP3    H260971   4.523   5.039  10.783 -1.0851 -0.4216  0.6982
13186TIP3   OH260972   1.546   6.239  15.005  0.2240  0.1604  0.3010
13186TIP3    H160973   1.461   6.225  14.962  1.0812  2.1596 -2.3089
13186TIP3    H260974   1.535   6.322  15.051  0.0342 -0.8465  2.1429
13187TIP3   OH260975   4.602   6.379  16.822  0.1385  0.7906 -0.6827
13187TIP3    H160976   4.698   6.381  16.820  0.1778 -0.5584 -1.9338
13187TIP3    H260977   4.580   6.291  16.852 -0.7172  1.0015 -0.6598
13188TIP3   OH260978   4.770   3.399  12.918 -0.0470  0.6560 -0.4340
13188TIP3    H160979   4.744   3.329  12.978 -1.5895 -0.1592 -2.0013
13188TIP3    H260980   4.809   3.354  12.843 -0.0638  1.5325 -0.9837
13189TIP3   OH260981   6.368   5.235  13.777 -0.4884 -0.1392  0.0688
13189TIP3    H160982   6.371   5.184  13.696 -0.0002  1.8383 -1.2277
13189TIP3    H260983   6.303   5.303  13.759  0.9546  1.4387  0.6232
13190TIP3   OH260984   4.848   1.296  11.457 -0.4104 -0.9074  0.1233
13190TIP3    H160985   4.841   1.308  11.551 -2.1115  1.5918 -0.1966
13190TIP3    H260986   4.919   1.355  11.431 -1.5239  0.2899 -0.3440
13191TIP3   OH260987   1.806   2.408   1.368 -0.0475  0.4524  0.6413
13191TIP3    H160988   1.806   2.489   1.421 -0.1959  0.0246  1.3092
13191TIP3    H260989   1.826   2.339   1.431 -1.8489 -0.2846  0.4530
13192TIP3   OH260990   6.463   0.397  15.354  0.1156  0.4249  0.0821
13192TIP3    H160991   6.405   0.388  15.278 -0.4361 -0.2911  0.5727
13192TIP3    H260992   6.497   0.309  15.368  0.0988  0.5200  0.7449
13193TIP3   OH260993   4.346   5.911  16.201  0.0375  0.6373 -0.1743
13193TIP3    H160994   4.363   5.991  16.250 -1.7104  0.1832  1.2777
13193TIP3    H260995   4.255   5.888  16.222 -0.0291 -0.8619 -1.8176
13194TIP3   OH260996   0.417   1.153  13.053 -0.2965 -0.1175  0.4541
13194TIP3    H160997   0.453   1.240  13.071 -0.5523  0.3027 -0.9411
13194TIP3    H260998   0.479   1.092  13.093  0.0782  0.6899  1.1373
13195TIP3   OH260999   5.412   0.310  16.155 -0.1441 -0.1828  0.8550
13195TIP3    H161000   5.399   0.216  16.169  0.8065 -0.4722 -0.1176
13195TIP3    H261001   5.325   0.348  16.169 -0.3107 -1.0519  2.3544
13196TIP3   OH261002   2.223   3.612   1.845  0.1887  0.2917  0.5130
13196TIP3    H161003   2.162   3.538   1.851  1.3719 -0.7467  0.1048
13196TIP3    H261004   2.288   3.595   1.913  0.9873  0.4474 -0.1953
13197TIP3   OH261005   4.753   2.679   2.863 -0.2761 -0.0461  0.3633
13197TIP3    H161006   4.820   2.658   2.927 -1.5955 -1.1895  1.4255
13197TIP3    H261007   4.769   2.620   2.789 -1.8422 -2.5270  1.8677
13198TIP3   OH261008   6.703   3.860  11.658 -0.1452 -0.2880 -0.8831
13198TIP3    H161009   6.693   3.769  11.686  1.7376 -0.2539  0.0556
13198TIP3    H261010   6.798   3.872  11.648 -0.3685  1.5145 -1.2101
13199TIP3   OH261011   5.941   3.528  11.642  0.0008  0.0958  0.1833
13199TIP3    H161012   6.008   3.512  11.709 -0.8184  0.2884  1.0825
13199TIP3    H261013   5.977   3.598  11.588  0.5884  0.1039  0.5724
13200TIP3   OH261014   6.652   2.457   6.333  0.8033 -0.0968  0.2321
13200TIP3    H161015   6.706   2.435   6.257 -0.1779 -0.6516 -0.3157
13200TIP3    H261016   6.629   2.549   6.320  0.2913 -0.3065 -0.3599
13201TIP3   OH261017   1.799   6.256  12.793 -0.1382 -0.0409  0.2248
13201TIP3    H161018   1.890   6.268  12.766 -0.0758 -0.0541  0.4248
13201TIP3    H261019   1.749   6.314  12.737  0.0684  0.4932  0.5890
13202TIP3   OH261020   5.725   0.060   1.554  0.6718  0.1617  0.0972
13202TIP3    H161021   5.727   0.114   1.475 -1.3852  2.1125  1.2669
13202TIP3    H261022   5.813   0.069   1.591  0.9201  1.2224 -0.7045
13203TIP3   OH261023   5.918   2.277   1.472  0.0844  0.0079 -0.2867
13203TIP3    H161024   5.914   2.322   1.557 -0.3656 -0.2293 -0.1758
13203TIP3    H261025   5.840   2.221   1.472  0.0091  0.1145 -0.9186
13204TIP3   OH261026   2.759   3.186  12.974 -0.3555  0.2319 -0.5920
13204TIP3    H161027   2.731   3.267  12.932 -1.4693 -0.1985 -0.6940
13204TIP3    H261028   2.771   3.124  12.902 -1.2132 -0.1964 -0.3699
13205TIP3   OH261029   6.634   5.112   0.027  0.2871 -0.3600 -0.0001
13205TIP3    H161030   6.608   5.052   0.097 -1.3930 -1.5570 -1.5767
13205TIP3    H261031   6.568   5.181   0.029 -0.4760 -1.0390 -1.1507
13206TIP3   OH261032   2.950   1.408  15.562  0.4972 -0.1695  0.4388
13206TIP3    H161033   3.008   1.427  15.488  2.2150 -0.2665  1.6782
13206TIP3    H261034   2.894   1.484  15.570  1.2823  0.4796 -0.0821
13207TIP3   OH261035   4.560   0.131  13.917  0.0522  0.1081 -0.5348
13207TIP3    H161036   4.569   0.225  13.900  0.3738  0.0135 -0.9263
13207TIP3    H261037   4.472   0.109  13.886  0.8414 -0.1831 -2.8403
13208TIP3   OH261038   1.398   3.386  14.711  0.0187  0.3242 -0.0595
13208TIP3    H161039   1.359   3.410  14.627 -1.0387 -0.3860  0.2111
13208TIP3    H261040   1.344   3.431  14.776  0.6403  0.6177  0.2566
13209TIP3   OH261041   5.583   2.799   1.381  0.0039  0.1798  0.3265
13209TIP3    H161042   5.626   2.883   1.393 -1.3402  0.7425  1.3876
13209TIP3    H261043   5.618   2.766   1.298  0.7710  1.6360  0.0442
13210TIP3   OH261044   2.342   1.535  16.794  0.1743  0.2392  0.1843
13210TIP3    H161045   2.398   1.458  16.803 -3.0986 -2.4087 -0.2020
13210TIP3    H261046   2.317   1.537  16.702 -1.2228  0.6841  0.5561
13211TIP3   OH261047   5.236   0.103  10.936  0.3496  0.1935 -0.3315
13211TIP3    H161048   5.204   0.099  10.846  2.1511  0.1726 -1.0194
13211TIP3    H261049   5.195   0.181  10.973  0.1818  0.6413 -1.4277
13212TIP3   OH261050   0.142   0.943   2.226  0.2529 -0.3695 -0.7847
13212TIP3    H161051   0.167   1.035   2.227 -0.8527 -0.0529 -0.3846
13212TIP3    H261052   0.171   0.911   2.141  0.3082  0.4537 -1.0822
13213TIP3   OH261053   5.910   3.817   3.661 -0.0105 -0.3001  0.1715
13213TIP3    H161054   5.912   3.906   3.696  0.5051 -0.4952  0.6507
13213TIP3    H261055   5.903   3.828   3.567  0.0555  0.2483  0.2291
13214TIP3   OH261056   6.647   1.587   3.941 -0.1563 -0.5527 -0.2278
13214TIP3    H161057   6.622   1.506   3.895 -1.1401 -0.5665  0.2911
13214TIP3    H261058   6.593   1.654   3.900  0.0166 -0.3164 -0.0666
13215TIP3   OH261059   5.476   2.831  16.394  0.1804 -0.1320 -0.3061
13215TIP3    H161060   5.471   2.738  16.415 -3.4230  0.3314  1.6466
13215TIP3    H261061   5.482   2.875  16.479  1.0263  1.4961 -1.1449
13216TIP3   OH261062   3.283   5.718  13.663  0.3586 -0.2358  0.3923
13216TIP3    H161063   3.344   5.783  13.628  0.5496 -1.0304 -0.7975
13216TIP3    H261064   3.196   5.754  13.643  0.4311  0.4121  1.1874
13217TIP3   OH261065   1.288   3.883  12.371  0.2466  0.4616 -0.3413
13217TIP3    H161066   1.355   3.822  12.340  0.9768 -0.8940  3.3456
13217TIP3    H261067   1.333   3.967  12.377  1.3913 -0.2003  1.0439
13218TIP3   OH261068   1.285   3.764   2.615 -0.2557 -0.4180 -0.2748
13218TIP3    H161069   1.190   3.756   2.618 -0.2491 -0.6233 -0.6292
13218TIP3    H261070   1.301   3.845   2.566 -0.2479 -0.3304 -0.1289
13219TIP3   OH261071   4.386   2.508  13.104 -0.1124 -0.4510  0.2137
13219TIP3    H161072   4.374   2.579  13.168 -1.8845 -1.2800  0.8689
13219TIP3    H261073   4.451   2.450  13.143 -1.1840 -0.9520  1.3103
13220TIP3   OH261074   0.174   1.830  15.936 -0.6165 -0.0101 -0.2764
13220TIP3    H161075   0.122   1.833  16.016 -0.1285 -0.6520  0.0746
13220TIP3    H261076   0.140   1.902  15.883  0.2261  1.5474  1.2129
13221TIP3   OH261077   2.744   0.909  11.314 -0.2658  0.6018  0.0594
13221TIP3    H161078   2.723   0.826  11.272 -0.6275  0.6542  0.1370
13221TIP3    H261079   2.833   0.929  11.284 -0.1620  0.1710  0.0706
13222TIP3   OH261080   5.930   2.051   1.744 -0.2196 -0.4016  0.1685
13222TIP3    H161081   5.890   1.975   1.786  2.9036 -1.7672  0.9702
13222TIP3    H261082   6.018   2.056   1.782  0.7627  1.7708 -2.1114
13223TIP3   OH261083   2.863   0.094   4.929  0.3589  0.1092 -0.0407
13223TIP3    H161084   2.783   0.141   4.906 -0.8024 -1.8977 -0.2905
13223TIP3    H261085   2.896   0.141   5.006 -2.3434 -0.3519  1.5391
13224TIP3   OH261086   4.668   6.710  13.423 -0.3092 -0.3843  0.4366
13224TIP3    H161087   4.720   6.724  13.345  0.1728  0.5982  0.9258
13224TIP3    H261088   4.580   6.740  13.400  0.1773  1.3426  0.7349
13225TIP3   OH261089   2.515   6.636   5.759 -0.0718 -0.1392 -0.2480
13225TIP3    H161090   2.445   6.588   5.804 -0.8975 -0.1737 -1.4996
13225TIP3    H261091   2.547   6.575   5.693  0.8020  0.0659 -0.0243
13226TIP3   OH261092   6.261   0.217   2.890  0.4453  0.3996  0.5642
13226TIP3    H161093   6.278   0.311   2.896  0.7296  0.2988  1.4797
13226TIP3    H261094   6.344   0.179   2.862  0.6788  0.3023  1.3667
13227TIP3   OH261095   1.821   2.205   3.170  0.1220  0.0954  0.1663
13227TIP3    H161096   1.794   2.153   3.094 -1.1598 -0.6907  1.1154
13227TIP3    H261097   1.911   2.177   3.186  0.4818  0.4046 -1.1526
13228TIP3   OH261098   3.552   5.663   2.674 -0.1245 -0.4103  0.2099
13228TIP3    H161099   3.632   5.638   2.720 -0.2695 -1.2677  0.0130
13228TIP3    H261100   3.559   5.758   2.665  1.5473 -0.5912 -1.0315
13229TIP3   OH261101   4.604   2.949  14.169 -0.1128  0.5610  0.2461
13229TIP3    H161102   4.593   2.963  14.263  2.0507  0.7126  0.5386
13229TIP3    H261103   4.515   2.948  14.134 -1.0085 -0.1632  2.3700
13230TIP3   OH261104   3.734   1.439  16.024  0.3823  0.7764 -0.4157
13230TIP3    H161105   3.788   1.442  15.945  0.1193  0.7061 -0.5989
13230TIP3    H261106   3.647   1.465  15.995 -0.3558 -1.7517 -0.7001
13231TIP3   OH261107   2.245   3.274  15.946 -0.1853 -0.1448  0.3633
13231TIP3    H161108   2.152   3.263  15.926 -0.5714  1.3101  1.2303
13231TIP3    H261109   2.268   3.195  15.996 -0.5075 -1.3011 -1.2122
13232TIP3   OH261110   1.933   5.408  12.006  0.3703  0.1298 -0.4588
13232TIP3    H161111   1.999   5.353  12.049  1.5506  1.1399 -0.9331
13232TIP3    H261112   1.895   5.459  12.077 -0.4189 -0.9425 -0.0803
13233TIP3   OH261113   4.609   5.177   4.193 -0.5943 -0.5990  0.2851
13233TIP3    H161114   4.675   5.114   4.222  1.0575  0.5986 -0.7084
13233TIP3    H261115   4.650   5.263   4.204 -1.9268  0.1870 -0.4986
13234TIP3   OH261116   3.008   1.967  13.085 -0.6113 -0.0033  0.6057
13234TIP3    H161117   3.051   2.051  13.073  0.8194 -0.6868  0.7513
13234TIP3    H261118   3.054   1.927  13.160 -0.4484 -1.4043 -0.2069
13235TIP3   OH261119   1.356   6.184  11.932 -0.7895 -0.2384  0.3923
13235TIP3    H161120   1.279   6.165  11.877 -3.0328  0.4708  3.0454
13235TIP3    H261121   1.319   6.222  12.012  2.5016  2.4818  0.8636
13236TIP3   OH261122   0.966   3.242   3.779  0.9673 -0.5578  0.2348
13236TIP3    H161123   1.054   3.228   3.743  0.9604 -1.2497  0.4627
13236TIP3    H261124   0.974   3.213   3.870  0.3670 -1.1517  0.1058
13237TIP3   OH261125   5.526   0.437   1.350 -0.1817  0.2540  0.4012
13237TIP3    H161126   5.483   0.393   1.277 -1.1998  1.5013  0.2044
13237TIP3    H261127   5.529   0.372   1.420  1.1985 -1.1180 -0.8516
13238TIP3   OH261128   6.634   1.552  14.525  0.3975  0.1230 -0.7307
13238TIP3    H161129   6.672   1.631  14.563 -0.2301  0.3303 -0.5240
13238TIP3    H261130   6.703   1.486  14.533  0.3273  0.1928  0.6476
13239TIP3   OH261131   2.764   3.156   4.514  0.1765 -0.2827  0.0308
13239TIP3    H161132   2.699   3.214   4.474 -1.5043 -1.5076  0.8737
13239TIP3    H261133   2.791   3.201   4.593  0.7731  0.4596 -0.5731
13240TIP3   OH261134   0.317   0.917  16.852 -0.1324 -0.5631  0.3216
13240TIP3    H161135   0.341   0.825  16.858 -0.6651 -0.8897 -1.8094
13240TIP3    H261136   0.223   0.918  16.872 -0.3174 -0.6238 -0.5175
13241TIP3   OH261137   0.805   5.449  14.922 -0.3147 -0.1758  0.0639
13241TIP3    H161138   0.870   5.452  14.851 -0.0179 -0.2143  0.3312
13241TIP3    H261139   0.827   5.370  14.971  0.1601  0.4241  0.8317
13242TIP3   OH261140   5.631   4.173   0.426 -0.0563 -0.2356 -0.3051
13242TIP3    H161141   5.670   4.177   0.338 -0.8653  0.8147 -0.6446
13242TIP3    H261142   5.609   4.264   0.446 -0.0139 -0.4833  0.9359
13243TIP3   OH261143   5.547   5.625   1.989  0.5333 -0.4047  0.6756
13243TIP3    H161144   5.452   5.624   1.975  0.4635  0.1393  1.0731
13243TIP3    H261145   5.583   5.656   1.906  0.1856  1.8803  1.3143
13244TIP3   OH261146   3.667   4.781  11.300  0.1776 -0.1134 -0.9736
13244TIP3    H161147   3.624   4.848  11.353 -0.3332 -1.3550  0.2468
13244TIP3    H261148   3.601   4.713  11.289  0.8769 -0.7062 -1.6542
13245TIP3   OH261149   5.823   3.762   0.764 -0.0213 -0.6977 -0.5232
13245TIP3    H161150   5.902   3.722   0.729  0.5069  0.8722 -1.1948
13245TIP3    H261151   5.807   3.715   0.846  1.5355 -1.1001 -0.4176
13246TIP3   OH261152   0.791   2.879   0.285 -0.2517  0.5408 -0.4886
13246TIP3    H161153   0.794   2.970   0.313  0.0186  0.6037 -0.7198
13246TIP3    H261154   0.699   2.864   0.263 -0.2584  0.8251 -0.6670
13247TIP3   OH261155   5.791   0.137  14.645  0.1628 -0.7497  0.5057
13247TIP3    H161156   5.808   0.066  14.707  2.7201 -0.4033  0.2771
13247TIP3    H261157   5.802   0.217  14.696  0.0491 -0.4859  0.1198
13248TIP3   OH261158   1.898   1.452  17.122  0.1309  0.6597 -0.2741
13248TIP3    H161159   1.977   1.450  17.069  0.8893 -0.6433  0.8489
13248TIP3    H261160   1.928   1.477  17.209 -0.7632  0.5659  0.0758
13249TIP3   OH261161   3.899   6.435  11.385 -0.1052 -0.0036 -0.2858
13249TIP3    H161162   3.937   6.393  11.308 -1.2894 -0.9942 -0.3602
13249TIP3    H261163   3.836   6.497  11.349 -0.7801 -0.5873 -0.1213
13250TIP3   OH261164   4.610   4.923   4.013 -0.1020  0.1284  0.0405
13250TIP3    H161165   4.629   4.843   3.964  1.0056  0.1045  0.4743
13250TIP3    H261166   4.616   4.897   4.105  0.8366  0.8131  0.1930
13251TIP3   OH261167   0.065   0.698  15.240  0.1366 -0.0885 -0.3570
13251TIP3    H161168   0.038   0.756  15.169  0.3394  1.7140  0.9675
13251TIP3    H261169   0.015   0.618  15.226 -0.3606  0.4861 -2.1029
13252TIP3   OH261170   2.317   0.806  15.910  0.0534  0.0531 -0.5441
13252TIP3    H161171   2.380   0.838  15.974 -0.6672 -1.5584  1.0475
13252TIP3    H261172   2.242   0.864  15.919  1.0211  1.6670 -2.0952
13253TIP3   OH261173   3.320   1.375   2.297  0.4931 -0.0015  0.5668
13253TIP3    H161174   3.289   1.464   2.282 -0.1905 -0.3347 -0.0731
13253TIP3    H261175   3.317   1.364   2.392  0.4138  0.5988  0.6359
13254TIP3   OH261176   6.278   2.552   3.643  0.1587 -0.2713  0.0035
13254TIP3    H161177   6.232   2.547   3.559  0.6491  0.5173 -0.3278
13254TIP3    H261178   6.218   2.601   3.700 -0.1236 -0.7006  0.0762
13255TIP3   OH261179   2.847   1.211   3.688 -0.3991  0.2354 -0.8370
13255TIP3    H161180   2.764   1.258   3.684  1.5920  4.0769 -1.5740
13255TIP3    H261181   2.847   1.156   3.609 -2.2676 -0.0251 -0.7006
13256TIP3   OH261182   0.123   6.010  15.988 -0.2592  0.2737  0.1934
13256TIP3    H161183   0.028   6.004  16.002 -0.2031 -0.6223  0.2406
13256TIP3    H261184   0.134   5.996  15.894  0.0013 -2.3041  0.5368
13257TIP3   OH261185   1.050   2.665   1.125 -0.1492 -0.1234  0.0135
13257TIP3    H161186   1.119   2.721   1.160  0.5587 -1.3169  0.5748
13257TIP3    H261187   1.050   2.588   1.181 -3.6590  0.8538  1.6902
13258TIP3   OH261188   2.236   0.772  16.612  0.5963  0.9276  0.1909
13258TIP3    H161189   2.150   0.805  16.587 -0.8834 -2.6045  0.0311
13258TIP3    H261190   2.234   0.769  16.707  1.2818  2.4357  0.2832
13259TIP3   OH261191   5.226   0.652   5.317  0.4660  0.8177  0.5796
13259TIP3    H161192   5.247   0.576   5.371 -0.8892 -0.0164 -0.0372
13259TIP3    H261193   5.147   0.689   5.356  0.1415  0.8941 -0.1339
13260TIP3   OH261194   0.880   0.196  11.460 -0.2350  0.2559 -0.1213
13260TIP3    H161195   0.816   0.265  11.479  0.9668  1.2435  0.5646
13260TIP3    H261196   0.956   0.220  11.513  0.4851 -1.2172 -0.4383
13261TIP3   OH261197   5.205   6.181   2.533  0.0282  0.1004  0.0487
13261TIP3    H161198   5.294   6.144   2.526  0.3001  0.8584 -0.5250
13261TIP3    H261199   5.212   6.245   2.604  0.5278  1.7963 -1.4688
13262TIP3   OH261200   1.972   4.442  14.217 -0.6514  0.1898  0.4224
13262TIP3    H161201   1.948   4.533  14.232  1.7240  0.8463  0.6589
13262TIP3    H261202   2.057   4.446  14.175 -1.5440 -1.9121 -1.8126
13263TIP3   OH261203   5.371   6.047  11.421 -1.4590  0.2713  0.0415
13263TIP3    H161204   5.355   6.139  11.440 -0.1714  0.3926  0.6785
13263TIP3    H261205   5.324   6.000  11.490  0.1272  0.5857  1.4224
13264TIP3   OH261206   5.760   6.532   3.505 -0.2083  0.1011 -0.1173
13264TIP3    H161207   5.853   6.514   3.496 -0.5133 -0.8918 -1.5352
13264TIP3    H261208   5.744   6.531   3.600  0.9709 -1.0238  0.0927
13265TIP3   OH261209   0.519   2.726   0.244 -0.9321 -0.1359 -0.0921
13265TIP3    H161210   0.451   2.775   0.198 -0.0597  0.0523 -1.2272
13265TIP3    H261211   0.541   2.654   0.185 -1.5475 -1.3952  1.1545
13266TIP3   OH261212   6.351   2.515   4.682 -0.9295 -0.0648  0.2461
13266TIP3    H161213   6.363   2.551   4.594 -1.6768 -1.1917 -0.3441
13266TIP3    H261214   6.259   2.533   4.703 -0.4262  1.3722  1.3704
13267TIP3   OH261215   4.798   4.599  13.146 -0.3441  0.3396  0.2036
13267TIP3    H161216   4.754   4.520  13.176  1.1224  0.0067  1.6240
13267TIP3    H261217   4.880   4.568  13.107  0.1977  1.1385  0.6696
13268TIP3   OH261218   3.235   1.552  11.828 -0.3215 -0.0795 -0.4097
13268TIP3    H161219   3.224   1.465  11.788 -1.2066 -0.9730  1.6091
13268TIP3    H261220   3.175   1.551  11.903 -0.8900  2.5770 -0.7616
13269TIP3   OH261221   5.472   5.799  15.317 -0.0190  0.0437 -0.0109
13269TIP3    H161222   5.549   5.749  15.290 -0.4589 -1.5685  1.5835
13269TIP3    H261223   5.426   5.743  15.379 -2.0475  1.3109 -0.2453
13270TIP3   OH261224   6.377   3.804   0.334  0.0440  0.3345  0.1640
13270TIP3    H161225   6.312   3.871   0.315 -0.2663  0.0259  0.1261
13270TIP3    H261226   6.394   3.761   0.250  0.1216  0.2558  0.2190
13271TIP3   OH261227   3.031   4.198  13.074  1.0935 -0.2463  0.0612
13271TIP3    H161228   3.066   4.115  13.044 -2.2431 -1.8188  0.0924
13271TIP3    H261229   3.002   4.243  12.995  1.3571  0.1115  0.1669
13272TIP3   OH261230   1.974   5.241  11.541  0.0510 -0.2740  0.6017
13272TIP3    H161231   1.995   5.277  11.627  0.1821  0.7050  0.1744
13272TIP3    H261232   1.878   5.233  11.541  0.1009 -1.0246  1.1103
13273TIP3   OH261233   0.802   5.317   2.972 -0.1408  0.3832 -0.5079
13273TIP3    H161234   0.763   5.338   2.887  0.3535  1.1397 -0.5600
13273TIP3    H261235   0.736   5.345   3.036  0.1678  1.3793 -0.6035
13274TIP3   OH261236   5.231   1.303  11.683  0.5023 -0.1660 -0.4986
13274TIP3    H161237   5.145   1.301  11.641  0.4678  1.3012 -0.5409
13274TIP3    H261238   5.270   1.386  11.653  0.6868  0.6933  1.9427
13275TIP3   OH261239   6.194   4.139   4.401  0.1660 -0.5545 -0.0910
13275TIP3    H161240   6.124   4.073   4.404 -0.0269 -0.3294  0.6535
13275TIP3    H261241   6.160   4.207   4.343 -1.0075  0.3744  1.5645
13276TIP3   OH261242   5.811   3.374  16.502  0.0226 -0.4859  0.1026
13276TIP3    H161243   5.730   3.327  16.483  0.3491 -0.9158 -0.2539
13276TIP3    H261244   5.783   3.451  16.551 -0.6343 -0.4453 -0.3196
13277TIP3   OH261245   2.063   4.097   1.373  0.3782 -0.0254  0.1196
13277TIP3    H161246   2.075   4.084   1.467 -2.1945  0.4277  0.5966
13277TIP3    H261247   2.105   4.181   1.355 -0.1069  0.4516  1.1330
13278TIP3   OH261248   1.383   5.797   1.122 -1.1883 -0.0712 -0.4737
13278TIP3    H161249   1.378   5.886   1.088 -1.5101  0.4197  0.7843
13278TIP3    H261250   1.298   5.783   1.165 -0.7101 -0.5518  0.3334
13279TIP3   OH261251   6.044   0.407  17.002 -0.2455  0.2566  0.1278
13279TIP3    H161252   6.033   0.390  16.909 -1.7813 -0.8855  0.4802
13279TIP3    H261253   6.090   0.492  17.006  2.5136 -1.0035 -1.6585
13280TIP3   OH261254   2.003   2.859   0.892 -0.2133  0.2613  0.0782
13280TIP3    H161255   1.933   2.795   0.879 -0.1994  0.4624 -1.0793
13280TIP3    H261256   2.050   2.827   0.970 -1.5364  0.1010  0.8365
13281TIP3   OH261257   5.167   0.085   0.362  0.2994 -0.1509 -0.1574
13281TIP3    H161258   5.257   0.058   0.381  0.1315 -1.0243 -0.5492
13281TIP3    H261259   5.120   0.002   0.351 -0.5072  0.3043 -0.1567
13282TIP3   OH261260   2.760   6.060  10.836  0.0864  0.4072  0.2357
13282TIP3    H161261   2.725   6.127  10.896 -2.3620  0.0735 -0.7144
13282TIP3    H261262   2.786   6.109  10.758 -0.1797  0.4347  0.1637
13283TIP3   OH261263   1.840   4.784  15.763 -0.3035  0.0060  0.4948
13283TIP3    H161264   1.819   4.837  15.686 -0.0492  3.2376  2.4798
13283TIP3    H261265   1.935   4.771  15.758 -0.1138  1.1862  0.8048
13284TIP3   OH261266   5.270   6.234  14.434 -0.2116  0.5962  0.1190
13284TIP3    H161267   5.310   6.256  14.518 -1.8091  1.8266  0.6127
13284TIP3    H261268   5.322   6.160  14.401  0.0251 -0.3937  2.5039
13285TIP3   OH261269   4.358   0.086   3.870  0.5323  0.1396 -0.6387
13285TIP3    H161270   4.437   0.140   3.867  0.0062  0.9706  0.0554
13285TIP3    H261271   4.391  -0.001   3.893  1.5867 -0.3280 -3.5126
13286TIP3   OH261272   1.312   3.289   1.989 -0.2585  0.0820  0.1617
13286TIP3    H161273   1.326   3.382   2.007 -0.4292  0.2320 -0.4503
13286TIP3    H261274   1.267   3.256   2.066 -0.3549  0.5511  0.3107
13287TIP3   OH261275   5.474   2.549  17.028  0.6038 -0.3760 -0.1552
13287TIP3    H161276   5.567   2.560  17.006  0.6001 -1.6067 -0.8599
13287TIP3    H261277   5.431   2.622  16.983  1.2702  0.4800  0.5679
13288TIP3   OH261278   6.535   2.594   1.631  0.3852  0.4851 -0.0245
13288TIP3    H161279   6.543   2.622   1.540  0.0726 -0.0314 -0.2146
13288TIP3    H261280   6.623   2.604   1.667  1.1833 -1.9291 -1.1548
13289TIP3   OH261281   5.234   4.165  12.058 -0.0997 -0.7766 -0.6603
13289TIP3    H161282   5.225   4.173  12.153  0.2557 -0.7268 -0.6288
13289TIP3    H261283   5.312   4.111  12.046  0.4091 -0.0054 -0.9307
13290TIP3   OH261284   0.806   0.632  14.626  0.1901  0.2844  0.3148
13290TIP3    H161285   0.849   0.549  14.604  0.5303  0.5657 -0.1073
13290TIP3    H261286   0.745   0.647  14.553 -1.3870 -0.6043  1.3804
13291TIP3   OH261287   6.425   2.082   2.069 -0.3232  0.1735 -0.6955
13291TIP3    H161288   6.435   1.999   2.116  1.3252  0.9476  0.3919
13291TIP3    H261289   6.460   2.063   1.981  1.3452  0.0443 -0.0431
13292TIP3   OH261290   1.093   5.304  11.449  0.0784 -0.5925  0.1901
13292TIP3    H161291   1.094   5.209  11.457 -0.4549 -0.6080  0.0707
13292TIP3    H261292   1.111   5.320  11.356  0.7028 -0.5575  0.3108
13293TIP3   OH261293   3.454   3.012  12.274 -0.4953 -0.5356 -0.7133
13293TIP3    H161294   3.417   3.084  12.222  1.2113  1.9349  1.2755
13293TIP3    H261295   3.386   2.992  12.338 -1.1075 -0.9830 -1.4777
13294TIP3   OH261296   4.576   5.080  16.774 -0.0244 -0.0708 -0.0713
13294TIP3    H161297   4.562   5.058  16.682 -1.1333  0.2962 -0.0031
13294TIP3    H261298   4.517   5.023  16.822 -1.6359  1.7389  0.2160
13295TIP3   OH261299   0.174   2.567   2.949  0.1244  0.0531 -0.4002
13295TIP3    H161300   0.193   2.638   2.888  0.0779 -0.2845 -0.8207
13295TIP3    H261301   0.105   2.516   2.906  0.7931 -0.7683 -0.5498
13296TIP3   OH261302   4.546   5.472  14.163 -0.2759  0.6764 -0.2737
13296TIP3    H161303   4.633   5.510  14.151 -0.3575  0.8707 -0.2435
13296TIP3    H261304   4.486   5.546  14.155 -0.4822  0.4516 -0.9059
13297TIP3   OH261305   4.997   3.886   2.504 -0.3128 -0.2344  0.1294
13297TIP3    H161306   4.957   3.867   2.419 -0.5915  0.3689  0.1247
13297TIP3    H261307   4.932   3.937   2.551 -0.5592 -1.3991  1.1026
13298TIP3   OH261308   1.029   5.729  15.950  0.1467 -0.0939 -0.0125
13298TIP3    H161309   1.056   5.709  15.860  1.5366 -0.6055  0.4941
13298TIP3    H261310   0.982   5.651  15.979 -2.6231  1.0266 -1.1032
13299TIP3   OH261311   3.388   0.988   0.750  0.0421  0.1787 -0.0043
13299TIP3    H161312   3.298   0.973   0.722  0.6919 -2.1433 -1.1394
13299TIP3    H261313   3.441   0.952   0.679  1.8983  1.8586  0.4390
13300TIP3   OH261314   6.554   3.652  11.195 -0.1554 -0.6286  0.2075
13300TIP3    H161315   6.567   3.574  11.140 -0.3182  0.4331 -1.3956
13300TIP3    H261316   6.626   3.648  11.259  1.1148 -1.0099 -1.1707
13301TIP3   OH261317   0.178   4.036   0.962 -0.0671  0.0813 -0.0408
13301TIP3    H161318   0.161   4.123   0.927  1.9956  0.5541 -0.0064
13301TIP3    H261319   0.252   4.003   0.911  0.9304 -0.5279  1.6850
13302TIP3   OH261320   0.548   2.907  13.609 -0.0232 -0.6601 -0.7319
13302TIP3    H161321   0.474   2.957  13.643 -0.1537  0.3511 -2.3996
13302TIP3    H261322   0.509   2.843  13.550  0.3725 -0.6721 -0.9879
13303TIP3   OH261323   5.948   0.191  12.780  0.0412 -0.2570  0.1143
13303TIP3    H161324   5.901   0.238  12.849 -1.2584 -0.6990 -0.4354
13303TIP3    H261325   6.032   0.236  12.773 -0.5518  0.9851  0.6727
13304TIP3   OH261326   3.469   3.243  14.327 -0.2430  0.0825 -0.1786
13304TIP3    H161327   3.447   3.251  14.234 -1.9534  0.3524  0.2002
13304TIP3    H261328   3.413   3.172  14.358  1.6445 -1.2669  0.2924
13305TIP3   OH261329   0.433   3.054   2.968 -0.3421  0.3732  0.2197
13305TIP3    H161330   0.415   2.975   3.019 -2.0234  1.1223  0.8656
13305TIP3    H261331   0.523   3.078   2.990 -0.3389 -0.5101  1.1969
13306TIP3   OH261332   6.080   0.993  15.289 -0.3111  0.0190  0.0863
13306TIP3    H161333   6.124   1.063  15.337  1.6686  0.3757 -2.0525
13306TIP3    H261334   5.992   0.988  15.327 -0.2951  3.2045  0.7608
13307TIP3   OH261335   0.027   4.445  13.344  0.3508  0.3533  0.0010
13307TIP3    H161336  -0.029   4.378  13.306  0.9222 -0.5661  0.7266
13307TIP3    H261337   0.073   4.401  13.414  3.6829  0.3878 -1.9344
13308TIP3   OH261338   2.288   0.191   4.695  0.1643 -0.5081 -0.2333
13308TIP3    H161339   2.253   0.107   4.726  0.8842 -0.5886  0.3718
13308TIP3    H261340   2.211   0.249   4.692  0.1041 -0.3673  2.1566
13309TIP3   OH261341   6.389   3.361   0.783 -0.4844  0.5310 -0.0050
13309TIP3    H161342   6.472   3.315   0.772 -1.2842 -1.1622  0.7354
13309TIP3    H261343   6.360   3.380   0.694 -0.1277 -0.4319 -0.3398
13310TIP3   OH261344   4.760   2.052   4.441  0.1081 -0.5436  0.0582
13310TIP3    H161345   4.853   2.034   4.454  0.1130 -0.7048 -0.1949
13310TIP3    H261346   4.715   1.976   4.478  0.1712 -1.7232 -2.1227
13311TIP3   OH261347   0.813   6.233  12.831 -0.0986  0.3049  0.4976
13311TIP3    H161348   0.890   6.231  12.887 -0.0355  0.1338  0.4056
13311TIP3    H261349   0.827   6.308  12.774 -0.4062  0.7896  1.0509
13312TIP3   OH261350   1.175   5.488  11.633  0.3588  0.1076  0.2105
13312TIP3    H161351   1.202   5.450  11.717  1.7828  0.2183 -0.1747
13312TIP3    H261352   1.194   5.419  11.569  2.5020  1.2070 -0.4339
13313TIP3   OH261353   6.532   2.777  13.433 -0.0290  0.3909  0.5113
13313TIP3    H161354   6.605   2.790  13.373  0.9556 -1.0603  1.3169
13313TIP3    H261355   6.525   2.860  13.481  0.6600  0.7742 -0.0401
13314TIP3   OH261356   4.720   4.406  13.499 -0.0732 -0.3710  0.2815
13314TIP3    H161357   4.655   4.468  13.467  0.2920  0.4912  1.1632
13314TIP3    H261358   4.803   4.438  13.464 -0.2284 -2.5909 -2.5650
13315TIP3   OH261359   5.960   0.219   2.414 -0.1258  0.7054  0.4381
13315TIP3    H161360   6.011   0.247   2.489  0.2220  1.1562  0.0420
13315TIP3    H261361   6.021   0.170   2.359 -0.1020  1.2704 -0.0521
13316TIP3   OH261362   1.667   4.281  13.388  0.1182 -0.5011 -0.0720
13316TIP3    H161363   1.720   4.235  13.323 -0.2367  0.3342 -0.9583
13316TIP3    H261364   1.728   4.343  13.429  0.4347 -1.2764  0.6833
13317TIP3   OH261365   6.352   4.280   4.592 -0.4373  0.4888 -0.0543
13317TIP3    H161366   6.416   4.225   4.637 -0.5979  0.7884  0.5423
13317TIP3    H261367   6.317   4.224   4.522  0.3498  0.2634 -0.2863
13318TIP3   OH261368   0.360   6.681   1.453 -0.2084 -0.4166  0.0052
13318TIP3    H161369   0.395   6.663   1.540 -0.9841 -0.3728  0.3340
13318TIP3    H261370   0.424   6.643   1.393  0.8785  0.4782  0.5592
13319TIP3   OH261371   6.190   5.243  15.679 -0.1746  0.4453  0.7206
13319TIP3    H161372   6.133   5.167  15.667  0.1285  0.1283  1.2310
13319TIP3    H261373   6.132   5.318  15.674 -0.1205  0.4174 -2.6689
13320TIP3   OH261374   4.778   4.406   0.584 -0.3998 -0.2630  0.6017
13320TIP3    H161375   4.856   4.401   0.528 -0.4666  0.5494  0.4192
13320TIP3    H261376   4.738   4.490   0.560 -2.6932 -1.7293 -1.0876
13321TIP3   OH261377   1.602   1.083  13.528  0.1065  0.1527  0.0612
13321TIP3    H161378   1.570   1.090  13.438  0.1302  2.3585  0.1593
13321TIP3    H261379   1.689   1.124  13.525  0.3692 -0.3282  0.9715
13322TIP3   OH261380   5.107   4.708  13.256  0.4023  0.6590  0.1226
13322TIP3    H161381   5.152   4.676  13.178  0.4210  2.0494 -0.4504
13322TIP3    H261382   5.172   4.760  13.302 -0.5453  2.6666 -0.7009
13323TIP3   OH261383   3.846   4.467   5.179 -0.0081 -0.0698  0.4668
13323TIP3    H161384   3.897   4.541   5.145  0.2382 -0.2668  0.3991
13323TIP3    H261385   3.801   4.502   5.256  0.1430  0.1381  0.4621
13324TIP3   OH261386   5.606   4.088   3.961  0.1649  0.0281  0.0619
13324TIP3    H161387   5.611   4.007   4.011  2.0008 -0.2605 -0.5133
13324TIP3    H261388   5.512   4.102   3.948 -0.2246 -1.5466  0.8916
13325TIP3   OH261389   0.617   3.468  10.284 -0.3030  0.1975  0.2174
13325TIP3    H161390   0.696   3.422  10.258 -0.1913  0.7339 -0.4238
13325TIP3    H261391   0.555   3.399  10.308  0.5520 -0.2142  1.3430
13326TIP3   OH261392   2.452   1.284  12.882  0.0294  0.0953  0.2944
13326TIP3    H161393   2.529   1.269  12.827  0.5310 -2.2094  1.5061
13326TIP3    H261394   2.477   1.356  12.939  0.6206  0.4969 -0.4528
13327TIP3   OH261395   4.489   3.859   0.636  0.4829  0.2545  0.1929
13327TIP3    H161396   4.416   3.805   0.607 -0.0596  0.8099  0.4985
13327TIP3    H261397   4.567   3.815   0.601 -0.0429  0.0855 -0.8236
13328TIP3   OH261398   0.161   4.896  16.676 -0.0345  0.1225  0.1508
13328TIP3    H161399   0.067   4.893  16.697  0.3625 -0.6832  1.9894
13328TIP3    H261400   0.174   4.820  16.618 -0.3454 -0.3796  0.7224
13329TIP3   OH261401   2.701   1.046   3.016 -0.1824 -0.0101  0.2001
13329TIP3    H161402   2.619   1.030   2.971 -0.2064  0.0688  0.2165
13329TIP3    H261403   2.725   1.136   2.994 -0.7576  0.4179  1.2347
13330TIP3   OH261404   3.292   1.795  16.258  0.3478 -0.3797  0.0120
13330TIP3    H161405   3.308   1.846  16.337  0.2821 -0.2981 -0.0275
13330TIP3    H261406   3.327   1.849  16.187  0.3781 -0.4382 -0.0172
13331TIP3   OH261407   1.461   0.888   0.755  0.1112 -0.2755  0.4107
13331TIP3    H161408   1.549   0.852   0.746  0.4514  0.2617  1.4011
13331TIP3    H261409   1.475   0.979   0.783 -0.7534 -0.0959  0.3087
13332TIP3   OH261410   4.862   0.523   2.359 -0.5453  0.3359  0.1938
13332TIP3    H161411   4.888   0.449   2.413  0.7641  0.0632 -0.7748
13332TIP3    H261412   4.807   0.485   2.291 -0.3486  0.3551  0.0272
13333TIP3   OH261413   0.796   1.997   1.234  0.6809 -0.0643 -0.2717
13333TIP3    H161414   0.796   1.962   1.323 -0.0153  0.8193  0.0882
13333TIP3    H261415   0.783   1.920   1.178  1.9997 -0.7439  0.3174
13334TIP3   OH261416   1.749   6.454   4.132 -0.4303 -0.4588  0.1320
13334TIP3    H161417   1.809   6.381   4.151 -1.8022 -1.7705 -0.3021
13334TIP3    H261418   1.806   6.527   4.109  1.0297 -1.1335  1.4140
13335TIP3   OH261419   6.385   6.792   3.892 -0.1662 -0.2389  0.2825
13335TIP3    H161420   6.417   6.827   3.809 -0.9056  1.0970  0.5186
13335TIP3    H261421   6.291   6.809   3.890 -0.4048 -1.4527  0.8164
13336TIP3   OH261422   0.344   5.630  11.703  0.1600 -0.2486 -0.4268
13336TIP3    H161423   0.308   5.543  11.682  0.8094 -0.9506  1.1979
13336TIP3    H261424   0.433   5.627  11.669 -0.7877  1.0057 -3.2544
13337TIP3   OH261425   2.462   6.159   3.650  0.0184 -0.2793 -0.0478
13337TIP3    H161426   2.436   6.101   3.579  0.3058 -0.0614 -0.3337
13337TIP3    H261427   2.423   6.244   3.627  0.7997 -0.0011 -0.3784
13338TIP3   OH261428   0.526   2.422   2.329  0.4054 -0.1275 -0.1927
13338TIP3    H161429   0.454   2.466   2.284 -0.7852 -0.3157  1.4360
13338TIP3    H261430   0.604   2.469   2.300 -0.5368  1.1976 -0.7179
13339TIP3   OH261431   3.233   5.462  16.953 -0.2903  0.4486  0.4742
13339TIP3    H161432   3.160   5.479  17.013 -1.6813 -0.9265 -0.7727
13339TIP3    H261433   3.192   5.447  16.868  1.5231  0.5230 -0.4616
13340TIP3   OH261434   0.945   3.035   5.977 -0.2778  0.1370 -0.3093
13340TIP3    H161435   0.928   2.967   5.911  0.0754  0.0183 -0.2849
13340TIP3    H261436   0.984   2.987   6.050  0.8774  0.4828 -0.6647
13341TIP3   OH261437   1.541   1.396  14.811 -0.5662  0.1633  0.1004
13341TIP3    H161438   1.587   1.438  14.738  0.3074 -1.1338 -0.1313
13341TIP3    H261439   1.503   1.469  14.861  2.1017  1.3646  0.5544
13342TIP3   OH261440   4.597   3.404  16.785  0.1585 -0.1747 -0.4663
13342TIP3    H161441   4.506   3.433  16.785  0.0331 -0.5433  0.0497
13342TIP3    H261442   4.606   3.353  16.866  0.2821 -1.8475 -1.4943
13343TIP3   OH261443   5.067   0.059  15.608  0.6982  0.2874 -0.8781
13343TIP3    H161444   5.106   0.042  15.694 -1.7743 -1.2213  0.0496
13343TIP3    H261445   5.057  -0.028  15.568 -0.9743  0.6707 -1.3667
13344TIP3   OH261446   1.681   5.079   0.707 -0.1600 -0.0329 -0.4878
13344TIP3    H161447   1.671   5.069   0.801 -1.2873  0.0935 -0.5817
13344TIP3    H261448   1.772   5.056   0.690  0.3143  0.8238  0.7426
13345TIP3   OH261449   4.593   1.698  14.322  0.1353 -0.2696 -0.0711
13345TIP3    H161450   4.602   1.620  14.268 -1.6204  1.1160 -2.5840
13345TIP3    H261451   4.566   1.664  14.408 -1.1961 -2.4353 -1.2394
13346TIP3   OH261452   2.435   5.446   3.024  0.3447 -0.6526  0.3286
13346TIP3    H161453   2.444   5.358   2.989  1.5475 -0.9180  1.2329
13346TIP3    H261454   2.340   5.461   3.028  0.0744 -2.3383  1.1772
13347TIP3   OH261455   3.682   6.107  12.698  0.3126 -0.3549  0.0079
13347TIP3    H161456   3.605   6.104  12.756  1.5885 -1.0538  1.7355
13347TIP3    H261457   3.667   6.185  12.644 -0.8046  0.5368  1.4988
13348TIP3   OH261458   1.266   4.266  13.588  0.7723 -0.0207 -0.1914
13348TIP3    H161459   1.330   4.329  13.621 -0.0476  0.5636  0.3375
13348TIP3    H261460   1.293   4.182  13.624  1.6180  0.0994 -0.5320
13349TIP3   OH261461   0.255   2.930  13.925  0.4703 -0.2411  0.4799
13349TIP3    H161462   0.245   2.843  13.884 -2.6273  0.2350 -0.0137
13349TIP3    H261463   0.286   2.986  13.854  0.4752 -0.5130  0.2632
13350TIP3   OH261464   5.253   4.012   5.724  0.4251 -0.1200 -0.2115
13350TIP3    H161465   5.280   4.085   5.780  0.5763 -0.3707  0.0448
13350TIP3    H261466   5.286   4.035   5.637  0.6631  0.0108 -0.0866
13351TIP3   OH261467   1.725   1.957  13.553 -0.7879 -0.4812  0.2359
13351TIP3    H161468   1.657   1.909  13.601  0.6910 -2.6738  0.2678
13351TIP3    H261469   1.793   1.974  13.618 -0.6435  0.3843 -0.1283
13352TIP3   OH261470   5.581   5.482   4.229 -0.2680 -0.5039 -0.2191
13352TIP3    H161471   5.625   5.397   4.225 -0.2237 -0.4316 -1.4746
13352TIP3    H261472   5.501   5.470   4.177 -0.4628  0.1110 -0.0699
13353TIP3   OH261473   1.946   2.539   0.646  0.4762 -0.3234 -0.5349
13353TIP3    H161474   1.869   2.482   0.655  0.6116 -0.5041 -0.5278
13353TIP3    H261475   1.919   2.605   0.582  0.2053 -0.2008 -0.2952
13354TIP3   OH261476   2.304   0.824   2.347 -0.3199 -0.5690 -0.7712
13354TIP3    H161477   2.248   0.861   2.416  0.6394  0.1958 -0.3939
13354TIP3    H261478   2.360   0.761   2.393  1.9364  1.6041 -0.3803
13355TIP3   OH261479   4.217   0.189  11.806  0.1131 -0.6398  0.0257
13355TIP3    H161480   4.281   0.194  11.877 -0.3361 -1.7234  0.5264
13355TIP3    H261481   4.239   0.109  11.758 -2.0145 -2.1769  1.4041
13356TIP3   OH261482   2.726   1.753   5.636 -0.0639 -0.5202  0.7162
13356TIP3    H161483   2.787   1.747   5.710 -0.3958  0.4442  1.0804
13356TIP3    H261484   2.758   1.827   5.585 -0.7132 -0.2349  0.7143
13357TIP3   OH261485   6.735   4.050   3.498  0.3797  0.4299  0.5887
13357TIP3    H161486   6.678   4.116   3.458 -0.8775  0.2588  1.9806
13357TIP3    H261487   6.675   3.989   3.541  1.4357 -2.2859 -1.5139
13358TIP3   OH261488   1.646   4.824   2.525 -0.0961 -0.3024 -0.1073
13358TIP3    H161489   1.565   4.863   2.493  0.3855  0.0576 -0.9166
13358TIP3    H261490   1.679   4.772   2.451 -0.5485 -2.0072  0.8343
13359TIP3   OH261491   2.293   2.204   0.568  0.1254  0.1482 -0.2554
13359TIP3    H161492   2.331   2.218   0.655  0.4703 -1.3061 -0.1421
13359TIP3    H261493   2.224   2.140   0.582 -1.0861  1.3000 -0.7841
13360TIP3   OH261494   1.696   4.193  16.323 -0.0608 -0.0625  0.7830
13360TIP3    H161495   1.659   4.162  16.240 -1.9425 -0.0088  1.5640
13360TIP3    H261496   1.788   4.168  16.318 -0.8880 -3.5473  0.2849
13361TIP3   OH261497   0.316   2.335  15.502 -0.2219 -0.0275  0.5322
13361TIP3    H161498   0.362   2.394  15.443  0.3851 -0.2366  0.7885
13361TIP3    H261499   0.382   2.271  15.529 -0.2390  0.5693  2.1268
13362TIP3   OH261500   4.889   2.573   2.299  0.1847  0.4074 -0.3814
13362TIP3    H161501   4.830   2.522   2.354 -0.7638  0.3509 -1.4244
13362TIP3    H261502   4.849   2.571   2.212  0.8898  1.7048 -0.7662
13363TIP3   OH261503   5.069   1.965  10.775  0.1359 -0.2826 -0.3275
13363TIP3    H161504   5.031   2.052  10.782 -1.0749 -0.9196  1.7810
13363TIP3    H261505   5.152   1.971  10.823 -0.5743 -0.5898  0.9785
13364TIP3   OH261506   4.967   6.201  15.646  0.4016  0.2260  0.1958
13364TIP3    H161507   4.956   6.121  15.696 -0.8991  1.2058  1.5829
13364TIP3    H261508   4.963   6.173  15.554 -1.6071 -1.1214  0.6345
13365TIP3   OH261509   6.546   1.969   1.804  0.0337  0.1401  0.8616
13365TIP3    H161510   6.617   1.904   1.795 -2.3536 -2.7154  0.9682
13365TIP3    H261511   6.548   2.018   1.722  1.2975 -0.7866  0.2952
13366TIP3   OH261512   6.620   3.183   0.707  0.0542  0.4987  0.2178
13366TIP3    H161513   6.685   3.252   0.692  0.9558  0.0548  1.9363
13366TIP3    H261514   6.617   3.136   0.623  0.4788  1.7185 -0.5230
13367TIP3   OH261515   3.190   5.121  12.866  0.3430  0.6058 -0.5672
13367TIP3    H161516   3.162   5.115  12.957  1.8409  1.3781 -0.0193
13367TIP3    H261517   3.199   5.030  12.837  0.3283  0.3537  0.2122
13368TIP3   OH261518   2.091   6.065   3.585  0.2740  0.0566 -0.1355
13368TIP3    H161519   2.024   6.049   3.519 -0.3093 -2.5590  0.9557
13368TIP3    H261520   2.174   6.044   3.541  0.0421 -0.1019 -0.4937
13369TIP3   OH261521   1.408   0.265  14.695  0.1768  0.3215  0.1509
13369TIP3    H161522   1.502   0.254  14.680 -0.0152 -0.7353 -0.3853
13369TIP3    H261523   1.372   0.287  14.609 -0.5460 -2.9678 -0.5101
13370TIP3   OH261524   1.541   2.925  11.605 -0.1675 -0.4777  0.9817
13370TIP3    H161525   1.541   2.833  11.630 -0.6727 -0.5312  0.7991
13370TIP3    H261526   1.509   2.971  11.682  2.3178 -0.1886  1.9305
13371TIP3   OH261527   3.733   3.666   0.709  0.0275 -0.3283 -0.5149
13371TIP3    H161528   3.807   3.644   0.652  0.1745  1.1849 -0.9490
13371TIP3    H261529   3.661   3.611   0.677  0.8137 -1.4757 -0.3896
13372TIP3   OH261530   2.689   6.033  14.250  0.1983  0.1697  0.0016
13372TIP3    H161531   2.712   6.042  14.343  1.5244  0.1182 -0.3097
13372TIP3    H261532   2.690   5.939  14.234  1.2365  0.2234 -0.3493
13373TIP3   OH261533   2.371   0.667  10.569 -0.0743  0.1368  0.3133
13373TIP3    H161534   2.351   0.603  10.637  1.0576 -0.9555 -0.3484
13373TIP3    H261535   2.300   0.731  10.575 -2.0810 -1.9574 -0.0123
13374TIP3   OH261536   6.638   4.164   0.195 -0.1450  0.5363 -0.5547
13374TIP3    H161537   6.583   4.204   0.262 -0.9830 -1.5380  0.0791
13374TIP3    H261538   6.690   4.099   0.243 -0.5772 -0.8199 -1.8445
13375TIP3   OH261539   4.207   5.452   1.493 -0.2707 -0.3260 -0.2805
13375TIP3    H161540   4.231   5.500   1.414  1.0126 -0.3389  0.0782
13375TIP3    H261541   4.113   5.467   1.503 -0.1412  1.0602 -0.8825
13376TIP3   OH261542   0.165   1.638   5.064  0.1953  0.6859  0.7009
13376TIP3    H161543   0.135   1.668   4.978 -0.6998 -2.8282 -0.3722
13376TIP3    H261544   0.088   1.646   5.120 -0.2439 -0.2393  0.2400
13377TIP3   OH261545   1.728   2.175   0.352 -0.3420  0.1698 -0.1077
13377TIP3    H161546   1.660   2.199   0.415 -0.2059 -1.4086  0.6902
13377TIP3    H261547   1.810   2.184   0.401 -0.3443 -2.7976  0.6108
13378TIP3   OH261548   4.715   1.652  14.872 -0.4148 -0.5629  0.0510
13378TIP3    H161549   4.636   1.704  14.853 -0.3616  0.0056  1.2947
13378TIP3    H261550   4.716   1.645  14.967  1.9831  0.9700  0.2058
13379TIP3   OH261551   2.404   6.439   2.830  0.2613  0.2305 -0.0635
13379TIP3    H161552   2.333   6.498   2.806 -0.4703 -0.6906 -0.2044
13379TIP3    H261553   2.389   6.360   2.777  0.3926 -0.6400  1.1601
13380TIP3   OH261554   5.589   0.480   4.847 -0.0900  0.5867  1.3559
13380TIP3    H161555   5.679   0.513   4.846  0.4930 -0.7653  3.0560
13380TIP3    H261556   5.556   0.503   4.934 -0.6671 -0.6527  1.4951
13381TIP3   OH261557   6.027   1.389   2.809  0.4198 -0.0256  0.2018
13381TIP3    H161558   5.973   1.467   2.823  1.1016  0.5970 -0.5259
13381TIP3    H261559   6.104   1.422   2.762 -0.3806 -1.5197 -2.3098
13382TIP3   OH261560   1.526   5.063  17.122 -0.3607 -0.2750  0.1230
13382TIP3    H161561   1.513   4.969  17.113 -3.4238  0.2312 -2.6149
13382TIP3    H261562   1.560   5.090  17.037  3.6451  0.8757  1.8346
13383TIP3   OH261563   4.148   6.519   4.878  0.2329  0.4743 -0.0130
13383TIP3    H161564   4.192   6.538   4.961 -1.3863  0.6417  0.8445
13383TIP3    H261565   4.220   6.510   4.815  1.6398 -1.4793  1.7268
13384TIP3   OH261566   6.230   2.778   0.556  0.3577 -0.7339  0.2415
13384TIP3    H161567   6.171   2.777   0.481 -2.6776  1.0070  2.3879
13384TIP3    H261568   6.309   2.821   0.524 -1.4386  1.3886 -1.6639
13385TIP3   OH261569   5.094   3.375  14.619 -0.1436 -0.1158  0.3489
13385TIP3    H161570   5.146   3.434  14.673 -0.0025 -0.8939  1.0843
13385TIP3    H261571   5.140   3.372  14.535  0.1262  0.4151  0.4740
13386TIP3   OH261572   1.043   2.689   5.471  0.1243 -0.4818 -0.0232
13386TIP3    H161573   1.124   2.649   5.501 -0.4643  0.7737  3.8863
13386TIP3    H261574   0.975   2.626   5.494 -0.2680 -0.0174  0.1161
13387TIP3   OH261575   5.006   3.546  12.619 -0.7839  0.1492  0.3442
13387TIP3    H161576   5.035   3.455  12.613 -0.9763  0.0879  0.3358
13387TIP3    H261577   5.087   3.597  12.617 -0.5260 -0.1028  2.2705
13388TIP3   OH261578   3.568   1.907   4.609  0.3335  0.6372  0.8067
13388TIP3    H161579   3.492   1.945   4.653  0.5867  1.4973  0.5231
13388TIP3    H261580   3.574   1.956   4.527  1.0197  0.3711  0.6997
13389TIP3   OH261581   4.149   4.073  15.379 -0.3477 -0.3262  0.2916
13389TIP3    H161582   4.164   3.980  15.364  1.4138 -0.0546  0.1579
13389TIP3    H261583   4.063   4.090  15.339  0.6521 -1.2615 -2.4818
13390TIP3   OH261584   0.760   0.289   4.594  0.2996  0.1352 -0.4859
13390TIP3    H161585   0.767   0.269   4.687 -4.9157 -1.9285 -0.2263
13390TIP3    H261586   0.775   0.384   4.589 -0.9469  0.6537  2.7901
13391TIP3   OH261587   5.309   3.291  12.906 -0.2218  0.1184 -0.0336
13391TIP3    H161588   5.257   3.229  12.959  0.1680  0.6194  0.9586
13391TIP3    H261589   5.283   3.273  12.816 -2.8450  0.9844  0.4721
13392TIP3   OH261590   2.336   0.560   3.891 -0.6652 -0.4197  0.2818
13392TIP3    H161591   2.280   0.544   3.967 -1.3643 -0.4003 -0.2107
13392TIP3    H261592   2.337   0.655   3.882 -0.5461 -0.4200  0.2909
13393TIP3   OH261593   3.879   1.399   0.662  0.5253 -0.1215 -0.5926
13393TIP3    H161594   3.838   1.411   0.577  0.6379 -0.6025 -0.7182
13393TIP3    H261595   3.956   1.345   0.644  0.4872 -0.3221 -0.1717
13394TIP3   OH261596   5.535   0.804   4.962  0.8617  0.4196  0.1757
13394TIP3    H161597   5.490   0.746   5.024 -1.3931  3.0874  1.2222
13394TIP3    H261598   5.494   0.785   4.878  0.6872 -0.0104  0.3516
13395TIP3   OH261599   2.312   6.337  13.029  0.7600 -0.7381  0.2339
13395TIP3    H161600   2.248   6.357  13.097  0.0253 -1.4581 -0.2157
13395TIP3    H261601   2.286   6.391  12.955  1.3603 -0.1967  0.4160
13396TIP3   OH261602   2.855   5.315   3.027  0.7285  0.1033  0.4482
13396TIP3    H161603   2.929   5.266   2.992 -1.5673 -1.3718 -2.9407
13396TIP3    H261604   2.817   5.256   3.093  1.3155 -0.0927  0.6127
13397TIP3   OH261605   2.103   2.711  10.871 -0.2024  0.3425 -0.1529
13397TIP3    H161606   2.011   2.695  10.892  0.0003  0.1739  0.6423
13397TIP3    H261607   2.102   2.790  10.817 -0.7060  1.1621  1.0185
13398TIP3   OH261608   3.017   6.703   0.850 -0.3975  0.3359  0.3740
13398TIP3    H161609   3.045   6.612   0.861 -2.4406 -0.2888  0.8962
13398TIP3    H261610   2.947   6.714   0.914 -0.3212  2.2391  0.1809
13399TIP3   OH261611   0.952   1.779   2.941 -0.6130 -0.4300 -0.0667
13399TIP3    H161612   0.960   1.836   3.017  3.2975 -1.6503  0.6832
13399TIP3    H261613   0.956   1.838   2.866  0.0514  0.5298  0.6972
13400TIP3   OH261614   2.422   1.900  14.925 -0.3170 -0.1915 -0.3062
13400TIP3    H161615   2.332   1.922  14.947 -0.1005  0.1465  0.2758
13400TIP3    H261616   2.451   1.970  14.867 -0.6274 -0.6447 -1.0222
13401TIP3   OH261617   6.589   1.904  17.051  0.2936  0.7446  0.0460
13401TIP3    H161618   6.617   1.824  17.097  1.9793  1.1959 -0.1157
13401TIP3    H261619   6.568   1.874  16.963  0.5897  0.4136  0.0837
13402TIP3   OH261620   6.410   3.260  16.472 -0.7945  0.2734 -0.6677
13402TIP3    H161621   6.365   3.319  16.412  0.0240  1.5277 -0.0781
13402TIP3    H261622   6.464   3.317  16.527 -0.7654 -0.9213  0.6159
13403TIP3   OH261623   1.385   2.132   5.030 -0.0391 -0.0709  0.3161
13403TIP3    H161624   1.290   2.131   5.046  0.0135  1.2577  0.8103
13403TIP3    H261625   1.410   2.039   5.035 -1.6247 -0.7302 -1.9864
13404TIP3   OH261626   4.340   5.655   4.000  0.2739 -0.1175 -0.2770
13404TIP3    H161627   4.302   5.594   3.936  1.2584  0.9882 -1.9820
13404TIP3    H261628   4.299   5.739   3.979 -0.1942  0.0790  1.2944
13405TIP3   OH261629   5.204   0.464  12.443 -0.5391  0.4602  0.4656
13405TIP3    H161630   5.270   0.431  12.382  1.2832  1.2719  1.8906
13405TIP3    H261631   5.120   0.445  12.401  0.5319 -1.8123 -0.8108
13406TIP3   OH261632   4.158   1.056  12.267 -0.1466 -0.1697  0.4288
13406TIP3    H161633   4.228   1.062  12.332  0.3811  1.5957 -0.2580
13406TIP3    H261634   4.090   1.115  12.299  0.2432  0.9621 -0.7180
13407TIP3   OH261635   3.917   4.764   0.924 -0.7614 -0.2379 -0.1896
13407TIP3    H161636   3.825   4.741   0.914 -0.4131 -1.9942  0.3119
13407TIP3    H261637   3.925   4.795   1.014 -0.8765 -0.0832 -0.2344
13408TIP3   OH261638   3.133   0.695   0.099 -0.6737 -0.1167  0.5225
13408TIP3    H161639   3.209   0.690   0.157 -1.0986 -0.5591  1.0533
13408TIP3    H261640   3.127   0.607   0.061 -1.1201 -0.1847  0.7472
13409TIP3   OH261641   0.898   3.997   0.656 -0.1225  0.2692  0.4749
13409TIP3    H161642   0.933   4.027   0.572  0.8743  2.0996  1.4684
13409TIP3    H261643   0.834   4.065   0.680  3.4442  2.9312  3.6377
13410TIP3   OH261644   4.308   5.162  10.894 -0.0090 -0.4100  0.0174
13410TIP3    H161645   4.251   5.130  10.824  0.5593 -1.8247  0.1770
13410TIP3    H261646   4.284   5.111  10.971  0.5818 -0.1025  0.4178
13411TIP3   OH261647   3.733   4.165   3.415 -0.2300 -0.1034 -0.1336
13411TIP3    H161648   3.804   4.165   3.479 -0.8264 -2.7579  0.6570
13411TIP3    H261649   3.776   4.170   3.330  0.8407 -0.7019  0.3611
13412TIP3   OH261650   2.110   5.249  16.606  0.4388  0.4492 -0.0419
13412TIP3    H161651   2.179   5.262  16.540  0.0728 -3.9294 -1.6530
13412TIP3    H261652   2.029   5.262  16.558  0.1897 -1.2672 -0.1636
13413TIP3   OH261653   2.809   1.697  14.413  0.3542  0.0665  0.1151
13413TIP3    H161654   2.713   1.692  14.422  0.3978  0.2395  0.7498
13413TIP3    H261655   2.827   1.789  14.394  0.4448  0.1937  0.7840
13414TIP3   OH261656   1.704   1.963   6.129  0.1851 -0.3384  0.2895
13414TIP3    H161657   1.773   1.951   6.195  0.0774 -1.8321  0.1777
13414TIP3    H261658   1.698   2.057   6.116  0.9041 -0.0816  1.6853
13415TIP3   OH261659   6.025   6.569   3.442  0.2450 -0.0620 -0.5252
13415TIP3    H161660   5.969   6.646   3.431 -0.4984 -0.8507 -2.7833
13415TIP3    H261661   6.063   6.580   3.529 -2.6523  1.0320  0.7457
13416TIP3   OH261662   6.258   0.641  15.411  0.0105 -0.0296 -0.5103
13416TIP3    H161663   6.318   0.715  15.401 -1.7549  1.3529 -1.3734
13416TIP3    H261664   6.260   0.597  15.326  0.3733 -0.4631 -0.2839
13417TIP3   OH261665   3.526   3.492   5.982 -0.1978  0.2205 -0.0567
13417TIP3    H161666   3.440   3.465   6.014  0.5551  0.1498  2.0324
13417TIP3    H261667   3.541   3.437   5.904 -3.0078  1.9080 -1.9430
13418TIP3   OH261668   0.463   4.707   4.218  0.2343  0.0670  0.5050
13418TIP3    H161669   0.491   4.797   4.210 -1.3152  0.6287  0.9206
13418TIP3    H261670   0.523   4.668   4.283  0.3551  1.0535  0.9980
13419TIP3   OH261671   0.913   3.530  14.854  0.1085 -0.5079 -0.7279
13419TIP3    H161672   0.968   3.552  14.930 -2.0550 -1.0758  1.0985
13419TIP3    H261673   0.956   3.455  14.814  2.9218  1.5768 -1.9466
13420TIP3   OH261674   5.858   0.997  12.053 -0.0065 -0.7848  0.2083
13420TIP3    H161675   5.815   0.937  11.993 -0.2109 -0.6035  0.1712
13420TIP3    H261676   5.932   1.032  12.003  0.0390 -0.9106  0.1882
13421TIP3   OH261677   1.980   4.463  15.810  0.1818 -0.0280  0.8017
13421TIP3    H161678   1.987   4.439  15.902  1.4496  0.0709  0.7577
13421TIP3    H261679   1.888   4.482  15.797  0.1805  1.2740  2.3837
13422TIP3   OH261680   2.938   3.892   4.937 -0.0109 -0.1857 -0.6572
13422TIP3    H161681   3.024   3.871   4.972 -0.8087  1.1735  2.5095
13422TIP3    H261682   2.899   3.807   4.917  0.1533 -1.3308  3.1027
13423TIP3   OH261683   3.630   0.159  11.553 -0.4083  0.4882  0.0531
13423TIP3    H161684   3.639   0.250  11.583  0.8205 -0.0765  1.5171
13423TIP3    H261685   3.683   0.108  11.614  0.7704 -0.9673 -2.0583
13424TIP3   OH261686   5.328   2.608  13.684 -0.8192  0.6120  0.2839
13424TIP3    H161687   5.378   2.644  13.757  1.5416 -0.3631 -0.7645
13424TIP3    H261688   5.362   2.519  13.672 -1.2650  0.6660 -1.8676
13425TIP3   OH261689   0.447   5.285  13.377 -0.2848  0.0617  0.0671
13425TIP3    H161690   0.377   5.335  13.418  0.3947 -0.5476  2.1122
13425TIP3    H261691   0.403   5.232  13.310 -1.9553 -0.9220  1.8358
13426TIP3   OH261692   0.010   6.725   4.285 -0.0036 -0.3858  0.1811
13426TIP3    H161693   0.023   6.642   4.331 -1.0294 -0.1808  0.8712
13426TIP3    H261694  -0.037   6.780   4.347  1.2509  0.9723 -0.0215
13427TIP3   OH261695   2.131   3.946   5.653 -0.1570  0.5038 -0.0068
13427TIP3    H161696   2.160   3.880   5.589  1.4955  1.5032 -0.3643
13427TIP3    H261697   2.186   3.929   5.730  0.0164  1.2265  0.0303
13428TIP3   OH261698   2.535   5.047   5.357  0.2460  0.0858  0.6964
13428TIP3    H161699   2.490   5.128   5.333  1.0979  0.3302 -0.1567
13428TIP3    H261700   2.476   4.978   5.329  0.0535  0.4052  0.2951
13429TIP3   OH261701   1.630   3.333   0.950 -0.4872  0.1728  0.3957
13429TIP3    H161702   1.617   3.325   1.045 -1.0690  0.0452  0.3083
13429TIP3    H261703   1.591   3.417   0.927 -0.1956  0.2824  0.2900
13430TIP3   OH261704   4.028   6.134   1.051 -0.1494  0.1994 -0.4392
13430TIP3    H161705   4.098   6.176   1.102 -1.1354 -0.8804  1.9762
13430TIP3    H261706   4.048   6.040   1.056 -1.3848 -0.0735 -0.2472
13431TIP3   OH261707   2.186   0.090  10.937 -0.4803  0.1623  0.0740
13431TIP3    H161708   2.165   0.007  10.980  0.1799 -1.0951 -1.9006
13431TIP3    H261709   2.109   0.111  10.886 -0.8287  1.0421  0.9487
13432TIP3   OH261710   5.510   2.015   4.741 -0.0973  0.0664  0.5092
13432TIP3    H161711   5.470   2.092   4.702 -0.0230 -0.0028  0.2948
13432TIP3    H261712   5.441   1.949   4.742 -0.4596  0.4375  1.6122
13433TIP3   OH261713   4.595   3.936   3.443  0.3318  0.0320 -0.5697
13433TIP3    H161714   4.574   4.025   3.415 -1.0508  0.0211  0.3329
13433TIP3    H261715   4.524   3.912   3.502  0.0965 -2.0574 -1.6047
13434TIP3   OH261716   4.067   4.282   5.641  0.2125  0.0355 -0.0254
13434TIP3    H161717   4.005   4.287   5.569  0.6424 -1.2677 -0.5125
13434TIP3    H261718   4.145   4.328   5.610  0.2497 -0.1750 -0.2468
13435TIP3   OH261719   0.957   4.278  13.772 -0.0651 -0.0057 -0.1065
13435TIP3    H161720   0.913   4.283  13.857  0.0686  1.1107 -0.0966
13435TIP3    H261721   0.953   4.185  13.749  1.1248 -0.5738  1.7625
13436TIP3   OH261722   2.354   0.735   2.646 -0.2696  0.6150 -0.1239
13436TIP3    H161723   2.362   0.829   2.665 -1.8595  0.6475  0.6027
13436TIP3    H261724   2.422   0.694   2.699 -0.1445  1.2921  0.2621
13437TIP3   OH261725   0.143   4.243  16.547  0.4366 -0.1355 -0.1901
13437TIP3    H161726   0.202   4.318  16.548 -0.6790  0.8806  2.8941
13437TIP3    H261727   0.182   4.181  16.608 -0.7953 -0.1128  0.6728
13438TIP3   OH261728   2.570   3.011   1.940 -0.1418  0.5373  0.6823
13438TIP3    H161729   2.514   3.062   1.882 -0.3766  0.8168  1.1515
13438TIP3    H261730   2.536   2.921   1.933 -0.9047  0.7721  1.2629
13439TIP3   OH261731   3.337   1.092  12.704  0.4802  0.5716  0.4995
13439TIP3    H161732   3.322   1.099  12.610  1.9460  1.0906  0.2804
13439TIP3    H261733   3.336   0.998  12.721 -0.2015  0.4896  0.0408
13440TIP3   OH261734   4.278   6.206  10.970  0.2568 -0.0562  0.2338
13440TIP3    H161735   4.355   6.241  10.926 -0.0136  2.2523  1.4335
13440TIP3    H261736   4.204   6.242  10.921 -0.0868 -1.1048 -0.0504
13441TIP3   OH261737   3.080   5.690   1.137 -0.1680  0.3675  0.1191
13441TIP3    H161738   3.157   5.732   1.100 -0.4840  0.0406 -0.9594
13441TIP3    H261739   3.106   5.666   1.226  0.9977  0.2063 -0.2418
13442TIP3   OH261740   0.935   0.290   0.172 -0.3850 -0.2784  0.5949
13442TIP3    H161741   0.960   0.238   0.096 -2.7434  2.2157 -2.1342
13442TIP3    H261742   0.999   0.361   0.176  0.6388 -1.2379  1.9811
13443TIP3   OH261743   0.307   2.750  13.515  0.0431  0.7745 -0.1963
13443TIP3    H161744   0.353   2.671  13.488  1.4517  0.8076  1.8905
13443TIP3    H261745   0.291   2.798  13.434  2.4328  0.0713 -1.1434
13444TIP3   OH261746   0.018   3.935  16.060  0.1823 -0.4898  0.9261
13444TIP3    H161747  -0.047   3.865  16.065 -2.2704  1.5227 -0.0563
13444TIP3    H261748   0.045   3.950  16.150 -0.8444 -1.2850  1.3812
13445TIP3   OH261749   5.973   0.416  10.734 -0.5448  0.3471  1.4120
13445TIP3    H161750   5.942   0.339  10.685 -2.0108  1.3972  0.6310
13445TIP3    H261751   6.033   0.379  10.799 -0.3260 -1.3431  0.3333
13446TIP3   OH261752   1.371   2.792  14.872  0.2065  0.3999  0.0473
13446TIP3    H161753   1.369   2.700  14.898  0.6111  0.3108 -0.2388
13446TIP3    H261754   1.282   2.811  14.843  0.1290  0.0958  0.0868
13447TIP3   OH261755   2.927   4.032  12.339  0.4138  0.7192  0.5500
13447TIP3    H161756   2.915   4.108  12.397  1.5333 -0.0685  1.8572
13447TIP3    H261757   2.843   4.024  12.294 -0.9883  0.5996  3.0157
13448TIP3   OH261758   5.006   4.804  16.524  0.0507 -0.5282  0.3275
13448TIP3    H161759   4.933   4.789  16.583  0.0517 -0.3409  0.3759
13448TIP3    H261760   5.070   4.736  16.548  0.1584 -0.2927  0.7160
13449TIP3   OH261761   1.482   0.567   5.807 -0.7732  0.4366  0.2698
13449TIP3    H161762   1.419   0.506   5.768 -1.4899 -0.0483  2.1000
13449TIP3    H261763   1.466   0.561   5.901  2.2316  0.0881  0.8399
13450TIP3   OH261764   3.818   0.532  15.551  0.0369 -0.2456 -0.3593
13450TIP3    H161765   3.911   0.523  15.528 -0.3427 -0.4652 -1.9486
13450TIP3    H261766   3.777   0.454  15.514 -1.0380  0.7170 -1.2699
13451TIP3   OH261767   3.785   5.663  15.586  0.1948  0.6010  0.6589
13451TIP3    H161768   3.851   5.652  15.518 -1.2772  0.4403 -0.8203
13451TIP3    H261769   3.770   5.575  15.620 -0.2261  0.4126  0.0118
13452TIP3   OH261770   2.188   5.988   5.006 -0.2418  0.1354  0.4820
13452TIP3    H161771   2.269   5.975   4.956 -0.8618  1.2813 -0.9096
13452TIP3    H261772   2.200   6.072   5.049  0.1805 -0.7316  2.1181
13453TIP3   OH261773   2.008   2.259   2.208 -0.2877  0.3023  0.0882
13453TIP3    H161774   1.924   2.234   2.169 -1.0294  0.8379  1.2946
13453TIP3    H261775   2.014   2.207   2.288 -1.0058  2.5538  1.6966
13454TIP3   OH261776   5.932   1.516  15.287  0.0533 -0.1597  0.3008
13454TIP3    H161777   6.019   1.503  15.249 -0.3176 -0.4926 -0.4677
13454TIP3    H261778   5.884   1.566  15.220 -0.3996 -0.1260  0.6444
13455TIP3   OH261779   6.692   0.980  11.530 -0.7450  0.0468  0.1256
13455TIP3    H161780   6.658   1.032  11.603  1.4136 -0.8305  1.8701
13455TIP3    H261781   6.738   1.043  11.475 -1.5194  0.5634  0.0539
13456TIP3   OH261782   2.104   2.130   3.707 -0.1864 -0.0322 -0.5259
13456TIP3    H161783   2.148   2.140   3.623 -2.4429 -0.4933 -1.8607
13456TIP3    H261784   2.175   2.125   3.772  1.5740  1.5769 -2.2301
13457TIP3   OH261785   5.150   1.677  13.265  0.2708  0.2811 -0.7984
13457TIP3    H161786   5.202   1.737  13.318 -0.5620  0.1397  0.2179
13457TIP3    H261787   5.194   1.592  13.277 -1.2854 -0.2860  1.7807
13458TIP3   OH261788   4.265   0.389  12.292  0.5444 -0.1573 -0.7989
13458TIP3    H161789   4.200   0.433  12.347  0.9755 -0.0981 -0.3284
13458TIP3    H261790   4.338   0.372  12.350  0.4448 -1.3837 -1.0129
13459TIP3   OH261791   6.432   5.201   1.448 -0.2490  0.3021 -0.1503
13459TIP3    H161792   6.414   5.164   1.362  2.3973  1.4702 -1.3354
13459TIP3    H261793   6.380   5.281   1.451  0.3342  0.7339 -1.0889
13460TIP3   OH261794   3.147   3.672  11.600  0.1823 -0.6207  0.1319
13460TIP3    H161795   3.154   3.577  11.588  1.5666 -0.7706  1.7482
13460TIP3    H261796   3.214   3.693  11.665  1.1094  1.7449 -1.4705
13461TIP3   OH261797   1.093   3.232  12.413 -0.1959  0.5496  0.0032
13461TIP3    H161798   1.101   3.328  12.417 -1.4221  0.6833 -0.3424
13461TIP3    H261799   1.073   3.206  12.503 -0.2344  0.6627  0.0275
13462TIP3   OH261800   0.800   1.697  11.549  0.7671  0.0279 -0.5036
13462TIP3    H161801   0.804   1.769  11.612  0.3658 -0.3358 -0.0549
13462TIP3    H261802   0.772   1.621  11.600  2.1078 -0.6767 -0.7774
13463TIP3   OH261803   6.530   0.732   1.491 -0.0671 -0.2996 -0.0410
13463TIP3    H161804   6.447   0.756   1.532 -1.0086  0.4505 -2.2463
13463TIP3    H261805   6.505   0.675   1.418  1.3055  0.1842 -0.9312
13464TIP3   OH261806   1.990   1.909   1.665  0.0004 -0.3635 -0.1554
13464TIP3    H161807   2.084   1.927   1.664 -0.0858  0.2585  0.8940
13464TIP3    H261808   1.972   1.870   1.580  0.7170  2.0619 -1.5358
13465TIP3   OH261809   0.544   5.034   1.173  0.0826  0.1750  0.2015
13465TIP3    H161810   0.452   5.010   1.173  0.0916 -0.4755  4.2473
13465TIP3    H261811   0.582   4.984   1.101 -2.0865 -2.3909  0.6970
13466TIP3   OH261812   2.727   3.587  11.126  0.1236  0.7170  0.0655
13466TIP3    H161813   2.700   3.624  11.042  1.1406  0.2374 -0.4888
13466TIP3    H261814   2.680   3.504  11.132 -0.4981  1.0799  0.3116
13467TIP3   OH261815   2.066   1.461   5.723  0.7485  0.4519  0.5868
13467TIP3    H161816   2.038   1.493   5.809 -1.8069 -1.3532  0.5638
13467TIP3    H261817   2.016   1.513   5.660  1.6285  0.8770  0.2171
13468TIP3   OH261818   0.990   6.225   6.044  0.1198  0.8929 -0.1316
13468TIP3    H161819   0.989   6.321   6.048 -2.2154  0.9072  0.5204
13468TIP3    H261820   1.036   6.198   6.124  0.5898  1.4522 -0.2029
13469TIP3   OH261821   2.527   1.756   1.022  0.5309  0.5544 -0.4680
13469TIP3    H161822   2.623   1.755   1.026  0.6343  2.0002 -1.6359
13469TIP3    H261823   2.500   1.760   1.114  1.3501 -4.4889  0.2560
13470TIP3   OH261824   3.454   3.172   2.407 -0.2659 -0.0900  0.2584
13470TIP3    H161825   3.427   3.132   2.324 -1.4933  1.1927 -0.0052
13470TIP3    H261826   3.536   3.215   2.387  0.1894 -0.9961  0.1079
13471TIP3   OH261827   0.711   5.743  14.236  0.3488  0.7070  0.0115
13471TIP3    H161828   0.677   5.707  14.318 -0.2321  0.9644 -0.1098
13471TIP3    H261829   0.635   5.747  14.179  1.2475 -2.1190 -1.5179
13472TIP3   OH261830   0.855   3.558   3.121  0.1167 -0.3442  0.0490
13472TIP3    H161831   0.812   3.540   3.205  0.1359 -0.6114  0.0040
13472TIP3    H261832   0.939   3.512   3.128  0.4779  0.3328  0.2135
13473TIP3   OH261833   3.958   3.953  15.964 -0.3281  0.2231 -0.2250
13473TIP3    H161834   4.006   4.028  15.928 -1.0893  0.5868 -0.4896
13473TIP3    H261835   4.002   3.935  16.048  0.4258  0.3908 -0.5746
13474TIP3   OH261836   3.525   3.769  15.348  0.2948 -0.6599  0.1933
13474TIP3    H161837   3.458   3.801  15.287  0.6786  0.3525  0.2852
13474TIP3    H261838   3.546   3.845  15.402  0.7029 -1.2772  0.9173
13475TIP3   OH261839   0.246   5.780  17.136  0.3076  0.1785 -0.2271
13475TIP3    H161840   0.260   5.707  17.197  2.3348 -0.7568 -1.7089
13475TIP3    H261841   0.276   5.857  17.185  1.1338 -0.4353  0.2627
13476TIP3   OH261842   4.018   3.783   5.910  0.4937  0.6393 -0.3757
13476TIP3    H161843   4.071   3.850   5.952  1.6918  0.0174 -0.8573
13476TIP3    H261844   3.989   3.727   5.982  0.4804  0.9917 -0.1069
13477TIP3   OH261845   3.213   0.201  13.508 -0.0424 -0.0672  0.0983
13477TIP3    H161846   3.305   0.178  13.496  0.5086  0.8587  2.0959
13477TIP3    H261847   3.186   0.238  13.424  2.5277  3.0481  0.4316
13478TIP3   OH261848   5.000   6.566  11.388  0.3362  0.2839  0.4035
13478TIP3    H161849   4.923   6.566  11.446  0.8437 -0.6727  1.1103
13478TIP3    H261850   5.057   6.633  11.425  1.3953 -1.4344  2.1015
13479TIP3   OH261851   2.796   6.569  14.411 -0.1697  0.3562  0.4736
13479TIP3    H161852   2.762   6.573  14.322 -0.0898 -1.9007  0.2645
13479TIP3    H261853   2.748   6.636  14.459 -0.5970  1.2353 -1.1447
13480TIP3   OH261854   2.602   2.545   1.012  0.3499 -0.0990 -0.5453
13480TIP3    H161855   2.672   2.503   1.063 -1.2361 -0.3696  1.5710
13480TIP3    H261856   2.619   2.639   1.021  0.3865 -0.1592  0.0511
13481TIP3   OH261857   6.327   6.810  11.286  0.0816 -0.0626 -0.0127
13481TIP3    H161858   6.326   6.900  11.318 -3.1067 -0.2701  0.7634
13481TIP3    H261859   6.344   6.818  11.192  1.2302  1.1878  0.2705
13482TIP3   OH261860   5.291   4.737   3.382  0.2538 -0.1853 -0.8124
13482TIP3    H161861   5.367   4.763   3.331  0.3954 -1.1533 -1.1022
13482TIP3    H261862   5.322   4.734   3.473  0.3093  0.3429 -0.8103
13483TIP3   OH261863   3.416   6.752  11.146  0.1093  0.0106 -0.4170
13483TIP3    H161864   3.329   6.793  11.152  0.2415  0.3439 -0.7787
13483TIP3    H261865   3.452   6.784  11.064  0.0812 -1.1080 -0.8771
13484TIP3   OH261866   0.056   0.228   2.587 -0.1238 -0.4938 -0.1463
13484TIP3    H161867   0.023   0.235   2.676 -0.4081  1.3118 -0.3631
13484TIP3    H261868   0.150   0.211   2.598 -0.1382 -0.1969  0.4985
13485TIP3   OH261869   6.642   1.110   1.097 -0.4378  0.9099  0.3591
13485TIP3    H161870   6.677   1.057   1.169 -0.1182  3.0862  1.9016
13485TIP3    H261871   6.627   1.047   1.026  3.4972 -0.7072  0.6917
13486TIP3   OH261872   4.038   4.438   0.975  0.2839  0.0955  0.5325
13486TIP3    H161873   4.099   4.432   1.049  0.1246  0.7818  0.7329
13486TIP3    H261874   4.043   4.530   0.947 -1.3842  0.4308  1.1915
13487TIP3   OH261875   5.880   0.893  11.474  0.0663  0.4463  0.7673
13487TIP3    H161876   5.882   0.985  11.449 -1.3332 -0.1434 -1.9112
13487TIP3    H261877   5.960   0.856  11.436  0.3089  0.4231  1.2918
13488TIP3   OH261878   4.252   2.351  16.635  0.5177 -0.3577 -0.0214
13488TIP3    H161879   4.181   2.385  16.690  0.1364 -1.8576  0.4666
13488TIP3    H261880   4.210   2.333  16.550  1.0698  1.8002 -0.8273
13489TIP3   OH261881   1.381   5.018   0.224  0.2924 -0.1957  0.4744
13489TIP3    H161882   1.301   4.995   0.176 -1.0854 -0.7764  2.8471
13489TIP3    H261883   1.412   5.098   0.183 -1.7125  0.2383 -0.3229
13490TIP3   OH261884   5.758   4.659   4.167  0.1742 -0.2266 -0.2327
13490TIP3    H161885   5.708   4.738   4.147  1.5474  0.6462 -0.3362
13490TIP3    H261886   5.758   4.609   4.086 -1.5549 -0.8390  0.1172
13491TIP3   OH261887   2.733   2.633  12.763  0.2173 -0.0356 -0.2499
13491TIP3    H161888   2.663   2.697  12.753  1.1667  0.7813 -2.2037
13491TIP3    H261889   2.717   2.568  12.694  0.4671 -0.7583  0.3489
13492TIP3   OH261890   2.675   2.763  13.079  0.7163 -0.0763  0.0413
13492TIP3    H161891   2.676   2.724  12.992  1.7661 -0.7476  0.3358
13492TIP3    H261892   2.745   2.828  13.077  2.0878 -1.4542  0.9492
13493TIP3   OH261893   4.254   3.101   3.478 -0.2002 -0.4745  0.4258
13493TIP3    H161894   4.338   3.138   3.453  0.5131 -1.0006  1.9123
13493TIP3    H261895   4.238   3.032   3.414  0.2491 -0.0361 -0.1703
13494TIP3   OH261896   0.699   1.153   4.334  0.2657 -0.1510  0.2895
13494TIP3    H161897   0.734   1.064   4.331  1.7492  0.4175 -1.3582
13494TIP3    H261898   0.708   1.185   4.244  0.9346  2.0934  1.0860
13495TIP3   OH261899   3.557   0.344  11.069 -0.5814  0.3683  0.5428
13495TIP3    H161900   3.489   0.316  11.130 -0.2337 -1.0637  0.3114
13495TIP3    H261901   3.510   0.370  10.990 -0.8881 -0.4594  0.4423
13496TIP3   OH261902   2.114   2.488  15.462  0.2365  0.3279 -0.5154
13496TIP3    H161903   2.070   2.502  15.545 -1.2096  0.7721 -1.3336
13496TIP3    H261904   2.186   2.552  15.462  0.1057  0.4867  0.2779
13497TIP3   OH261905   2.591   6.123   0.864 -0.1830 -0.3948 -0.1330
13497TIP3    H161906   2.588   6.037   0.905 -1.5555 -0.6117 -0.6241
13497TIP3    H261907   2.576   6.106   0.771  1.8725  0.1807 -0.6330
13498TIP3   OH261908   2.617   1.011   3.843 -0.3346  0.8296 -0.1855
13498TIP3    H161909   2.530   1.040   3.868 -0.9227  1.4696 -2.6977
13498TIP3    H261910   2.668   1.015   3.924 -2.2706  1.7308  1.0630
13499TIP3   OH261911   4.215   6.165   1.789 -0.0343 -0.3678  0.1444
13499TIP3    H161912   4.139   6.107   1.786  0.0957 -0.5463  0.2780
13499TIP3    H261913   4.259   6.151   1.705 -0.4964  0.2144 -0.2102
13500TIP3   OH261914   4.885   3.226  16.967 -0.0109  0.6839 -0.0842
13500TIP3    H161915   4.935   3.153  16.930 -1.1271  0.6618 -1.6959
13500TIP3    H261916   4.922   3.304  16.925  0.8760  1.0284  1.2881
13501TIP3   OH261917   4.979   1.271   0.217 -0.1242 -0.0210 -0.2414
13501TIP3    H161918   4.924   1.204   0.257 -0.3593  1.0180  1.2675
13501TIP3    H261919   4.975   1.345   0.278  0.8133  1.0541 -1.4239
13502TIP3   OH261920   6.584   5.331  16.549  0.3733  0.0865  0.2914
13502TIP3    H161921   6.584   5.312  16.455 -0.7344  2.5115 -0.2643
13502TIP3    H261922   6.632   5.258  16.588  3.4426  0.4102 -2.4538
13503TIP3   OH261923   6.408   2.332   2.879 -0.1185 -0.4449  0.1589
13503TIP3    H161924   6.386   2.394   2.948 -1.4341  0.4925 -1.0468
13503TIP3    H261925   6.335   2.270   2.878 -0.4272 -0.0944 -0.7537
13504TIP3   OH261926   1.835   1.917  12.834  0.2931 -0.3014  0.3061
13504TIP3    H161927   1.805   1.904  12.744  0.4838  0.7579  0.0729
13504TIP3    H261928   1.925   1.884  12.834  0.2816 -0.3355  0.1190
13505TIP3   OH261929   2.849   4.794   5.249 -0.3623  0.0677  0.1006
13505TIP3    H161930   2.806   4.782   5.164 -0.1907  0.1547  0.0000
13505TIP3    H261931   2.943   4.792   5.229 -0.2981  2.1824 -0.0310
13506TIP3   OH261932   5.643   4.591  10.598 -0.6255 -0.3370 -0.7633
13506TIP3    H161933   5.718   4.572  10.542 -0.2612  1.2263 -0.8553
13506TIP3    H261934   5.571   4.541  10.560  0.4930 -2.4148 -0.2674
13507TIP3   OH261935   0.977   4.368   4.798 -0.4646 -0.0394 -0.6218
13507TIP3    H161936   0.886   4.387   4.821 -0.6299 -0.8165 -0.6117
13507TIP3    H261937   1.004   4.299   4.860 -0.2726 -0.7094 -1.4397
13508TIP3   OH261938   1.807   1.483   1.875 -0.3359 -0.2953  0.0356
13508TIP3    H161939   1.783   1.392   1.856  0.7804 -1.1136  2.1744
13508TIP3    H261940   1.757   1.505   1.954  0.3495  0.5021  0.2638
13509TIP3   OH261941   3.450   2.557   5.310  0.3341 -0.0745 -0.2250
13509TIP3    H161942   3.402   2.490   5.359 -0.8592 -0.3772 -1.7395
13509TIP3    H261943   3.458   2.630   5.370  0.0082 -0.8842  0.8320
13510TIP3   OH261944   5.930   5.837  12.134 -0.1186 -0.0943  0.2199
13510TIP3    H161945   5.859   5.898  12.157  1.4459  0.7299  3.3996
13510TIP3    H261946   5.899   5.752  12.163 -0.7451 -0.1721 -0.6422
13511TIP3   OH261947   4.945   6.078   3.102  0.4686 -0.1362  0.4156
13511TIP3    H161948   4.985   6.109   3.183 -1.2138 -1.8008  1.9854
13511TIP3    H261949   5.018   6.039   3.054  1.0252 -2.3640  2.8157
13512TIP3   OH261950   6.680   4.870  15.874 -0.5391  0.4981 -0.7792
13512TIP3    H161951   6.658   4.900  15.786 -0.6256  2.5295 -0.1184
13512TIP3    H261952   6.669   4.947  15.929  2.1477  0.0415  0.5938
13513TIP3   OH261953   4.175   6.654   2.856 -0.2865 -0.9637  0.0519
13513TIP3    H161954   4.231   6.578   2.871  1.4633  0.4361  0.8872
13513TIP3    H261955   4.224   6.709   2.795 -0.9093  0.1026  0.4828
13514TIP3   OH261956   2.474   3.586   4.697  0.3121  0.6059 -0.6797
13514TIP3    H161957   2.558   3.599   4.652 -0.0766  1.2355 -1.2372
13514TIP3    H261958   2.408   3.598   4.628 -0.2239 -0.4179 -0.3640
13515TIP3   OH261959   1.910   0.150   2.495 -0.0374  0.6136 -0.4017
13515TIP3    H161960   1.878   0.183   2.411  0.6964  1.4511 -0.3669
13515TIP3    H261961   1.874   0.211   2.559 -1.2276 -0.4592 -0.0095
13516TIP3   OH261962   0.438   0.583  11.572 -0.1065  0.0382  0.4404
13516TIP3    H161963   0.447   0.536  11.489  0.3925  1.5236 -0.3819
13516TIP3    H261964   0.388   0.523  11.628 -0.4424 -1.0061 -0.9182
13517TIP3   OH261965   0.922   3.407  11.271 -0.3290  0.1005 -0.3373
13517TIP3    H161966   0.969   3.423  11.189  0.0257  2.1838  0.2206
13517TIP3    H261967   0.841   3.457  11.262 -0.9812 -0.8793 -0.0032
13518TIP3   OH261968   5.122   6.250  12.503 -0.5685 -0.5084  0.4539
13518TIP3    H161969   5.059   6.271  12.573 -0.7189 -0.1331  0.2106
13518TIP3    H261970   5.071   6.199  12.440 -0.1299 -1.9055  1.1829
13519TIP3   OH261971   3.283   0.453  14.527 -0.8164 -0.5064  0.4550
13519TIP3    H161972   3.281   0.366  14.566  1.3084 -0.1815  1.3876
13519TIP3    H261973   3.258   0.438  14.435 -0.9264 -2.0119  0.7070
13520TIP3   OH261974   4.096   0.144  14.962  0.1322 -0.1150  0.4303
13520TIP3    H161975   4.055   0.121  15.045 -0.0964 -0.6791  0.1623
13520TIP3    H261976   4.148   0.067  14.938 -1.0615 -0.5885 -0.7325
13521TIP3   OH261977   6.785   2.358  13.590  0.6962 -0.1955 -0.0786
13521TIP3    H161978   6.787   2.343  13.495 -0.1940  0.1333 -0.1582
13521TIP3    H261979   6.865   2.318  13.622 -0.2130 -2.6058 -0.6365
13522TIP3   OH261980   5.868   0.571  12.958  0.6304 -0.4866 -0.4378
13522TIP3    H161981   5.831   0.641  12.904 -0.6885 -0.3073  0.6362
13522TIP3    H261982   5.961   0.569  12.934  0.5623  1.1726 -0.9974
13523TIP3   OH261983   0.042   3.266   1.848  0.0246  0.1643 -0.5885
13523TIP3    H161984  -0.007   3.215   1.784 -0.0661 -0.8385  0.2392
13523TIP3    H261985   0.121   3.294   1.802  0.2319 -1.0228 -0.9810
13524TIP3   OH261986   3.807   4.927   2.585  0.5843  0.3691 -0.3087
13524TIP3    H161987   3.823   4.962   2.498 -0.3173 -0.2886 -0.7607
13524TIP3    H261988   3.739   4.861   2.572 -0.9512  1.5885  1.1680
13525TIP3   OH261989   2.656   4.074   3.493 -0.1711 -0.3053 -0.1206
13525TIP3    H161990   2.608   4.009   3.545  0.2824 -0.5323  0.0191
13525TIP3    H261991   2.616   4.158   3.516 -1.6616 -0.6488 -1.2902
13526TIP3   OH261992   5.117   2.484   4.856 -0.9180  0.5869  0.0323
13526TIP3    H161993   5.036   2.471   4.905 -0.4272  1.7130  1.1967
13526TIP3    H261994   5.171   2.407   4.877 -0.5289  1.2683  1.6999
13527TIP3   OH261995   3.127   4.129   4.454 -0.4865  0.6450 -0.4274
13527TIP3    H161996   3.173   4.050   4.427  0.1932  1.3026 -1.2490
13527TIP3    H261997   3.058   4.140   4.389  0.7409  1.8659 -1.6092
13528TIP3   OH261998   3.130   4.214  14.080 -0.1911 -0.3737  0.0007
13528TIP3    H161999   3.121   4.121  14.059  0.5267 -0.2507 -0.9229
13528TIP3    H262000   3.168   4.214  14.168 -1.8111 -0.9188  0.7379
13529TIP3   OH262001   3.471   0.115  17.057  0.0578  0.3643 -0.1663
13529TIP3    H162002   3.558   0.079  17.038  0.2284  0.8744 -0.3567
13529TIP3    H262003   3.428   0.121  16.972  0.0562  0.6774 -0.1436
13530TIP3   OH262004   5.697   1.646  14.035  0.2134  0.0360  0.8206
13530TIP3    H162005   5.736   1.568  13.996 -1.6341 -0.7775  0.4895
13530TIP3    H262006   5.735   1.651  14.123  2.2919  0.2684 -0.0505
13531TIP3   OH262007   3.720   5.069   1.062  0.5328  0.2806 -0.2570
13531TIP3    H162008   3.715   5.096   1.154  0.2956  1.5627 -0.6215
13531TIP3    H262009   3.636   5.029   1.043  0.3358  0.6096 -0.0848
13532TIP3   OH262010   2.182   4.665  15.455 -0.3085  0.1772 -0.3378
13532TIP3    H162011   2.200   4.585  15.406  0.8945 -0.3888  0.9508
13532TIP3    H262012   2.269   4.696  15.484 -0.8558  1.2607  0.2241
13533TIP3   OH262013   1.219   5.195   3.824 -0.3191  0.5881  0.3517
13533TIP3    H162014   1.142   5.176   3.769 -0.2517  1.5117 -0.0729
13533TIP3    H262015   1.187   5.186   3.914 -0.7414  0.2561  0.1709
13534TIP3   OH262016   0.593   0.673   2.312 -0.0560  0.7966 -0.3721
13534TIP3    H162017   0.503   0.669   2.344 -0.0953 -0.0042 -0.5508
13534TIP3    H262018   0.588   0.636   2.224  0.7165 -0.9127  0.2654
13535TIP3   OH262019   0.797   6.478   1.023  0.4047 -0.3792  0.1576
13535TIP3    H162020   0.843   6.418   0.964 -1.9131 -0.9632 -1.1992
13535TIP3    H262021   0.741   6.421   1.076  1.9660  0.2081  2.5794
13536TIP3   OH262022   4.828   5.204  16.614 -0.0261 -0.3482  0.0031
13536TIP3    H162023   4.771   5.276  16.585 -0.8172 -1.3353 -1.0064
13536TIP3    H262024   4.769   5.130  16.626  1.2238 -2.3001 -4.0047
13537TIP3   OH262025   6.670   4.960   5.234 -0.2997  0.1425  0.0500
13537TIP3    H162026   6.649   5.051   5.252 -2.9924  0.0231 -1.8745
13537TIP3    H262027   6.619   4.910   5.299 -0.1920 -0.0225  0.0098
13538TIP3   OH262028   6.559   6.487   2.924  0.0909  0.3046 -0.4573
13538TIP3    H162029   6.575   6.400   2.961  1.7122  0.8155  0.1147
13538TIP3    H262030   6.577   6.477   2.830  0.2487  0.0086 -0.3962
13539TIP3   OH262031   1.594   4.445  16.067 -0.2419 -0.3537  0.2883
13539TIP3    H162032   1.646   4.432  15.987  0.4260 -0.2629  0.6949
13539TIP3    H262033   1.544   4.364  16.075 -1.7249  0.3413 -1.1954
13540TIP3   OH262034   3.555   4.519  16.605  0.4446  0.4773  0.3189
13540TIP3    H162035   3.589   4.510  16.694 -0.2100 -2.4647  0.3833
13540TIP3    H262036   3.587   4.441  16.559 -1.2371  0.6789 -1.3145
13541TIP3   OH262037   3.454   3.953   0.210 -0.4958 -0.3917  0.1472
13541TIP3    H162038   3.378   3.984   0.160 -0.5489 -0.7542 -0.0011
13541TIP3    H262039   3.417   3.914   0.289 -0.6235 -2.3499 -0.8235
13542TIP3   OH262040   6.039   5.286  12.289  0.1221 -0.6818  0.1393
13542TIP3    H162041   6.084   5.348  12.232 -1.0940 -0.8742 -1.1108
13542TIP3    H262042   6.025   5.333  12.371 -1.5848  1.1025 -1.0675
13543TIP3   OH262043   0.879   1.553  11.864 -0.4395  0.2750 -0.0917
13543TIP3    H162044   0.910   1.525  11.950  0.2739 -0.5002 -0.5858
13543TIP3    H262045   0.894   1.477  11.808 -0.2604  1.0139 -1.0544
13544TIP3   OH262046   5.451   2.836  15.067  0.1513  0.0088 -0.1685
13544TIP3    H162047   5.534   2.794  15.043  0.0459 -1.2152  1.4599
13544TIP3    H262048   5.450   2.834  15.162 -2.7020 -2.0585 -0.1201
13545TIP3   OH262049   2.291   4.203   1.531  0.1701  0.4154  0.0337
13545TIP3    H162050   2.312   4.289   1.568  0.4998  0.0701  0.6809
13545TIP3    H262051   2.218   4.172   1.585  0.8292 -0.2069  0.5914
13546TIP3   OH262052   0.909   2.512  13.203  0.1093 -0.2151  0.1757
13546TIP3    H162053   0.823   2.527  13.163  0.5789 -1.1846 -1.2785
13546TIP3    H262054   0.924   2.590  13.257 -0.4578  1.3096 -1.7530
13547TIP3   OH262055   1.981   0.705   2.246  0.0852  0.7517 -0.2475
13547TIP3    H162056   2.041   0.756   2.301  0.2719  1.2233 -0.8843
13547TIP3    H262057   1.978   0.619   2.288  0.6304  0.9476  0.2097
13548TIP3   OH262058   2.938   1.049   2.785 -0.0905 -0.3399 -0.1879
13548TIP3    H162059   2.972   0.960   2.796 -0.7907 -0.5634  0.2740
13548TIP3    H262060   2.848   1.037   2.754 -0.5045  0.1712  0.7497
13549TIP3   OH262061   4.856   3.403  14.067 -0.8415  0.0029  0.2915
13549TIP3    H162062   4.927   3.419  14.004 -1.2125 -1.1093 -0.4506
13549TIP3    H262063   4.780   3.446  14.029 -0.2207  2.9380  2.0545
13550TIP3   OH262064   4.415   3.691   4.450  0.2041 -0.4197  0.7909
13550TIP3    H162065   4.429   3.596   4.443 -0.2740 -0.4979  0.8335
13550TIP3    H262066   4.358   3.712   4.376 -1.5695 -0.5612  2.0608
13551TIP3   OH262067   0.876   5.906   0.012 -0.1500  0.8147 -0.1853
13551TIP3    H162068   0.842   5.942   0.093 -1.3465 -0.3403 -0.1411
13551TIP3    H262069   0.951   5.853   0.039  1.4641  2.9243 -0.2256
13552TIP3   OH262070   0.045   4.869  14.743 -0.5351 -0.3783  0.1408
13552TIP3    H162071   0.001   4.784  14.754 -1.5432  0.3747  2.5780
13552TIP3    H262072   0.121   4.849  14.688 -0.3110 -3.0263  1.2328
13553TIP3   OH262073   3.396   1.429  12.587  0.2315 -0.0196  0.1452
13553TIP3    H162074   3.423   1.521  12.582  0.0031  0.0251 -0.2643
13553TIP3    H262075   3.304   1.433  12.614 -0.4325 -0.0405 -1.9384
13554TIP3   OH262076   0.285   4.996  13.587  0.2506 -0.5168  0.4249
13554TIP3    H162077   0.354   4.984  13.522 -0.2962 -1.9612  0.0805
13554TIP3    H262078   0.317   4.951  13.665 -0.6139 -1.9125  0.0114
13555TIP3   OH262079   3.147   1.883   0.177 -0.1462  0.0209 -0.0193
13555TIP3    H162080   3.188   1.924   0.253  0.1755  0.2032 -0.2869
13555TIP3    H262081   3.198   1.914   0.102 -1.6953  1.5227 -0.5373
13556TIP3   OH262082   2.559   3.647   2.834 -0.2148  0.1410  0.7810
13556TIP3    H162083   2.556   3.743   2.825  2.6836  0.2282 -0.0823
13556TIP3    H262084   2.541   3.615   2.746 -0.2998 -0.0799  0.8801
13557TIP3   OH262085   4.839   2.623   4.390  0.4660 -0.2300 -0.0226
13557TIP3    H162086   4.758   2.653   4.431  0.7178 -0.3757  0.5870
13557TIP3    H262087   4.897   2.600   4.463  0.3230 -2.1143 -0.4422
13558TIP3   OH262088   0.127   5.613   5.065 -0.1913 -0.3301 -0.5659
13558TIP3    H162089   0.189   5.570   5.124 -0.4258 -0.5539 -0.4823
13558TIP3    H262090   0.120   5.553   4.991  0.1990  0.0070 -0.8836
13559TIP3   OH262091   5.459   4.479   0.810  0.4727  0.4378 -0.1095
13559TIP3    H162092   5.366   4.501   0.806  0.2834  0.4274  2.4765
13559TIP3    H262093   5.504   4.556   0.778 -0.4093  1.1401  0.2919
13560TIP3   OH262094   0.782   3.247   2.271 -0.5856  0.3375  0.1657
13560TIP3    H162095   0.861   3.236   2.324  0.0354 -0.0300 -0.7965
13560TIP3    H262096   0.758   3.158   2.245 -1.4409  0.4294  0.6158
13561TIP3   OH262097   5.164   1.573   3.327 -0.1852 -0.0140 -0.3360
13561TIP3    H162098   5.238   1.518   3.300 -0.4907 -0.0476 -1.1202
13561TIP3    H262099   5.107   1.576   3.251 -0.0369  1.6443 -0.4208
13562TIP3   OH262100   1.801   0.639  14.386 -0.3538  0.5802 -0.0757
13562TIP3    H162101   1.870   0.598  14.438 -2.1485 -1.9731  0.4597
13562TIP3    H262102   1.840   0.649  14.299  0.5650 -1.2782  0.0704
13563TIP3   OH262103   0.647   4.501   3.595 -0.4253  0.0567 -0.2795
13563TIP3    H162104   0.664   4.424   3.650  0.2394 -0.8849 -1.7044
13563TIP3    H262105   0.727   4.510   3.542 -0.7636  1.3302 -0.6080
13564TIP3   OH262106   1.875   4.622   3.543  0.0766 -0.4426  0.4305
13564TIP3    H162107   1.830   4.646   3.461  1.8669 -1.6684 -1.0079
13564TIP3    H262108   1.966   4.611   3.517  0.9207  0.2056  2.8664
13565TIP3   OH262109   4.793   4.564  12.267 -0.2974 -0.4761 -0.0036
13565TIP3    H162110   4.821   4.487  12.218 -0.4893 -0.0229 -0.8549
13565TIP3    H262111   4.720   4.534  12.320 -0.8694 -0.7197 -0.8989
13566TIP3   OH262112   3.708   3.260   2.272 -0.5189  0.0286 -0.3217
13566TIP3    H162113   3.767   3.300   2.208  0.2726  1.7386  1.3739
13566TIP3    H262114   3.763   3.198   2.319 -0.5211  0.3246  0.0795
13567TIP3   OH262115   3.699   4.999   5.474 -0.0333  0.1928  0.4638
13567TIP3    H162116   3.743   4.982   5.391 -0.3527  0.1365  0.3080
13567TIP3    H262117   3.727   4.927   5.531 -2.9320 -2.0907 -0.7556
13568TIP3   OH262118   0.960   4.755  11.965 -0.4525 -0.3908 -0.7796
13568TIP3    H162119   0.997   4.673  11.997 -0.8937 -0.3136 -0.0268
13568TIP3    H262120   0.878   4.730  11.922 -1.0908 -0.2688  0.3200
13569TIP3   OH262121   1.313   0.933   2.620  0.5788  0.6019 -0.2575
13569TIP3    H162122   1.226   0.972   2.610  0.4878  0.0106 -2.1538
13569TIP3    H262123   1.312   0.857   2.563  2.1718  0.2504  0.1281
13570TIP3   OH262124   3.813   3.529  13.012 -0.2174  0.4280  0.5447
13570TIP3    H162125   3.756   3.573  12.949  0.7917  1.0259  0.0292
13570TIP3    H262126   3.809   3.437  12.987  2.3500  0.9272 -2.2893
13571TIP3   OH262127   4.252   4.032  14.674 -0.6182 -0.4498  0.2232
13571TIP3    H162128   4.331   4.006  14.721  0.4903  0.5040 -1.0286
13571TIP3    H262129   4.251   3.977  14.595 -0.3962  0.5030 -0.4718
13572TIP3   OH262130   6.044   4.667   4.029 -0.1221 -0.1860  0.0738
13572TIP3    H162131   5.984   4.596   4.005 -1.4045  0.1160  2.1333
13572TIP3    H262132   6.102   4.628   4.094 -1.1523  0.6986  1.5993
13573TIP3   OH262133   2.143   1.992  13.915 -0.0260  0.3998 -0.2515
13573TIP3    H162134   2.227   2.024  13.882 -0.1814  0.9181 -0.1564
13573TIP3    H262135   2.085   1.994  13.839 -0.2998  1.2944 -0.0258
13574TIP3   OH262136   0.232   5.580   4.648  0.5353 -0.3521 -0.3493
13574TIP3    H162137   0.221   5.513   4.580 -1.7785 -0.3085 -0.1088
13574TIP3    H262138   0.240   5.662   4.600  0.2276 -0.4700 -0.6094
13575TIP3   OH262139   6.790   3.150   0.014  0.0039 -0.1469 -0.0302
13575TIP3    H162140   6.788   3.102  -0.069 -1.4943  0.6155 -0.4683
13575TIP3    H262141   6.845   3.096   0.071  0.5029 -1.0344 -1.2980
13576TIP3   OH262142   3.703   3.540  16.283 -0.5257  0.0618 -0.2368
13576TIP3    H162143   3.611   3.559  16.303 -0.0871  1.0059  1.0085
13576TIP3    H262144   3.721   3.459  16.330 -0.7521 -0.2330 -0.6427
13577TIP3   OH262145   1.814   3.254  12.087 -0.6933  0.0752 -0.3126
13577TIP3    H162146   1.744   3.204  12.046 -0.5003  0.8998 -1.7228
13577TIP3    H262147   1.864   3.290  12.013  0.1240  0.9987  0.6601
13578TIP3   OH262148   1.426   6.746  15.347  0.4098 -0.0246 -0.5027
13578TIP3    H162149   1.518   6.719  15.344 -0.2864 -2.6992 -2.9641
13578TIP3    H262150   1.386   6.688  15.411  0.2493  0.4783 -0.1422
13579TIP3   OH262151   4.664   1.064  14.668  0.1424  0.4643  0.0377
13579TIP3    H162152   4.583   1.100  14.631 -0.3456 -0.6330  0.0138
13579TIP3    H262153   4.637   0.982  14.710  0.8160  1.2509  2.1374
13580TIP3   OH262154   6.460   3.091  11.903  0.1411  0.2893 -0.2039
13580TIP3    H162155   6.547   3.090  11.862 -0.1866 -0.9641 -0.9155
13580TIP3    H262156   6.404   3.043  11.841 -0.6754 -0.4105  1.0429
13581TIP3   OH262157   4.346   4.805   6.088  0.2877 -0.5169 -0.1422
13581TIP3    H162158   4.295   4.839   6.162 -1.5902  2.2195 -2.4784
13581TIP3    H262159   4.284   4.750   6.040 -0.2654  1.7775 -2.2805
13582TIP3   OH262160   4.859   2.467  15.634  0.5113  0.6803 -0.1460
13582TIP3    H162161   4.777   2.419  15.642  0.8713  0.3356  2.2111
13582TIP3    H262162   4.912   2.414  15.574 -0.6211  0.4087 -0.9398
13583TIP3   OH262163   5.594   5.783   3.260  0.5621 -0.0130 -0.5507
13583TIP3    H162164   5.556   5.725   3.326 -1.2305 -0.5308 -1.9604
13583TIP3    H262165   5.525   5.793   3.194  1.8360  1.4930 -1.7315
13584TIP3   OH262166   2.920   4.228   1.199 -0.2190  0.7983 -0.2003
13584TIP3    H162167   2.837   4.207   1.156  1.0602 -2.1298 -1.5270
13584TIP3    H262168   2.954   4.303   1.149 -0.8292  0.2802 -1.4344
13585TIP3   OH262169   5.062   5.144  14.827  0.3388  0.2787  0.1646
13585TIP3    H162170   5.013   5.223  14.850 -1.6393 -0.7581 -0.3642
13585TIP3    H262171   5.153   5.175  14.817 -0.5750  2.7745 -1.3476
13586TIP3   OH262172   2.366   0.209   0.108  0.2834  0.0017  0.3908
13586TIP3    H162173   2.313   0.246   0.179  2.3495  0.3350  1.8333
13586TIP3    H262174   2.392   0.285   0.056 -0.4292 -0.1346 -0.1728
13587TIP3   OH262175   0.893   4.000  13.714 -0.0920 -0.0125 -0.0132
13587TIP3    H162176   0.883   3.958  13.799 -1.9409  1.1887  0.4293
13587TIP3    H262177   0.861   3.936  13.651 -2.3483  0.4294  0.6016
13588TIP3   OH262178   2.514   5.748   0.626 -0.4232  0.4465 -0.3805
13588TIP3    H162179   2.608   5.767   0.633 -0.7831  1.7603  2.1404
13588TIP3    H262180   2.510   5.654   0.607  1.3744  0.5477 -1.5143
13589TIP3   OH262181   0.072   0.587  12.153  0.8070 -0.0404  0.1421
13589TIP3    H162182  -0.002   0.628  12.108  1.2144 -0.5368 -1.0210
13589TIP3    H262183   0.049   0.591  12.245 -0.9179 -0.6236 -0.2123
13590TIP3   OH262184   2.200   3.202   0.297  0.3290  0.6097 -0.2401
13590TIP3    H162185   2.265   3.133   0.286 -0.9851 -0.6135 -0.7257
13590TIP3    H262186   2.124   3.158   0.335  0.5000  2.4196  2.5443
13591TIP3   OH262187   4.901   2.390  17.024  0.0335  0.2004  0.2459
13591TIP3    H162188   4.950   2.353  17.098  1.7293 -2.4658 -2.0052
13591TIP3    H262189   4.935   2.344  16.948 -3.1085  1.2976 -2.0093
13592TIP3   OH262190   0.365   3.648  14.661 -0.6180  0.0381  0.0420
13592TIP3    H162191   0.289   3.597  14.635 -0.5372  0.1507 -0.4286
13592TIP3    H262192   0.376   3.712  14.591  0.9266 -1.0659 -0.7930
13593TIP3   OH262193   1.074   3.271   0.400 -0.1749 -0.1521  0.5413
13593TIP3    H162194   1.160   3.230   0.391 -0.5184 -0.6573 -0.5264
13593TIP3    H262195   1.053   3.261   0.493  0.3892 -1.1026  0.5815
13594TIP3   OH262196   2.408   2.628   2.786 -0.4450  0.6826  0.3973
13594TIP3    H162197   2.320   2.597   2.765 -0.0177  0.1428 -0.7010
13594TIP3    H262198   2.440   2.567   2.852 -0.8655  0.8454  0.7563
13595TIP3   OH262199   2.334   4.259  16.735 -0.3346  0.2436 -0.1134
13595TIP3    H162200   2.308   4.168  16.745 -3.2402  1.0510  0.9163
13595TIP3    H262201   2.422   4.264  16.772  0.1133 -2.1901 -0.6735
13596TIP3   OH262202   5.760   5.625   2.653 -0.2350  0.1476 -0.8076
13596TIP3    H162203   5.723   5.656   2.736  0.7725  2.6788 -1.1915
13596TIP3    H262204   5.717   5.679   2.586  1.7288  0.9272 -1.5209
13597TIP3   OH262205   6.430   4.709   1.961  0.3114 -0.2798 -0.1701
13597TIP3    H162206   6.402   4.755   2.040 -0.9410  0.1793 -0.8535
13597TIP3    H262207   6.359   4.648   1.943  0.6161 -0.4233 -0.9014
13598TIP3   OH262208   3.118   0.261  15.141 -0.0358 -0.7347  0.0454
13598TIP3    H162209   3.045   0.283  15.199 -0.1396 -1.7786  0.3422
13598TIP3    H262210   3.122   0.165  15.144  1.1524 -0.7064 -0.2109
13599TIP3   OH262211   5.598   6.293  12.847  0.3943 -0.3551 -0.6318
13599TIP3    H162212   5.661   6.363  12.829  1.0455 -0.6731  0.2977
13599TIP3    H262213   5.649   6.212  12.841  0.7906 -0.4867  2.7016
13600TIP3   OH262214   4.523   3.658   1.073 -0.0355  0.0961 -0.0278
13600TIP3    H162215   4.608   3.696   1.090 -0.3985  0.8692  0.0866
13600TIP3    H262216   4.475   3.725   1.025 -1.1293  0.3019  1.2857
13601TIP3   OH262217   2.756   2.960   4.214  0.2188 -0.7760  0.3918
13601TIP3    H162218   2.803   2.995   4.139  1.3332  1.4280  1.9868
13601TIP3    H262219   2.825   2.935   4.276 -0.6575 -0.5986  1.4803
13602TIP3   OH262220   4.139   3.018  14.396  0.3432 -0.1722  0.0333
13602TIP3    H162221   4.085   2.989  14.323 -0.9434  1.5637  0.2467
13602TIP3    H262222   4.185   3.095  14.363  0.9567 -0.2915  0.5757
13603TIP3   OH262223   6.650   4.234   5.077  0.6385  0.5687 -0.1307
13603TIP3    H162224   6.712   4.202   5.143  0.9075  0.7964 -0.2697
13603TIP3    H262225   6.684   4.201   4.994  1.1071  1.4813 -0.3147
13604TIP3   OH262226   2.803   2.727  13.331  0.2650  0.1516  0.1431
13604TIP3    H162227   2.741   2.734  13.259 -0.7282 -0.7813  0.8654
13604TIP3    H262228   2.881   2.688  13.292 -0.7629 -1.6959 -0.2005
13605TIP3   OH262229   2.332   1.178   6.530 -0.0347 -0.0091 -0.6102
13605TIP3    H162230   2.339   1.106   6.468 -0.7157  1.1618 -2.1252
13605TIP3    H262231   2.410   1.172   6.584  1.1405 -0.4450 -2.3008
13606TIP3   OH262232   0.637   5.614   5.670 -0.0713 -0.5477  0.0734
13606TIP3    H162233   0.697   5.687   5.655 -1.7941  0.9372  0.1412
13606TIP3    H262234   0.611   5.623   5.762  0.4936 -1.8966  0.3878
13607TIP3   OH262235   1.116   2.139   5.114  0.2927 -0.3186 -0.5628
13607TIP3    H162236   1.044   2.200   5.128  0.7462 -0.1399  1.2301
13607TIP3    H262237   1.074   2.053   5.107 -0.1729 -0.0684 -0.8955
13608TIP3   OH262238   0.993   2.198  13.959  0.1020 -0.3297 -0.5113
13608TIP3    H162239   1.010   2.132  13.892  2.0217  0.9455 -1.3860
13608TIP3    H262240   0.964   2.275  13.910  1.0281  0.4631  0.1428
13609TIP3   OH262241   2.815   1.585   4.067  0.4388  0.0420  0.2654
13609TIP3    H162242   2.729   1.544   4.073 -0.4107  1.0120 -3.0332
13609TIP3    H262243   2.877   1.512   4.059 -0.4251 -0.6647 -0.1569
13610TIP3   OH262244   5.039   1.527  14.146 -0.2300  0.3573 -0.1590
13610TIP3    H162245   5.102   1.580  14.194  0.2960 -0.8666  0.5574
13610TIP3    H262246   5.087   1.447  14.123 -0.9006  0.3009 -1.4887
13611TIP3   OH262247   2.816   4.656  17.033  0.5320 -0.1054  0.2711
13611TIP3    H162248   2.872   4.671  16.957  1.0368 -0.6448  0.5350
13611TIP3    H262249   2.857   4.707  17.103  0.7241 -0.5385  0.4772
13612TIP3   OH262250   2.816   3.439   2.901 -0.2112  0.1226  0.6174
13612TIP3    H162251   2.748   3.506   2.913  1.8150  2.5808 -0.6896
13612TIP3    H262252   2.899   3.486   2.907  1.3746 -2.3371 -0.1436
13613TIP3   OH262253   6.525   1.748  16.452 -0.1452  0.8434  0.6570
13613TIP3    H162254   6.434   1.777  16.442 -1.2484 -2.1552  1.0153
13613TIP3    H262255   6.532   1.671  16.395  1.0227 -1.1737  3.3115
13614TIP3   OH262256   1.677   3.788  15.880 -0.1513 -0.2316  1.0721
13614TIP3    H162257   1.681   3.722  15.949 -1.5665 -0.6752  0.7448
13614TIP3    H262258   1.586   3.789  15.851 -0.5178  2.7708  1.9406
13615TIP3   OH262259   0.209   4.548  16.049  0.4947  0.1782 -0.0009
13615TIP3    H162260   0.124   4.590  16.058  0.9596  1.0029  0.7221
13615TIP3    H262261   0.270   4.608  16.093  1.4409 -0.4063 -0.4860
13616TIP3   OH262262   3.082   1.081   3.010 -0.1190 -0.2994 -0.2804
13616TIP3    H162263   3.021   1.106   2.940  0.2457  0.2999 -0.3914
13616TIP3    H262264   3.090   0.986   3.002 -1.3534 -0.4472 -0.0019
13617TIP3   OH262265   1.261   2.491  13.361 -0.3855 -0.3770  0.2144
13617TIP3    H162266   1.322   2.493  13.434  0.7846  2.4272 -0.6982
13617TIP3    H262267   1.190   2.433  13.390  1.0819 -1.0996  2.6260
13618TIP3   OH262268   2.748   3.018   6.092  0.2663 -0.5320 -0.5388
13618TIP3    H162269   2.681   3.075   6.129  0.8877  0.0759 -0.3299
13618TIP3    H262270   2.802   2.991   6.166 -0.8679 -2.5924 -0.4017
13619TIP3   OH262271   1.617   4.576  12.798  0.7556  0.3532 -0.7508
13619TIP3    H162272   1.539   4.536  12.759 -0.2102  0.7225  0.7321
13619TIP3    H262273   1.583   4.639  12.861  2.2719  1.3120 -0.8522
13620TIP3   OH262274   1.524   4.340   1.346  0.0273 -0.4403  0.2862
13620TIP3    H162275   1.590   4.387   1.396  0.2734  1.3651 -1.5803
13620TIP3    H262276   1.440   4.376   1.377  0.2078  1.2434 -1.0227
13621TIP3   OH262277   4.378   0.017   2.731 -0.1211  0.0382  0.3547
13621TIP3    H162278   4.387  -0.001   2.637 -0.4927  0.1856  0.2890
13621TIP3    H262279   4.462   0.052   2.757 -0.0057 -0.0323  0.0814
13622TIP3   OH262280   0.162   5.414  12.582  0.1965 -0.2331  0.5349
13622TIP3    H162281   0.245   5.407  12.628 -0.4038 -1.9000  1.4393
13622TIP3    H262282   0.174   5.366  12.500 -0.2784 -1.7439  1.3188
13623TIP3   OH262283   3.030   1.568  13.176  0.1276 -0.2323  0.4313
13623TIP3    H162284   3.003   1.501  13.239 -0.9055 -0.6472 -0.4159
13623TIP3    H262285   2.975   1.644  13.198 -1.3423 -0.8603 -0.8695
13624TIP3   OH262286   1.336   4.039   2.782  0.2902 -0.5327 -0.6234
13624TIP3    H162287   1.310   3.954   2.818  1.8123 -0.8723 -0.2607
13624TIP3    H262288   1.374   4.086   2.856 -1.1524  0.7718 -0.6500
13625TIP3   OH262289   0.380   3.024  15.203  0.1328  0.8395  0.7095
13625TIP3    H162290   0.461   3.061  15.238  0.6897  1.1361 -0.8044
13625TIP3    H262291   0.313   3.046  15.268  1.4760 -0.6359  2.6963
13626TIP3   OH262292   5.660   6.145   5.996 -0.3970  0.2268 -0.0449
13626TIP3    H162293   5.615   6.086   6.057 -0.6548 -0.0889 -0.5243
13626TIP3    H262294   5.733   6.181   6.045 -0.4357 -0.2416  0.3625
13627TIP3   OH262295   1.422   6.313  15.834 -0.8949  0.3440  0.1336
13627TIP3    H162296   1.386   6.377  15.895 -2.3939  0.5503 -0.9162
13627TIP3    H262297   1.434   6.361  15.752 -0.3225 -0.2877 -0.1622
13628TIP3   OH262298   6.408   6.430   5.353 -0.2827  0.6037 -0.2951
13628TIP3    H162299   6.433   6.501   5.294  0.5831  1.1682  0.7122
13628TIP3    H262300   6.413   6.469   5.441  0.1205 -0.6680  0.2672
13629TIP3   OH262301   2.324   6.409   4.559 -0.1632 -0.2777  0.0349
13629TIP3    H162302   2.359   6.477   4.500 -1.5149  1.9169  1.6050
13629TIP3    H262303   2.230   6.410   4.543 -0.5559  0.3230  2.1081
13630TIP3   OH262304   6.511   5.796  12.288 -0.2059 -0.0729  0.2320
13630TIP3    H162305   6.481   5.712  12.253  0.5399 -1.5118  2.7798
13630TIP3    H262306   6.528   5.850  12.211 -0.8427 -2.1977 -1.4847
13631TIP3   OH262307   3.573   4.326  16.197 -0.0340  0.4948 -0.3244
13631TIP3    H162308   3.531   4.411  16.205  1.3900  1.1588  0.3885
13631TIP3    H262309   3.572   4.291  16.286  0.1985  0.1568 -0.4526
13632TIP3   OH262310   1.974   1.065  11.780 -0.2342  0.4512  0.4074
13632TIP3    H162311   1.938   0.983  11.814 -1.3565  0.6664 -0.2132
13632TIP3    H262312   2.022   1.102  11.854  0.9045 -1.0779  0.4998
13633TIP3   OH262313   0.422   1.448  13.390 -0.1242 -0.6603 -0.5592
13633TIP3    H162314   0.435   1.529  13.340  1.4033  2.0160  3.5937
13633TIP3    H262315   0.329   1.447  13.411 -0.3599 -0.6289 -1.5468
13634TIP3   OH262316   5.358   0.044  16.216  0.6587  0.1222  0.5730
13634TIP3    H162317   5.300  -0.007  16.160  1.8279  0.3755 -0.9082
13634TIP3    H262318   5.430  -0.015  16.238  0.6254  0.2844  1.1339
13635TIP3   OH262319   1.740   4.459   5.913  0.5401  0.2844 -0.3598
13635TIP3    H162320   1.701   4.388   5.862  0.4359 -0.0605  0.1937
13635TIP3    H262321   1.692   4.537   5.887 -0.5454 -0.1355  0.3359
13636TIP3   OH262322   3.562   1.257   2.807 -0.1188 -0.5042  0.6272
13636TIP3    H162323   3.566   1.199   2.731 -1.0216  0.8445 -0.5008
13636TIP3    H262324   3.529   1.201   2.878  0.3296 -1.6805 -0.0701
13637TIP3   OH262325   6.057   1.430  13.289 -0.5188  0.0675  0.9841
13637TIP3    H162326   6.115   1.496  13.251  0.6070 -0.9793  0.8565
13637TIP3    H262327   6.105   1.394  13.363 -0.9688 -0.8595  0.8458
13638TIP3   OH262328   4.440   3.034  14.938 -0.4918  0.0158 -0.0898
13638TIP3    H162329   4.359   3.077  14.912 -0.6530  0.2382  0.7571
13638TIP3    H262330   4.449   3.053  15.032  1.5703  1.6729 -0.5562
13639TIP3   OH262331   3.126   1.630  12.595 -0.1545 -0.2918 -0.1659
13639TIP3    H162332   3.186   1.704  12.580  0.8789 -1.3770 -1.7022
13639TIP3    H262333   3.048   1.652  12.544 -0.2585  0.2068  0.2054
13640TIP3   OH262334   5.876   3.360  12.620 -0.7760  0.3096  0.6981
13640TIP3    H162335   5.898   3.338  12.530 -1.2224  1.2432  0.3505
13640TIP3    H262336   5.922   3.443  12.637 -3.2531  1.8824  0.2259
13641TIP3   OH262337   4.873   0.368  12.872 -0.4600 -0.1589 -0.5462
13641TIP3    H162338   4.865   0.278  12.839 -1.3452  0.1075 -1.0897
13641TIP3    H262339   4.953   0.367  12.924 -0.7486 -1.4044 -0.0816
13642TIP3   OH262340   4.961   6.337   1.043  0.3870 -0.4804 -0.2394
13642TIP3    H162341   4.906   6.322   0.966  0.3493 -0.0481 -0.2999
13642TIP3    H262342   5.002   6.422   1.027 -0.0906 -0.1058  0.4916
13643TIP3   OH262343   5.119   2.270   1.650  0.1706  0.2239  0.0908
13643TIP3    H162344   5.149   2.322   1.575  0.5446  0.1974  0.2184
13643TIP3    H262345   5.198   2.228   1.683  0.1017  0.6340  0.8081
13644TIP3   OH262346   1.192   4.390   2.007  0.5523 -0.0327 -0.1733
13644TIP3    H162347   1.138   4.417   2.082 -1.2538 -1.1734 -0.9918
13644TIP3    H262348   1.281   4.410   2.034 -0.2698  2.5971  0.9964
13645TIP3   OH262349   1.378   4.062  15.470  0.5887 -0.3892 -0.2792
13645TIP3    H162350   1.469   4.063  15.502  0.0091 -0.2376  1.4612
13645TIP3    H262351   1.338   3.988  15.516 -0.2804 -0.2211 -0.7531
13646TIP3   OH262352   3.349   3.396  13.312  0.2254 -0.2533 -0.2040
13646TIP3    H162353   3.400   3.435  13.383 -1.6104  1.0001  0.5055
13646TIP3    H262354   3.411   3.387  13.239  1.3439  1.6033  0.4617
13647TIP3   OH262355   2.980   6.473   5.141  0.0405 -0.3815 -0.3687
13647TIP3    H162356   3.026   6.481   5.058 -0.5057 -0.1007 -0.6506
13647TIP3    H262357   2.955   6.381   5.146  3.0760 -1.2379  1.1251
13648TIP3   OH262358   3.369   4.112  12.700 -0.7020  0.1609  0.8126
13648TIP3    H162359   3.324   4.034  12.668 -1.1390  0.2131  1.2944
13648TIP3    H262360   3.451   4.079  12.737 -0.0397  0.1324 -0.6180
13649TIP3   OH262361   3.470   1.858   2.594  0.2353 -0.0729  0.8408
13649TIP3    H162362   3.538   1.798   2.565 -0.3751 -0.5338  0.3243
13649TIP3    H262363   3.388   1.813   2.575 -0.2322  0.7704  0.7753
13650TIP3   OH262364   3.860   3.740  16.185 -0.1413 -0.0523 -0.4025
13650TIP3    H162365   3.868   3.711  16.094 -1.1370 -0.8353 -0.2610
13650TIP3    H262366   3.808   3.671  16.227 -0.7726  0.9280  0.4539
13651TIP3   OH262367   4.604   6.489   4.154  0.3648 -0.2544 -0.1493
13651TIP3    H162368   4.560   6.466   4.236 -0.6228 -0.3700 -0.6918
13651TIP3    H262369   4.587   6.582   4.142 -1.6237 -0.7004 -1.4087
13652TIP3   OH262370   3.050   0.801   2.957 -0.1181  0.3458 -0.2588
13652TIP3    H162371   2.956   0.806   2.973  0.1271 -0.1082  1.4329
13652TIP3    H262372   3.065   0.710   2.931  0.1502 -0.2425  1.7909
13653TIP3   OH262373   3.295   0.835  13.611 -0.2606  0.2122 -0.3972
13653TIP3    H162374   3.321   0.927  13.609  2.4975 -0.5034 -1.4160
13653TIP3    H262375   3.375   0.786  13.594 -2.0496 -2.3432 -2.3263
13654TIP3   OH262376   6.519   4.335   5.819  0.4317  0.2838 -0.0365
13654TIP3    H162377   6.560   4.249   5.818  1.1073  0.4987  2.5224
13654TIP3    H262378   6.432   4.320   5.856  0.3844  0.6480  0.0064
13655TIP3   OH262379   3.338   3.279   0.684 -0.3259 -0.4180  0.0721
13655TIP3    H162380   3.252   3.238   0.679  0.0020 -0.9885 -1.0774
13655TIP3    H262381   3.381   3.255   0.603  0.0797  1.8038 -0.4267
13656TIP3   OH262382   3.808   0.386   1.387  0.6148 -0.1972 -0.3780
13656TIP3    H162383   3.785   0.326   1.316 -0.5156 -0.4528  0.1739
13656TIP3    H262384   3.761   0.467   1.365 -2.1734 -1.1439  1.4622
13657TIP3   OH262385   4.959   4.526   0.780 -0.1068 -0.1059  0.1493
13657TIP3    H162386   4.931   4.507   0.870 -2.4297  2.7374  0.1873
13657TIP3    H262387   4.902   4.473   0.725 -1.4460  1.0344  0.3666
13658TIP3   OH262388   5.272   1.845   2.936  0.6582  0.3508  0.1139
13658TIP3    H162389   5.305   1.760   2.964  0.0238  0.6832  2.0706
13658TIP3    H262390   5.212   1.826   2.865  1.0690 -0.7525  0.0374
13659TIP3   OH262391   5.006   0.875  15.609  0.1179 -0.3513  0.3703
13659TIP3    H162392   5.072   0.862  15.677  1.8983  1.4015 -0.9250
13659TIP3    H262393   5.047   0.842  15.529 -0.4990  0.9129 -0.4982
13660TIP3   OH262394   0.090   3.566  12.156 -0.3465 -0.8081  0.4169
13660TIP3    H162395   0.184   3.578  12.144 -0.7071  1.9848 -0.3671
13660TIP3    H262396   0.080   3.474  12.180  2.3511 -1.8853 -1.9804
13661TIP3   OH262397   5.422   0.052   5.218  0.3133 -0.1632 -0.0640
13661TIP3    H162398   5.411  -0.041   5.199  1.6432 -1.0284  2.9151
13661TIP3    H262399   5.512   0.072   5.192  0.3445  0.0377  0.1896
13662TIP3   OH262400   3.278   1.163   4.280  0.0715  0.4904  0.2252
13662TIP3    H162401   3.321   1.184   4.363 -1.3509  0.0423  1.1074
13662TIP3    H262402   3.330   1.092   4.243 -0.5517 -0.8448  1.8405
13663TIP3   OH262403   1.899   1.033  12.253 -0.1175 -0.1193  0.1286
13663TIP3    H162404   1.936   0.994  12.333 -0.2604  0.6608  0.5864
13663TIP3    H262405   1.835   1.097  12.286 -0.7626 -0.3624 -0.6265
13664TIP3   OH262406   3.094   2.339   6.074  0.1269 -0.0219 -0.0474
13664TIP3    H162407   3.021   2.278   6.062 -0.3367  0.5000  0.1120
13664TIP3    H262408   3.171   2.282   6.085 -0.5756 -0.6325  2.0397
13665TIP3   OH262409   3.718   3.187   5.168  0.1076 -0.7747 -0.0011
13665TIP3    H162410   3.743   3.135   5.091 -1.1874 -0.6149 -0.5614
13665TIP3    H262411   3.799   3.229   5.196  0.4926 -0.3164 -1.6860
13666TIP3   OH262412   5.003   1.480   2.564 -0.0325  0.2347 -0.3773
13666TIP3    H162413   4.917   1.464   2.526 -0.3077  0.5912  0.0914
13666TIP3    H262414   4.985   1.517   2.651  0.5878  0.6843 -0.4324
13667TIP3   OH262415   6.473   1.789   4.941  0.2277  0.4850  0.1749
13667TIP3    H162416   6.462   1.843   5.019  1.7344  3.8433 -1.7007
13667TIP3    H262417   6.392   1.801   4.892 -0.3056 -0.8049  0.6914
13668TIP3   OH262418   0.739   2.110  15.971 -0.3370  0.2809 -0.5058
13668TIP3    H162419   0.721   2.172  16.042 -0.9116 -1.8432  1.3221
13668TIP3    H262420   0.662   2.116  15.914 -1.2034  0.0371  0.5964
13669TIP3   OH262421   2.219   1.406   6.632  0.0700  0.1752 -0.2282
13669TIP3    H162422   2.148   1.431   6.573  1.6135  1.1108 -1.7752
13669TIP3    H262423   2.248   1.320   6.601 -1.8855 -1.3924  1.9226
13670TIP3   OH262424   2.879   0.098  13.542 -0.1510 -0.0185  0.5388
13670TIP3    H162425   2.824   0.159  13.590  0.3576 -0.6508  1.9715
13670TIP3    H262426   2.930   0.153  13.483 -0.3714  0.8330  1.1306
13671TIP3   OH262427   6.614   1.053  14.210 -0.2906  0.2513  0.4349
13671TIP3    H162428   6.561   1.026  14.286 -1.1085  0.3698 -0.0835
13671TIP3    H262429   6.695   1.087  14.249 -0.8442  0.6570  1.2891
13672TIP3   OH262430   1.885   6.080   3.381  0.6630 -0.0595 -0.5088
13672TIP3    H162431   1.837   6.026   3.319 -0.0112 -1.3587  1.0834
13672TIP3    H262432   1.923   6.150   3.327  0.1980 -1.1765 -2.3740
13673TIP3   OH262433   1.936   3.973   4.900  0.0790  0.3900  0.4469
13673TIP3    H162434   1.902   3.986   4.988  1.0797 -0.7849  1.0365
13673TIP3    H262435   1.950   4.061   4.866  0.0268  0.8562  1.5903
13674TIP3   OH262436   6.406   4.243  10.522 -0.4543 -0.4198 -0.2810
13674TIP3    H162437   6.329   4.228  10.577 -0.0801  0.0767  0.3940
13674TIP3    H262438   6.382   4.317  10.467 -0.5499 -0.4269 -0.2492
13675TIP3   OH262439   6.610   0.819   2.501  0.3390 -0.0758  0.0219
13675TIP3    H162440   6.653   0.745   2.459 -0.4522 -1.1329  1.0212
13675TIP3    H262441   6.630   0.808   2.594  0.3782  1.0875  0.1647
13676TIP3   OH262442   5.480   6.391  16.407  0.5547 -0.2603  0.1628
13676TIP3    H162443   5.558   6.418  16.455  0.6985 -0.1305 -0.1388
13676TIP3    H262444   5.507   6.312  16.359  0.9384  0.5692 -1.0548
13677TIP3   OH262445   1.409   2.199   2.869  0.2513 -0.2621 -0.1994
13677TIP3    H162446   1.419   2.263   2.939 -0.9274  0.0316 -0.2684
13677TIP3    H262447   1.321   2.164   2.881  0.2750 -0.6747 -1.1425
13678TIP3   OH262448   3.864   1.393   2.503  0.0190  0.1339 -0.3766
13678TIP3    H162449   3.917   1.362   2.577  2.3271  1.5890 -1.2914
13678TIP3    H262450   3.775   1.397   2.537  0.7714 -0.5873  1.8722
13679TIP3   OH262451   4.539   1.286  14.904  0.0874  0.4342 -0.4135
13679TIP3    H162452   4.516   1.193  14.908  2.1346 -0.0750  1.7686
13679TIP3    H262453   4.460   1.329  14.868 -1.0326 -2.0511 -1.1483
13680TIP3   OH262454   2.683   3.867  11.557  0.3041  0.1695  0.6878
13680TIP3    H162455   2.754   3.819  11.515 -1.7426 -1.2004 -1.4549
13680TIP3    H262456   2.632   3.799  11.603 -1.2227  0.6292 -0.2686
13681TIP3   OH262457   5.223   2.314   0.351 -0.4106  0.4871 -0.1750
13681TIP3    H162458   5.242   2.280   0.438  1.4787  0.3151 -0.6138
13681TIP3    H262459   5.164   2.388   0.367 -0.2951  0.3071  1.2276
13682TIP3   OH262460   3.503   5.109  13.239  0.7080  0.8506  0.3588
13682TIP3    H162461   3.565   5.065  13.296 -1.3906 -1.9217  0.7137
13682TIP3    H262462   3.448   5.160  13.299  1.1716  1.4340  0.2965
13683TIP3   OH262463   0.908   6.376  17.102  0.2595  0.0541 -0.2458
13683TIP3    H162464   0.960   6.308  17.144 -2.1405 -1.4576  0.4765
13683TIP3    H262465   0.931   6.370  17.009  1.2852 -0.6215  0.0393
13684TIP3   OH262466   4.625   3.083  16.390  0.3393 -0.1860  0.1178
13684TIP3    H162467   4.664   3.157  16.343  0.0028 -0.3803 -0.4842
13684TIP3    H262468   4.543   3.117  16.425  1.0277  0.2211  1.3781
13685TIP3   OH262469   0.071   4.639   0.036  0.3618 -0.2802  0.7392
13685TIP3    H162470   0.064   4.630   0.131  0.8625 -0.6923  0.7394
13685TIP3    H262471   0.157   4.678   0.022  1.4501 -2.7044  0.3187
13686TIP3   OH262472   3.990   3.568   0.583  0.3721  0.4546  0.0041
13686TIP3    H162473   4.058   3.633   0.597 -1.0121  2.2126 -0.9132
13686TIP3    H262474   3.972   3.572   0.488 -1.0244  0.1256  0.2283
13687TIP3   OH262475   3.808   2.788   0.410  0.1442 -0.0455  0.3615
13687TIP3    H162476   3.826   2.877   0.442 -0.1538  0.6152 -1.2221
13687TIP3    H262477   3.715   2.789   0.387  0.4459 -0.3544 -0.9103
13688TIP3   OH262478   6.503   6.640   5.212  0.1530  0.0814  0.9589
13688TIP3    H162479   6.578   6.663   5.158  0.3259 -0.9753  0.7310
13688TIP3    H262480   6.437   6.706   5.189  0.2425 -0.2965 -0.5132
13689TIP3   OH262481   1.194   3.718   4.549 -0.0027 -0.0110 -0.2111
13689TIP3    H162482   1.280   3.717   4.507 -0.3725 -0.2683 -0.9802
13689TIP3    H262483   1.213   3.721   4.643  0.8449 -0.6928 -0.3537
13690TIP3   OH262484   2.510   2.058  15.958 -0.0040  0.0050 -0.4958
13690TIP3    H162485   2.439   2.121  15.957 -0.6319 -0.5757  1.9552
13690TIP3    H262486   2.535   2.049  16.050  1.5734 -1.6560 -0.9993
13691TIP3   OH262487   5.476   0.540   4.617 -0.0706  0.2446  0.7361
13691TIP3    H162488   5.443   0.613   4.670  0.6956  0.6979  0.6094
13691TIP3    H262489   5.513   0.479   4.680 -1.4237 -0.4366  0.9096
13692TIP3   OH262490   2.584   6.349   3.804  0.1992 -0.0943  0.6247
13692TIP3    H162491   2.537   6.265   3.800  1.9920 -1.1407  0.0442
13692TIP3    H262492   2.586   6.379   3.713 -1.2233  1.0809  0.9542
13693TIP3   OH262493   4.270   2.032   6.458 -0.5723  0.9030  0.2032
13693TIP3    H162494   4.207   2.082   6.510 -0.7523 -0.5477  1.4493
13693TIP3    H262495   4.256   1.941   6.484  0.3277  0.2760 -1.3619
13694TIP3   OH262496   6.515   3.738  12.471  0.0541  0.0453 -0.3948
13694TIP3    H162497   6.569   3.743  12.550 -0.0534 -1.0093 -0.2516
13694TIP3    H262498   6.577   3.718  12.401 -0.2764 -2.5285 -0.0275
13695TIP3   OH262499   2.433   4.515  16.982  0.6806 -0.1742  0.5333
13695TIP3    H162500   2.361   4.539  16.924  0.2796  0.8192  1.4203
13695TIP3    H262501   2.429   4.419  16.986  1.0294 -0.3225 -1.4299
13696TIP3   OH262502   0.447   0.729  15.052  0.2119 -0.4454 -0.2493
13696TIP3    H162503   0.372   0.789  15.046  1.3048  1.0227  0.2267
13696TIP3    H262504   0.480   0.740  15.141  0.4217 -1.8008 -0.1467
13697TIP3   OH262505   2.737   0.790   4.660  0.2077 -0.4363  0.4230
13697TIP3    H162506   2.789   0.871   4.662 -0.5222  0.0500  0.2826
13697TIP3    H262507   2.801   0.720   4.666  0.9064  0.1444 -0.0298
13698TIP3   OH262508   6.711   5.027  16.967 -0.5767  0.4459 -0.2241
13698TIP3    H162509   6.646   4.956  16.971 -0.4314  0.3796  3.0791
13698TIP3    H262510   6.700   5.075  17.049  2.8849  1.0046  0.0633
13699TIP3   OH262511   0.548   6.689  16.332 -0.6776  0.5212 -0.4731
13699TIP3    H162512   0.529   6.605  16.290  1.6019  0.0264 -0.6756
13699TIP3    H262513   0.547   6.669  16.426 -1.0094  0.4877 -0.4821
13700TIP3   OH262514   1.059   3.304  14.756  0.5143  0.0640 -0.0573
13700TIP3    H162515   1.046   3.223  14.707  3.2192 -0.2152 -0.4521
13700TIP3    H262516   1.080   3.369  14.689  2.0486  0.1985  0.5295
13701TIP3   OH262517   0.717   3.531  10.559  0.0216  0.3352  0.2987
13701TIP3    H162518   0.790   3.592  10.562 -1.3235  2.1448 -1.1452
13701TIP3    H262519   0.723   3.489  10.473 -0.4961  0.3229  0.2652
13702TIP3   OH262520   5.400   0.926   0.861 -0.1286 -0.6005 -0.2167
13702TIP3    H162521   5.318   0.965   0.832  0.2419  1.3401  1.1646
13702TIP3    H262522   5.379   0.834   0.878 -1.5496 -0.5561 -1.5555
13703TIP3   OH262523   2.726   6.311   5.390 -0.0884  0.1479  0.6910
13703TIP3    H162524   2.726   6.227   5.435 -1.1641 -0.1688  0.1263
13703TIP3    H262525   2.636   6.323   5.360  0.2006  1.1806  0.1751
13704TIP3   OH262526   2.836   0.940  12.827  0.4015 -0.5213 -0.0075
13704TIP3    H162527   2.817   0.846  12.831 -1.2698 -0.1922  0.5284
13704TIP3    H262528   2.777   0.979  12.891  0.2666  1.0078 -1.0041
13705TIP3   OH262529   1.420   1.613   0.322 -0.1759 -0.1793 -0.0371
13705TIP3    H162530   1.408   1.523   0.353  3.0795 -0.3245  1.1688
13705TIP3    H262531   1.469   1.656   0.392  0.1072  1.9644 -1.4619
13706TIP3   OH262532   1.682   4.145   5.051 -0.2190  0.4279  0.0868
13706TIP3    H162533   1.709   4.194   5.129  0.0917 -0.4473  0.5409
13706TIP3    H262534   1.592   4.173   5.035 -0.0958  1.0365  0.4233
13707TIP3   OH262535   0.957   4.443  12.403 -0.2609  0.3578  0.9226
13707TIP3    H162536   0.878   4.468  12.356  0.6493  1.9898  0.1556
13707TIP3    H262537   0.982   4.358  12.366  1.0458  2.0549 -2.5497
13708TIP3   OH262538   0.801   0.629   3.929 -0.6083  0.2760 -0.0442
13708TIP3    H162539   0.847   0.674   3.999  1.0907 -1.2073 -0.1182
13708TIP3    H262540   0.784   0.697   3.864  1.2036  0.9916  0.1604
13709TIP3   OH262541   5.356   3.074  15.776 -0.2613 -0.1270 -0.3239
13709TIP3    H162542   5.428   3.092  15.835  0.9102 -1.3138 -1.3367
13709TIP3    H262543   5.356   2.979  15.766 -1.8045 -0.1304 -0.5597
13710TIP3   OH262544   6.720   6.128  16.469 -0.2589  0.2440  0.6779
13710TIP3    H162545   6.627   6.134  16.448  0.0507  3.3908 -0.3019
13710TIP3    H262546   6.752   6.217  16.461  3.1223 -0.9137 -0.1460
13711TIP3   OH262547   4.007   5.350   2.038  0.1154  0.2548  0.6688
13711TIP3    H162548   3.992   5.439   2.069 -0.5403  0.1707  0.5995
13711TIP3    H262549   4.065   5.361   1.962  0.9341  0.5309  1.3204
13712TIP3   OH262550   0.020   5.987   4.880 -0.0423  0.1366 -0.2416
13712TIP3    H162551  -0.010   6.043   4.951  0.3452 -0.8519  0.7305
13712TIP3    H262552   0.072   6.045   4.824  1.3980  0.5193  1.4144
13713TIP3   OH262553   0.708   2.578   0.105  0.4767 -0.1533 -0.5019
13713TIP3    H162554   0.666   2.553   0.023 -0.3572  2.0601 -0.8148
13713TIP3    H262555   0.758   2.657   0.084  0.9240 -0.0114  0.9361
13714TIP3   OH262556   6.619   1.510  11.392  0.6548 -0.0195  0.0986
13714TIP3    H162557   6.711   1.529  11.373  0.5692  0.0923 -0.2056
13714TIP3    H262558   6.571   1.585  11.358  0.3180 -0.7413 -1.0875
13715TIP3   OH262559   0.003   5.304  14.470 -0.0058 -0.1435 -0.4277
13715TIP3    H162560  -0.089   5.300  14.445 -0.5329 -0.1233  1.3445
13715TIP3    H262561   0.006   5.263  14.557  1.7272 -0.5204 -0.6268
13716TIP3   OH262562   2.487   3.445   2.098 -0.6194 -0.6496 -0.1901
13716TIP3    H162563   2.504   3.357   2.132  1.5233 -0.4535 -0.6032
13716TIP3    H262564   2.505   3.438   2.004  0.2387  0.3740 -0.1086
13717TIP3   OH262565   3.976   2.376   1.746  0.4861  0.6194 -0.3261
13717TIP3    H162566   4.060   2.345   1.781 -0.2194 -0.0220  0.8819
13717TIP3    H262567   3.965   2.328   1.664 -0.3158 -2.0399  1.2320
13718TIP3   OH262568   4.909   2.138   3.764 -0.9538  0.1495 -0.2019
13718TIP3    H162569   4.919   2.086   3.684 -0.4255 -1.0780  0.6284
13718TIP3    H262570   4.817   2.165   3.763 -0.7442  0.9058 -1.6508
13719TIP3   OH262571   4.592   2.305   4.062 -0.9955 -0.4819  0.7763
13719TIP3    H162572   4.622   2.387   4.102  0.1131  0.3690 -1.6335
13719TIP3    H262573   4.519   2.330   4.006 -0.4647 -1.0649 -0.2128
13720TIP3   OH262574   2.343   4.913   0.791  0.6452  0.3986  0.7588
13720TIP3    H162575   2.282   4.960   0.734  0.2996 -1.3266 -0.3830
13720TIP3    H262576   2.429   4.931   0.752  0.6097  0.7711  0.8453
13721TIP3   OH262577   5.186   6.534   3.570 -0.1234 -0.2582 -0.3549
13721TIP3    H162578   5.278   6.508   3.573  0.2161  0.5969 -2.2491
13721TIP3    H262579   5.177   6.599   3.641  0.5002 -0.9560  0.3802
13722TIP3   OH262580   5.836   2.292   0.240  0.6245  0.0658  0.4155
13722TIP3    H162581   5.780   2.333   0.306 -1.0118 -0.1475 -0.7808
13722TIP3    H262582   5.827   2.349   0.163  0.1379 -1.2393 -0.5417
13723TIP3   OH262583   3.761   4.219  12.316 -0.1757 -0.6637  0.2651
13723TIP3    H162584   3.798   4.167  12.388 -1.8334 -2.1689  0.0858
13723TIP3    H262585   3.667   4.220  12.332 -0.4483  0.0941 -1.1919
13724TIP3   OH262586   4.983   6.789   5.220 -0.0404  0.3402 -0.1997
13724TIP3    H162587   5.076   6.788   5.239 -0.3872  0.5018  1.6944
13724TIP3    H262588   4.949   6.865   5.267 -1.1579  0.1720 -0.6913
13725TIP3   OH262589   5.985   6.555   2.126 -0.6129  0.5479 -0.1067
13725TIP3    H162590   5.921   6.583   2.191 -0.2018  0.7529  0.2158
13725TIP3    H262591   6.022   6.475   2.163 -1.1500  0.0625 -0.6053
13726TIP3   OH262592   5.990   1.771   2.480  0.2031  0.1456 -0.3784
13726TIP3    H162593   5.973   1.753   2.388 -1.0019 -0.7458 -0.0163
13726TIP3    H262594   6.015   1.686   2.517 -0.7305  0.1871  0.3914
13727TIP3   OH262595   5.626   0.225  11.597  0.0771  0.2031 -0.3824
13727TIP3    H162596   5.600   0.188  11.682 -1.7836  2.1966 -0.0356
13727TIP3    H262597   5.681   0.300  11.620  0.1897  0.3039 -0.9819
13728TIP3   OH262598   5.188   0.986  15.805 -0.1677  0.0414  0.6797
13728TIP3    H162599   5.211   1.051  15.871 -1.3163  1.4240 -0.2101
13728TIP3    H262600   5.162   1.038  15.729  1.8520 -1.4811 -1.1749
13729TIP3   OH262601   6.290   3.778   5.188 -0.1793 -0.4271 -0.4623
13729TIP3    H162602   6.254   3.853   5.234  0.4905 -0.1609 -0.3634
13729TIP3    H262603   6.247   3.779   5.103 -1.5132 -0.9843  0.1684
13730TIP3   OH262604   6.448   5.817   5.185  0.2531  0.4326 -0.4852
13730TIP3    H162605   6.542   5.802   5.181  0.1496 -0.2503 -0.4984
13730TIP3    H262606   6.421   5.828   5.094  0.1931 -0.2633 -0.5624
13731TIP3   OH262607   2.883   3.049  12.326  0.6000  0.0669  0.3437
13731TIP3    H162608   2.885   2.974  12.267 -0.9180  0.4423 -0.2388
13731TIP3    H262609   2.953   3.106  12.296 -0.1012  0.2126 -1.0807
13732TIP3   OH262610   2.635   0.963  11.763 -0.5034 -0.1077  0.2635
13732TIP3    H162611   2.678   0.907  11.828 -0.3402  1.6910  1.8133
13732TIP3    H262612   2.605   0.903  11.695  2.0363 -1.7620  0.4589
13733TIP3   OH262613   5.421   3.767  11.511  0.2592 -0.3913  0.1338
13733TIP3    H162614   5.435   3.695  11.572  1.1198 -0.1674  0.2210
13733TIP3    H262615   5.340   3.808  11.540  0.5503 -0.4121  1.0097
13734TIP3   OH262616   4.557   4.200  16.783 -0.8694 -0.2285 -0.4440
13734TIP3    H162617   4.511   4.149  16.717 -1.5861 -1.1436  0.7249
13734TIP3    H262618   4.599   4.271  16.734 -3.7296  0.8319 -1.5640
13735TIP3   OH262619   3.728   6.697  11.729 -0.5601  0.3309  0.2638
13735TIP3    H162620   3.712   6.784  11.764  1.3775  0.4069  1.0978
13735TIP3    H262621   3.754   6.645  11.805  1.3554 -0.1394 -0.6517
13736TIP3   OH262622   4.731   1.965   2.190 -0.2188  0.0831 -0.3261
13736TIP3    H162623   4.670   2.024   2.233 -0.8136 -0.2150 -0.7511
13736TIP3    H262624   4.787   2.021   2.138  0.1698  0.3999  0.4108
13737TIP3   OH262625   1.761   6.161   1.921 -0.6423  0.2608 -0.2262
13737TIP3    H162626   1.699   6.157   1.993  0.3297  3.8179  1.0182
13737TIP3    H262627   1.739   6.241   1.874  0.6648 -0.3656 -2.0459
13738TIP3   OH262628   2.220   3.288  13.061  0.2017 -0.3245 -0.1088
13738TIP3    H162629   2.131   3.265  13.034 -0.1800  0.1208  0.7223
13738TIP3    H262630   2.233   3.242  13.144  0.0496  1.0398  0.7129
13739TIP3   OH262631   0.022   0.223   3.406 -0.0359 -0.4258 -0.0998
13739TIP3    H162632   0.014   0.317   3.392 -0.7735 -0.6447 -1.3394
13739TIP3    H262633   0.116   0.206   3.404  0.0557  0.0921 -1.4508
13740TIP3   OH262634   2.971   6.326   3.310  0.4564  0.8150 -0.0957
13740TIP3    H162635   2.891   6.284   3.341 -0.5986  2.1144 -0.9018
13740TIP3    H262636   3.040   6.292   3.367 -0.7718  0.1881  1.0885
13741TIP3   OH262637   5.163   5.756   0.216  0.0093  0.0103 -0.3053
13741TIP3    H162638   5.185   5.681   0.161  2.0091  0.7832 -0.6243
13741TIP3    H262639   5.247   5.788   0.248 -0.9895  0.4494  2.1051
13742TIP3   OH262640   2.822   6.452   0.503  0.6933 -0.0825 -0.2057
13742TIP3    H162641   2.818   6.474   0.596 -1.1390 -0.8761 -0.0590
13742TIP3    H262642   2.857   6.530   0.461  0.1923  0.8105  0.9952
13743TIP3   OH262643   5.617   2.762   0.768  0.1683 -0.2286  0.2529
13743TIP3    H162644   5.651   2.804   0.690 -0.8910 -0.9249 -0.6141
13743TIP3    H262645   5.523   2.779   0.766  0.1682  0.1091  1.6218
13744TIP3   OH262646   2.744   3.688   4.659  0.1514  0.7873 -0.1470
13744TIP3    H162647   2.704   3.767   4.624  0.1293  1.2840  0.9391
13744TIP3    H262648   2.749   3.628   4.585 -2.4074  0.7688 -0.3929
13745TIP3   OH262649   5.682   6.008   5.358  0.6384 -0.1338  0.4287
13745TIP3    H162650   5.595   6.039   5.334  0.4477  0.5607  1.9171
13745TIP3    H262651   5.699   5.935   5.298 -1.0249 -0.3708  0.2011
13746TIP3   OH262652   0.653   1.579  14.471  0.8671  0.2438  0.0074
13746TIP3    H162653   0.690   1.648  14.527  1.3411  0.4237 -0.5140
13746TIP3    H262654   0.701   1.500  14.497  3.2380  0.8434 -2.0996
13747TIP3   OH262655   5.929   0.855   5.835  0.0651 -0.2293 -0.4267
13747TIP3    H162656   5.859   0.849   5.900  0.9237  0.8569  0.6431
13747TIP3    H262657   5.990   0.919   5.872  0.6943  0.2544 -2.2072
13748TIP3   OH262658   3.417   2.503  12.099 -0.0299 -0.1795 -0.0551
13748TIP3    H162659   3.473   2.542  12.032 -0.9544 -1.2828 -1.5189
13748TIP3    H262660   3.375   2.429  12.056 -1.6849 -0.1256  1.3326
13749TIP3   OH262661   1.226   0.690  15.140  0.4712 -0.7831  0.4243
13749TIP3    H162662   1.232   0.602  15.176  1.5535 -1.0483 -0.3565
13749TIP3    H262663   1.172   0.681  15.061 -1.3717 -0.3123  1.5707
13750TIP3   OH262664   2.483   5.526   3.641  0.3891  0.4274  0.3963
13750TIP3    H162665   2.533   5.527   3.723 -0.5263  1.5550  0.9789
13750TIP3    H262666   2.407   5.471   3.661  0.3552  0.3978  0.1818
13751TIP3   OH262667   3.410   2.980  16.829 -0.1070  0.0258  0.0015
13751TIP3    H162668   3.470   3.033  16.777 -0.0298 -0.5113 -0.4670
13751TIP3    H262669   3.466   2.923  16.881 -0.1732  0.7640  0.9218
13752TIP3   OH262670   5.726   3.303   5.621  0.2304 -0.1137 -0.6323
13752TIP3    H162671   5.757   3.371   5.681  1.9178 -0.8479 -0.6169
13752TIP3    H262672   5.648   3.266   5.664  0.0859  0.8905 -0.0100
13753TIP3   OH262673   1.086   3.714  17.022  0.2779  0.3254 -0.2885
13753TIP3    H162674   1.164   3.699  16.968  0.3350 -0.0629 -0.1009
13753TIP3    H262675   1.098   3.802  17.056  0.0365  0.7469 -1.2437
13754TIP3   OH262676   0.339   0.718   5.521 -0.1120 -0.7664 -0.2900
13754TIP3    H162677   0.295   0.780   5.579  0.3970 -0.1935 -0.5116
13754TIP3    H262678   0.279   0.643   5.516  0.3229 -1.3376  1.8804
13755TIP3   OH262679   2.393   3.446  15.779  0.1933  0.4031  0.2094
13755TIP3    H162680   2.346   3.382  15.833  3.3741 -1.3873  1.1343
13755TIP3    H262681   2.426   3.510  15.842  2.3384 -0.6576  0.2586
13756TIP3   OH262682   5.132   2.430   2.256 -0.4589 -0.1944 -0.3393
13756TIP3    H162683   5.057   2.489   2.249 -0.2887 -0.1102 -1.7095
13756TIP3    H262684   5.201   2.473   2.206  0.2586 -0.6546  0.2432
13757TIP3   OH262685   0.474   3.691   4.964 -0.5555 -0.3844  0.1035
13757TIP3    H162686   0.459   3.767   4.907  0.6965 -0.3660 -0.2395
13757TIP3    H262687   0.569   3.689   4.976 -0.6377 -1.4929  0.6765
13758TIP3   OH262688   5.063   4.149   4.324  0.3159 -0.5643  0.9047
13758TIP3    H162689   4.993   4.145   4.388 -0.2857 -1.8940  0.2114
13758TIP3    H262690   5.054   4.068   4.273  0.7501  0.4436 -0.8662
13759TIP3   OH262691   1.856   6.497  12.371 -0.3633  0.2616  0.0331
13759TIP3    H162692   1.771   6.534  12.348 -0.5730  0.0317  0.4375
13759TIP3    H262693   1.870   6.427  12.307  0.2513  1.3328 -1.0388
13760TIP3   OH262694   1.218   0.090   1.640  0.6329 -0.4916  0.3729
13760TIP3    H162695   1.268   0.157   1.593 -1.0107  0.7235  0.2559
13760TIP3    H262696   1.164   0.048   1.573  0.0995 -0.4639  0.7732
13761TIP3   OH262697   3.622   1.646   0.723 -0.7495 -0.1388 -0.1021
13761TIP3    H162698   3.589   1.711   0.785 -0.4940 -0.0238 -0.0867
13761TIP3    H262699   3.681   1.694   0.665 -0.6902 -0.3211 -0.1958
13762TIP3   OH262700   2.706   0.765  16.626  0.1059  0.4567 -0.5533
13762TIP3    H162701   2.675   0.791  16.539 -0.4633  0.2389 -0.4207
13762TIP3    H262702   2.651   0.816  16.686 -0.6804 -0.6604 -0.2995
13763TIP3   OH262703   3.476   3.295  11.240  0.2879 -0.2600  0.4869
13763TIP3    H162704   3.519   3.369  11.196 -1.3179  0.8076  0.6081
13763TIP3    H262705   3.539   3.224  11.236  1.1491  0.5542 -1.3342
13764TIP3   OH262706   3.618   0.210  15.003 -0.2435  0.2836 -0.1220
13764TIP3    H162707   3.561   0.283  14.979 -0.3522  0.7425  1.4121
13764TIP3    H262708   3.688   0.250  15.055  0.6707 -0.4792 -0.7343
13765TIP3   OH262709   6.809   3.691   4.138 -0.3409  0.1255  0.0345
13765TIP3    H162710   6.825   3.763   4.199  2.5177 -2.6690  3.0329
13765TIP3    H262711   6.879   3.698   4.073 -0.3094  0.2589  0.0825
13766TIP3   OH262712   5.068   4.773  11.980  0.3698  0.3572  0.2269
13766TIP3    H162713   4.997   4.711  11.962  0.1424  0.9467 -1.0905
13766TIP3    H262714   5.065   4.786  12.075 -0.8061 -0.2062  0.2934
13767TIP3   OH262715   2.377   1.345  11.843 -0.1181  0.2260  0.6867
13767TIP3    H162716   2.321   1.420  11.822  1.6747  1.4671  0.1353
13767TIP3    H262717   2.377   1.341  11.939  1.1327  2.0465  0.7936
13768TIP3   OH262718   4.614   1.528  12.210 -0.4350  0.0628  0.3754
13768TIP3    H162719   4.697   1.573  12.231  1.1575 -2.6627  0.3784
13768TIP3    H262720   4.609   1.532  12.114 -1.7245  2.4517  0.4650
13769TIP3   OH262721   3.482   1.238  10.961  0.1214 -0.3737  0.5778
13769TIP3    H162722   3.537   1.295  11.014 -0.7724 -0.4700  1.6562
13769TIP3    H262723   3.465   1.288  10.882 -0.4332  0.7812  1.3908
13770TIP3   OH262724   6.211   0.071   3.116 -0.2420 -0.4869  0.0023
13770TIP3    H162725   6.209   0.107   3.028 -1.9056 -2.4420 -0.8458
13770TIP3    H262726   6.299   0.035   3.125  0.6159  1.4980 -0.0408
13771TIP3   OH262727   4.414   2.102  12.466  0.0068  0.1677  0.5170
13771TIP3    H162728   4.395   2.018  12.424 -3.0810 -0.1677  2.2812
13771TIP3    H262729   4.419   2.082  12.559  0.9112  1.7297  0.8401
13772TIP3   OH262730   3.802   0.378   6.145 -0.1958  0.5439  0.1767
13772TIP3    H162731   3.722   0.421   6.174 -0.7129 -0.0571 -0.3233
13772TIP3    H262732   3.772   0.310   6.085  0.7731  1.0728 -0.9432
13773TIP3   OH262733   2.867   4.880  16.473  0.3948 -0.2645 -0.4331
13773TIP3    H162734   2.781   4.881  16.515  0.2902  0.0624 -0.6582
13773TIP3    H262735   2.929   4.874  16.546  0.1587 -1.2637 -0.3053
13774TIP3   OH262736   1.047   1.596  14.651 -0.2927  0.3873  0.0956
13774TIP3    H162737   1.034   1.677  14.602  0.0388  0.9593  0.9436
13774TIP3    H262738   1.143   1.585  14.653 -0.3005  0.3974  0.6523
13775TIP3   OH262739   6.200   2.420   4.356 -0.0291  0.3601 -0.2219
13775TIP3    H162740   6.289   2.449   4.336 -0.0532  0.0313 -0.8244
13775TIP3    H262741   6.160   2.495   4.401 -0.0095  1.1992 -1.5475
13776TIP3   OH262742   3.246   4.685   0.440  0.1735  0.0731  0.8047
13776TIP3    H162743   3.245   4.779   0.427  0.3891 -0.1261 -0.9594
13776TIP3    H262744   3.339   4.661   0.434  0.0856 -0.2962  0.8692
13777TIP3   OH262745   4.135   6.420  10.829  0.0147  0.1238 -0.1428
13777TIP3    H162746   4.113   6.506  10.866 -0.1561 -0.1170  0.3284
13777TIP3    H262747   4.141   6.435  10.735 -2.2478  0.2113 -0.3192
13778TIP3   OH262748   1.726   2.647  15.818 -0.0840  0.0634 -0.0610
13778TIP3    H162749   1.658   2.701  15.780 -1.0015 -1.0137 -0.0125
13778TIP3    H262750   1.679   2.578  15.864  0.9792 -1.9100 -1.7408
13779TIP3   OH262751   6.715   1.395   4.732  0.1320  0.1655  0.0296
13779TIP3    H162752   6.786   1.444   4.774  0.6408 -0.5570  0.0210
13779TIP3    H262753   6.638   1.450   4.745  0.6895  0.9848  0.0097
13780TIP3   OH262754   0.421   3.775  12.548 -0.0954 -0.3329 -0.7098
13780TIP3    H162755   0.497   3.819  12.587 -0.9646  1.7186 -1.2068
13780TIP3    H262756   0.373   3.845  12.505 -1.7052 -1.7762 -1.3434
13781TIP3   OH262757   1.727   2.870  12.374 -0.0690 -0.5960  0.0366
13781TIP3    H162758   1.699   2.937  12.311  1.2642 -1.9240 -2.0930
13781TIP3    H262759   1.661   2.873  12.444  0.4844  3.6460  0.6433
13782TIP3   OH262760   0.306   0.639  15.411  0.3116 -0.0162  0.1620
13782TIP3    H162761   0.288   0.714  15.356 -1.2691  0.6541  1.5165
13782TIP3    H262762   0.228   0.584  15.403 -1.0165  1.1700  3.3319
13783TIP3   OH262763   5.541   0.083  15.585 -0.3260 -0.5114  0.3480
13783TIP3    H162764   5.459   0.129  15.569 -0.5597 -0.7831  0.7341
13783TIP3    H262765   5.568   0.050  15.499 -0.4440 -0.1331  0.1657
13784TIP3   OH262766   5.171   6.173   2.096  0.4095 -0.2539  0.2119
13784TIP3    H162767   5.264   6.182   2.072  0.8537  0.9406  2.2050
13784TIP3    H262768   5.172   6.118   2.174 -0.5921 -0.3808  0.1471
13785TIP3   OH262769   5.409   1.194   0.783  0.6732  0.3560 -0.3111
13785TIP3    H162770   5.500   1.214   0.762  0.7402 -0.3900 -0.7634
13785TIP3    H262771   5.409   1.101   0.805  0.0950  0.4570  0.1442
13786TIP3   OH262772   5.983   5.992   2.115 -0.3529 -0.8840  0.3049
13786TIP3    H162773   6.039   6.059   2.076 -2.1727  1.1583  1.0244
13786TIP3    H262774   5.937   5.954   2.041  0.0892 -0.7849 -0.0302
13787TIP3   OH262775   5.247   1.992   1.417 -0.0163 -0.4185 -0.1257
13787TIP3    H162776   5.324   2.010   1.364 -0.8741 -0.6635 -1.5169
13787TIP3    H262777   5.281   1.961   1.500  1.5110  3.8884  1.0927
13788TIP3   OH262778   3.486   0.880   0.498  0.0558 -0.2673  0.5759
13788TIP3    H162779   3.433   0.814   0.453  0.6871  0.3761 -1.2300
13788TIP3    H262780   3.561   0.833   0.532  1.9666 -0.2157 -3.1102
13789TIP3   OH262781   5.469   6.338  15.196 -0.1820 -0.7412  0.2080
13789TIP3    H162782   5.520   6.265  15.162  0.4455 -0.5017  0.6277
13789TIP3    H262783   5.381   6.302  15.210 -0.3551 -0.9672 -1.2297
13790TIP3   OH262784   1.139   6.098   0.655  0.5181  0.0932 -0.9279
13790TIP3    H162785   1.233   6.104   0.639  0.7641  0.2108  0.4405
13790TIP3    H262786   1.120   6.004   0.656  0.3175  0.0891 -2.7352
13791TIP3   OH262787   0.872   3.581   5.993  0.1910  0.1458 -0.2748
13791TIP3    H162788   0.813   3.656   5.997  0.7023  0.5891 -0.8310
13791TIP3    H262789   0.906   3.582   5.903  1.3606  0.1549  0.1483
13792TIP3   OH262790   2.902   4.722  13.506  0.3249  0.2782 -0.0002
13792TIP3    H162791   2.886   4.805  13.551 -0.4729 -0.3409  0.8896
13792TIP3    H262792   2.949   4.668  13.570 -0.4246 -0.4566 -0.0514
13793TIP3   OH262793   5.058   0.970  10.912 -0.3763  0.2584 -0.4589
13793TIP3    H162794   5.024   0.993  10.999  0.4720 -2.5114  0.6998
13793TIP3    H262795   5.015   0.887  10.891 -0.7546  0.9929 -2.8645
13794TIP3   OH262796   1.740   2.548   3.181  0.1042  0.0747  0.6499
13794TIP3    H162797   1.657   2.595   3.176  1.3683  2.3555 -0.8054
13794TIP3    H262798   1.734   2.483   3.112 -0.1427  0.8488 -0.0795
13795TIP3   OH262799   6.328   0.614  16.162  0.3545  0.1208 -0.1543
13795TIP3    H162800   6.309   0.539  16.105 -0.6998  0.0907  0.2109
13795TIP3    H262801   6.420   0.603  16.186  0.7913  0.0691 -1.7460
13796TIP3   OH262802   1.260   3.643  15.177  0.0877 -0.6623  0.3419
13796TIP3    H162803   1.235   3.560  15.216 -0.9781 -0.7108 -0.4005
13796TIP3    H262804   1.319   3.683  15.240 -0.0536 -1.6045  1.0842
13797TIP3   OH262805   3.367   1.675   0.521 -0.1522  0.4240 -0.2381
13797TIP3    H162806   3.369   1.751   0.580 -1.5989 -1.3893  2.2967
13797TIP3    H262807   3.441   1.621   0.549 -0.3502 -0.0733 -0.6709
13798TIP3   OH262808   3.818   1.971   1.703  0.6260  0.1526 -0.4710
13798TIP3    H162809   3.840   2.003   1.791  0.1467  1.1626 -0.7032
13798TIP3    H262810   3.857   1.884   1.698  2.0838  0.7525  0.1490
13799TIP3   OH262811   2.809   0.313   2.900  0.7111 -0.1951 -0.1661
13799TIP3    H162812   2.856   0.234   2.872  1.1318  0.5200 -1.5502
13799TIP3    H262813   2.717   0.284   2.908  0.9547 -0.9683 -0.0263
13800TIP3   OH262814   5.486   6.204   2.028  0.2607 -0.2814 -0.1242
13800TIP3    H162815   5.492   6.114   1.998 -0.0438 -1.1098  2.1168
13800TIP3    H262816   5.507   6.257   1.951 -0.6045 -2.2103 -1.7721
13801TIP3   OH262817   2.167   4.247  12.625 -0.3978 -0.6358 -0.1359
13801TIP3    H162818   2.143   4.177  12.686 -1.0004  0.3013  0.7438
13801TIP3    H262819   2.154   4.209  12.538 -2.5099 -1.0493  0.3060
13802TIP3   OH262820   5.341   1.585  11.639 -0.0274  0.0638 -0.3609
13802TIP3    H162821   5.423   1.535  11.643 -0.9573 -1.6081 -0.9083
13802TIP3    H262822   5.335   1.615  11.548  0.7840  1.7088  0.0886
13803TIP3   OH262823   5.569   5.912   3.681 -0.1180  0.9813 -0.7520
13803TIP3    H162824   5.482   5.910   3.721 -0.4241  1.0519 -1.4125
13803TIP3    H262825   5.609   5.829   3.707 -0.4957  0.8129 -0.7084
13804TIP3   OH262826   3.076   6.552   4.296  0.7384  0.3501 -0.7342
13804TIP3    H162827   3.011   6.583   4.359  0.2601  1.5548 -1.7892
13804TIP3    H262828   3.039   6.470   4.263 -0.1604  0.8992 -1.1472
13805TIP3   OH262829   0.469   5.629  15.967  0.1845 -0.6101 -0.4019
13805TIP3    H162830   0.420   5.566  16.020 -1.9811  0.7261 -0.6815
13805TIP3    H262831   0.428   5.624  15.881  1.3074 -0.2230 -0.9748
13806TIP3   OH262832   6.325   5.561   3.704  0.1617  0.2094  0.2605
13806TIP3    H162833   6.412   5.547   3.741 -0.0031 -0.9546  0.2177
13806TIP3    H262834   6.290   5.474   3.689 -1.2582  0.6525  0.8195
13807TIP3   OH262835   6.407   5.003  14.961  0.0239  0.0294 -0.4055
13807TIP3    H162836   6.386   4.929  15.018 -0.9396  2.1503  2.2267
13807TIP3    H262837   6.503   5.005  14.961  0.0622 -0.9245 -0.1340
13808TIP3   OH262838   6.620   6.324   1.440  0.3324  0.0962  0.2515
13808TIP3    H162839   6.626   6.396   1.378  0.8037 -0.4500 -0.3576
13808TIP3    H262840   6.579   6.253   1.391 -1.9599  0.5451  1.4161
13809TIP3   OH262841   1.679   3.967  11.944 -0.2901 -0.2861  0.2881
13809TIP3    H162842   1.646   3.880  11.965 -0.8290  0.2193  1.6471
13809TIP3    H262843   1.602   4.024  11.950  0.0084  0.2668 -0.7993
13810TIP3   OH262844   4.321   5.604   5.248 -0.5092 -0.3512  0.6284
13810TIP3    H162845   4.275   5.612   5.331  0.0205  0.4940  0.8616
13810TIP3    H262846   4.323   5.693   5.213  0.6381 -0.4156  0.4760
13811TIP3   OH262847   6.133   3.355   3.334 -0.3531 -0.1548 -0.1652
13811TIP3    H162848   6.084   3.321   3.409 -0.8714 -0.3883 -0.6024
13811TIP3    H262849   6.072   3.347   3.260 -0.6816  2.0724 -0.2234
13812TIP3   OH262850   1.162   2.732  17.005 -0.1326  0.5429 -0.8915
13812TIP3    H162851   1.194   2.704  17.091 -1.4748 -2.1398 -1.1860
13812TIP3    H262852   1.140   2.825  17.017  1.3528  0.7014  1.1294
13813TIP3   OH262853   1.009   0.893  16.091  0.1505 -0.2814  0.4736
13813TIP3    H162854   1.070   0.833  16.048  1.8944  0.6071  1.6198
13813TIP3    H262855   0.923   0.852  16.079  0.7398 -0.8508 -2.4295
13814TIP3   OH262856   4.248   2.869   0.414 -0.9727  0.3782 -0.0678
13814TIP3    H162857   4.327   2.837   0.370 -0.0204  1.9198  0.4652
13814TIP3    H262858   4.190   2.792   0.417  0.5904 -0.8538 -0.2278
13815TIP3   OH262859   5.130   4.857   2.318 -0.0107  0.3069  0.4960
13815TIP3    H162860   5.186   4.889   2.247  0.4246 -0.2917  0.5648
13815TIP3    H262861   5.175   4.884   2.398  0.5944 -0.8518  0.5609
13816TIP3   OH262862   5.080   5.948  15.707 -0.1366 -0.3421  0.1293
13816TIP3    H162863   5.048   5.857  15.705 -0.3526 -0.2559 -1.1753
13816TIP3    H262864   5.100   5.968  15.615 -3.1453  1.9708 -0.1834
13817TIP3   OH262865   1.258   0.893  14.092  0.0817 -0.4791  0.1818
13817TIP3    H162866   1.223   0.825  14.150  0.4641 -1.0013 -0.1929
13817TIP3    H262867   1.305   0.952  14.151 -2.4227  0.9612  0.9069
13818TIP3   OH262868   2.081   5.038   0.178  0.4307 -0.9178  0.0627
13818TIP3    H162869   2.171   5.038   0.146 -0.5680  0.5345 -3.1045
13818TIP3    H262870   2.036   4.973   0.124 -0.3143 -2.3856  2.2810
13819TIP3   OH262871   5.609   4.099  14.519  0.2837  0.2272  0.0934
13819TIP3    H162872   5.515   4.086  14.501 -0.0024 -0.9432  2.1220
13819TIP3    H262873   5.644   4.131  14.436 -1.5704 -1.0771 -1.3143
13820TIP3   OH262874   5.718   6.468   5.685 -0.3146 -0.3230 -0.4171
13820TIP3    H162875   5.663   6.515   5.748 -0.5705  1.4602 -1.8830
13820TIP3    H262876   5.688   6.378   5.690 -0.8553 -0.0860  1.4312
13821TIP3   OH262877   0.632   6.069  14.353 -0.1114 -0.1493 -0.0488
13821TIP3    H162878   0.686   6.050  14.277  1.6135 -1.7567  1.4639
13821TIP3    H262879   0.572   5.995  14.360  0.9144 -0.9236  1.0708
13822TIP3   OH262880   5.527   5.005   0.580 -0.8711  0.3239  0.1966
13822TIP3    H162881   5.457   5.053   0.624 -1.4807 -0.1655 -0.2257
13822TIP3    H262882   5.608   5.043   0.615 -1.3441  0.5931  1.0138
13823TIP3   OH262883   2.385   3.682   5.312  0.2643 -0.2148 -0.0016
13823TIP3    H162884   2.424   3.663   5.398 -0.0737 -1.8043 -0.1816
13823TIP3    H262885   2.296   3.710   5.333 -0.0787 -1.3808  0.1315
13824TIP3   OH262886   4.445   0.154  15.033 -0.5164  0.4523 -0.1739
13824TIP3    H162887   4.443   0.061  15.013 -0.1927  0.2733  0.6188
13824TIP3    H262888   4.377   0.192  14.976 -1.7663 -0.4944  0.6440
13825TIP3   OH262889   0.410   4.409   5.631 -0.0974 -0.4548  0.0512
13825TIP3    H162890   0.331   4.383   5.678  0.2046  0.4148  1.0783
13825TIP3    H262891   0.424   4.500   5.657 -0.5030  0.4368 -2.5506
13826TIP3   OH262892   0.394   3.640  15.603 -0.4191 -0.0551 -0.3684
13826TIP3    H162893   0.463   3.707  15.607 -0.0439 -0.3701 -1.3535
13826TIP3    H262894   0.398   3.607  15.513 -2.3384  0.4238 -0.6777
13827TIP3   OH262895   5.701   0.161  14.096 -0.0633  0.2722  0.1853
13827TIP3    H162896   5.627   0.205  14.054  1.2504  3.3859  0.8341
13827TIP3    H262897   5.772   0.168  14.032 -0.1650 -2.6350 -0.4124
13828TIP3   OH262898   4.433   4.627   6.374 -0.4058  0.0045  0.2048
13828TIP3    H162899   4.348   4.669   6.361  0.1757  0.8389 -1.2327
13828TIP3    H262900   4.445   4.626   6.468 -1.3687  1.2103  0.3751
13829TIP3   OH262901   0.093   1.107   3.013 -1.0342  0.2161  0.0178
13829TIP3    H162902   0.025   1.051   2.975 -0.8086 -0.2218  0.2460
13829TIP3    H262903   0.114   1.169   2.944 -3.4382  2.0083  0.7361
13830TIP3   OH262904   2.340   3.811   6.106  0.3994 -0.1513  0.2264
13830TIP3    H162905   2.320   3.840   6.196  0.7839 -2.1760  1.0214
13830TIP3    H262906   2.434   3.791   6.108  0.3522 -0.4712 -0.5444
13831TIP3   OH262907   1.309   6.461  11.057 -0.6337 -0.2077 -0.3596
13831TIP3    H162908   1.235   6.461  11.118  0.9915  1.1765  1.7697
13831TIP3    H262909   1.317   6.552  11.029  1.6079  0.2181  1.3385
13832TIP3   OH262910   5.312   2.660  12.490 -0.1257  0.1783  0.0401
13832TIP3    H162911   5.396   2.692  12.456 -0.1951  1.5501  1.0768
13832TIP3    H262912   5.284   2.727  12.552 -1.4725 -0.7894  0.5298
13833TIP3   OH262913   4.349   4.814   4.882  0.9247 -0.0665  0.4824
13833TIP3    H162914   4.365   4.720   4.874  1.8804  0.1630 -0.3941
13833TIP3    H262915   4.405   4.841   4.955  2.2416  0.1763 -0.5874
13834TIP3   OH262916   6.380   1.010  14.948  0.3647  0.5564  0.1741
13834TIP3    H162917   6.321   1.016  15.023 -0.1649  0.8912 -0.2646
13834TIP3    H262918   6.389   0.916  14.932 -0.4502  0.5161 -0.0668
13835TIP3   OH262919   2.807   1.589   2.109 -0.1005  0.0587 -0.0207
13835TIP3    H162920   2.881   1.580   2.169 -0.1238  0.6049  0.0976
13835TIP3    H262921   2.733   1.613   2.165  0.0139  1.1788 -0.3203
13836TIP3   OH262922   2.450   0.634  16.479  0.0812 -0.2359  0.4853
13836TIP3    H162923   2.513   0.580  16.528  1.3195 -0.0082 -0.7907
13836TIP3    H262924   2.386   0.661  16.545  1.4189 -0.3231  1.8884
13837TIP3   OH262925   4.262   5.983  13.792  0.0887  0.1185 -0.3843
13837TIP3    H162926   4.294   5.897  13.818 -0.1658  0.1578  0.0754
13837TIP3    H262927   4.284   6.040  13.866  0.1159  0.4145 -0.6200
13838TIP3   OH262928   2.977   2.063  16.516 -0.0848  0.0269 -0.0030
13838TIP3    H162929   2.995   2.035  16.426  0.4287  0.5450 -0.0691
13838TIP3    H262930   2.882   2.069  16.520 -0.2433 -1.8937  0.0755
13839TIP3   OH262931   0.371   3.826  14.463 -0.1097  0.0432 -0.1805
13839TIP3    H162932   0.411   3.787  14.385 -1.4102 -0.9597 -0.3931
13839TIP3    H262933   0.344   3.913  14.435  0.7756  0.2566 -0.3988
13840TIP3   OH262934   5.027   6.611  14.918  0.0372 -0.1239  1.0295
13840TIP3    H162935   4.945   6.583  14.958 -0.2176 -0.3651  0.3545
13840TIP3    H262936   5.007   6.615  14.824  1.1238 -1.3382  0.7249
13841TIP3   OH262937   3.735   2.123   3.587  0.1831  0.0988 -0.1159
13841TIP3    H162938   3.681   2.195   3.622  0.8617  0.2315  0.6876
13841TIP3    H262939   3.673   2.052   3.570 -0.2179  0.1703  1.0096
13842TIP3   OH262940   1.326   3.856  12.645  0.1193  0.4336  0.2111
13842TIP3    H162941   1.320   3.869  12.550  1.4199  0.6957  0.1450
13842TIP3    H262942   1.401   3.798  12.657  0.5304  1.1183  1.1163
13843TIP3   OH262943   6.167   6.030  11.977  0.0135  0.2061  0.1574
13843TIP3    H162944   6.129   5.971  11.911 -0.5820  2.7795 -1.9895
13843TIP3    H262945   6.148   6.118  11.943  0.9244  1.6589  3.1406
13844TIP3   OH262946   3.071   3.804  10.955  0.2160  0.5144 -0.3458
13844TIP3    H162947   3.082   3.783  11.047  0.7909 -2.0331 -0.9133
13844TIP3    H262948   2.978   3.820  10.945  0.1862  1.0916  0.7023
13845TIP3   OH262949   1.796   6.331  14.618 -0.0744 -0.0181 -0.0533
13845TIP3    H162950   1.795   6.405  14.679  0.0925  0.1348 -0.2348
13845TIP3    H262951   1.889   6.316  14.601 -0.1222 -0.0640 -0.2709
13846TIP3   OH262952   1.707   5.861  12.067  0.0569  0.2786 -0.0670
13846TIP3    H162953   1.627   5.848  12.118 -1.2550  0.1602 -2.0747
13846TIP3    H262954   1.713   5.956  12.056 -1.2759  0.1895 -2.0527
13847TIP3   OH262955   5.281   2.054  10.997  0.1400 -0.1257 -0.0263
13847TIP3    H162956   5.334   2.033  11.074  0.7704 -0.8313 -0.6374
13847TIP3    H262957   5.309   1.991  10.930  0.1179  0.9357 -1.0682
13848TIP3   OH262958   1.394   2.512   6.283 -0.1110 -0.4735  0.0811
13848TIP3    H162959   1.375   2.435   6.337 -0.4477 -0.2420  0.2950
13848TIP3    H262960   1.308   2.540   6.250 -0.1972  0.7571  1.2792
13849TIP3   OH262961   1.828   5.356  12.651  0.2132  0.1910 -0.0052
13849TIP3    H162962   1.767   5.393  12.587 -0.1698  0.2055  0.3649
13849TIP3    H262963   1.773   5.305  12.710  0.5507  0.2478  0.3625
13850TIP3   OH262964   6.029   0.875  12.678 -0.2185  0.0291  0.6158
13850TIP3    H162965   6.097   0.862  12.745  0.9419  0.9639 -0.3316
13850TIP3    H262966   6.057   0.822  12.604  0.2315  1.4613 -0.2800
13851TIP3   OH262967   6.267   1.801  16.360 -0.3666 -0.4563 -1.3607
13851TIP3    H162968   6.279   1.866  16.429 -1.2543  0.0926 -1.7102
13851TIP3    H262969   6.239   1.852  16.284 -1.0379 -1.2399 -1.6526
13852TIP3   OH262970   5.148   1.515  15.212 -0.0051  0.0087  0.2305
13852TIP3    H162971   5.099   1.483  15.136 -0.7634  0.7142  0.3980
13852TIP3    H262972   5.128   1.452  15.281  1.4188 -1.1458 -0.3737
13853TIP3   OH262973   1.216   4.725   5.335 -0.1195 -0.3055  0.4094
13853TIP3    H162974   1.304   4.739   5.371 -0.1835  1.4032  0.0052
13853TIP3    H262975   1.231   4.701   5.244 -0.0663  1.3164 -0.0365
13854TIP3   OH262976   3.886   5.882   4.319 -0.2277  0.1541  0.0188
13854TIP3    H162977   3.980   5.864   4.326  0.1191  1.7995  0.2130
13854TIP3    H262978   3.850   5.858   4.405 -0.0224 -0.6364 -0.1124
13855TIP3   OH262979   5.608   5.177  15.579  0.1343 -0.0501  0.2227
13855TIP3    H162980   5.541   5.157  15.643 -0.0750  0.6332  0.2239
13855TIP3    H262981   5.564   5.167  15.494  0.5321 -1.4118  0.1430
13856TIP3   OH262982   3.470   0.802   0.933  0.1384  0.2622  0.5170
13856TIP3    H162983   3.384   0.760   0.942  0.1583  0.4760  1.8801
13856TIP3    H262984   3.453   0.877   0.876 -0.2738 -0.5094 -0.4078
13857TIP3   OH262985   2.970   6.280   1.732  0.6266  0.4750 -0.6313
13857TIP3    H162986   2.923   6.200   1.710 -1.8387  1.7456 -0.2589
13857TIP3    H262987   3.006   6.263   1.820  2.7942 -1.2597 -1.7386
13858TIP3   OH262988   6.452   2.377   2.216 -0.3572  0.2280 -0.0784
13858TIP3    H162989   6.392   2.391   2.143  1.2658  0.6887 -1.3910
13858TIP3    H262990   6.535   2.354   2.174 -0.2795 -3.4085  1.7197
13859TIP3   OH262991   0.248   4.073  14.359 -0.2983 -0.4660  0.4045
13859TIP3    H162992   0.219   4.154  14.400 -0.6639 -0.4795  0.1731
13859TIP3    H262993   0.259   4.095  14.266  0.9725 -0.3130  0.5715
13860TIP3   OH262994   0.487   3.344   4.433 -0.1595 -0.8924  0.7674
13860TIP3    H162995   0.456   3.257   4.459 -1.3300  0.2558  3.5751
13860TIP3    H262996   0.410   3.387   4.395  1.0452 -1.8386 -3.2472
13861TIP3   OH262997   0.942   0.191  14.313 -0.0350 -0.4013 -0.2298
13861TIP3    H162998   0.949   0.097  14.329 -0.1650 -0.4085 -0.2129
13861TIP3    H262999   0.884   0.198  14.238 -1.5616 -0.2627  0.9276
13862TIP3   OH263000   4.674   3.821  12.665  0.3645  0.1188  0.6219
13862TIP3    H163001   4.579   3.816  12.661  0.2786  1.7244 -0.2406
13862TIP3    H263002   4.703   3.730  12.665 -1.1486 -0.3932  0.4230
13863TIP3   OH263003   3.766   1.599  15.544  0.0652  0.0348  0.1590
13863TIP3    H163004   3.676   1.565  15.542  0.8000 -2.1158  0.7771
13863TIP3    H263005   3.760   1.679  15.596 -1.5130 -0.0194  0.1078
13864TIP3   OH263006   2.215   4.438  15.277 -0.0365  0.0921 -0.3226
13864TIP3    H163007   2.252   4.504  15.218 -1.3016  0.3956 -0.8055
13864TIP3    H263008   2.149   4.394  15.224  1.5683 -2.4114 -0.4305
13865TIP3   OH263009   4.902   4.781   3.925  0.2473  0.5312 -0.1816
13865TIP3    H163010   4.893   4.714   3.993 -1.2306  1.1940  0.3172
13865TIP3    H263011   4.901   4.864   3.973 -0.9707  1.0161 -1.0141
13866TIP3   OH263012   2.549   5.293  12.511 -0.1843 -0.1591  0.2365
13866TIP3    H163013   2.547   5.388  12.517  0.5331 -0.0492 -1.0423
13866TIP3    H263014   2.511   5.273  12.426 -0.4357 -1.0310  0.5419
13867TIP3   OH263015   1.165   3.074  13.155 -0.2041 -0.2060 -0.0222
13867TIP3    H163016   1.255   3.106  13.157  0.4052 -1.7507 -0.8191
13867TIP3    H263017   1.125   3.121  13.081  0.8158 -1.5514 -1.4894
13868TIP3   OH263018   3.062   4.893  10.888  0.2434 -0.0910 -0.0924
13868TIP3    H163019   3.146   4.916  10.847 -0.5674 -0.5694 -2.1511
13868TIP3    H263020   2.996   4.930  10.829 -1.0160  0.4474  1.5998
13869TIP3   OH263021   1.399   1.663  12.175 -0.4300 -0.4564  0.0733
13869TIP3    H163022   1.338   1.620  12.115  0.1380 -0.3882 -0.5622
13869TIP3    H263023   1.368   1.753  12.181 -0.4982 -0.4682 -0.1087
13870TIP3   OH263024   5.130   3.288   6.532 -0.1604 -0.4269  0.1496
13870TIP3    H163025   5.112   3.364   6.587 -0.2132 -0.1665 -0.2240
13870TIP3    H263026   5.185   3.232   6.587 -0.6042 -0.3925  0.6390
13871TIP3   OH263027   1.140   0.658   4.195  0.6153 -0.1272 -0.2399
13871TIP3    H163028   1.063   0.713   4.209  0.4976 -0.4286  0.3033
13871TIP3    H263029   1.183   0.697   4.118 -1.1583 -1.1953 -1.8404
13872TIP3   OH263030   3.546   1.897  12.181  0.3920  0.3590 -0.8053
13872TIP3    H163031   3.479   1.829  12.179  0.9338 -0.1747 -1.4610
13872TIP3    H263032   3.628   1.849  12.169  1.2985  0.5727  3.1349
13873TIP3   OH263033   0.056   2.912  10.760  0.0290  0.1390 -0.3728
13873TIP3    H163034  -0.013   2.944  10.818 -0.2923  0.6444 -1.0222
13873TIP3    H263035   0.078   2.988  10.705  0.6737 -0.1909 -0.5745
13874TIP3   OH263036   4.890   5.020   3.407 -0.4399  0.1344  0.0137
13874TIP3    H163037   4.807   5.058   3.435 -0.9727  1.1687 -2.6322
13874TIP3    H263038   4.934   5.091   3.361 -0.1768 -1.5887 -2.6215
13875TIP3   OH263039   5.474   1.322  10.988 -0.0826 -0.2450  0.0673
13875TIP3    H163040   5.453   1.255  11.053 -1.2660 -1.7529 -1.7771
13875TIP3    H263041   5.389   1.361  10.967  0.4818  1.2718  0.4729
13876TIP3   OH263042   4.372   4.457  14.403 -0.3552  0.2058 -0.4133
13876TIP3    H163043   4.327   4.434  14.484 -1.5959  0.4955 -0.9977
13876TIP3    H263044   4.454   4.408  14.406 -0.5688 -0.0974  0.8231
13877TIP3   OH263045   1.271   0.062   5.815 -0.3025 -0.2660  0.4493
13877TIP3    H163046   1.232  -0.023   5.794 -0.8831  0.0083  0.3962
13877TIP3    H263047   1.197   0.116   5.842 -0.5638  1.2945 -2.8761
13878TIP3   OH263048   2.315   3.510  16.638 -0.0118  0.2376  0.3345
13878TIP3    H163049   2.379   3.449  16.675 -0.4643  0.0013  0.7435
13878TIP3    H263050   2.317   3.492  16.544  0.1166 -0.1568  0.4088
13879TIP3   OH263051   2.437   1.216   6.043 -0.0161  0.5831 -0.5736
13879TIP3    H163052   2.456   1.300   6.086 -0.7645 -0.6455  2.3952
13879TIP3    H263053   2.460   1.231   5.951  3.0309  3.0074  0.4063
13880TIP3   OH263054   4.417   6.134   2.712  0.0441  0.0422 -0.0508
13880TIP3    H163055   4.472   6.106   2.639  0.9051 -1.2118  1.0234
13880TIP3    H263056   4.471   6.195   2.761 -0.6726  1.1802 -0.6374
13881TIP3   OH263057   4.536   1.749  16.459 -0.2953 -0.3236  0.3406
13881TIP3    H163058   4.588   1.685  16.509 -2.0015 -0.7345  1.6791
13881TIP3    H263059   4.459   1.700  16.431 -0.9471  0.7941  0.1585
13882TIP3   OH263060   4.043   5.106  11.945  0.4304 -0.1008 -0.1713
13882TIP3    H163061   3.976   5.114  12.013  0.8412 -1.4840  0.4394
13882TIP3    H263062   4.011   5.036  11.888  1.2847 -0.7155  0.0773
13883TIP3   OH263063   3.375   4.622  14.980  0.2512  0.2601 -0.0285
13883TIP3    H163064   3.311   4.678  14.936 -0.5778 -0.3999  0.3164
13883TIP3    H263065   3.357   4.635  15.074  1.1071  0.6202  0.0945
13884TIP3   OH263066   5.261   5.654   1.615 -0.2662  0.5080 -0.2974
13884TIP3    H163067   5.347   5.615   1.600 -0.9012 -1.1070  0.0736
13884TIP3    H263068   5.252   5.657   1.710  0.4874  3.3116 -0.2266
13885TIP3   OH263069   0.370   3.489  12.111  0.1155  0.4679  0.0771
13885TIP3    H163070   0.432   3.562  12.108  1.9164 -1.0150 -0.2977
13885TIP3    H263071   0.421   3.415  12.142 -1.5744 -0.7584  0.0972
13886TIP3   OH263072   0.658   4.903  15.020  0.1385  0.0039  0.1082
13886TIP3    H163073   0.704   4.906  15.104 -1.5016 -1.1023  1.1161
13886TIP3    H263074   0.567   4.926  15.043  0.1652  2.3891 -1.8278
13887TIP3   OH263075   0.156   1.929  13.340 -0.1666 -0.5777  0.6763
13887TIP3    H163076   0.228   1.916  13.279 -0.9894  0.6458 -0.6466
13887TIP3    H263077   0.105   1.849  13.335  0.5529 -1.0556  0.8662
13888TIP3   OH263078   2.550   0.864  12.357  0.3472  0.0568 -0.1347
13888TIP3    H163079   2.488   0.811  12.407  1.9692  0.2874  2.2998
13888TIP3    H263080   2.549   0.950  12.400  2.7165 -0.1003  0.3717
13889TIP3   OH263081   2.081   1.082  12.064  0.0781  0.1081 -0.1806
13889TIP3    H163082   2.021   1.050  12.131 -1.0847 -1.6901 -1.9424
13889TIP3    H263083   2.052   1.172  12.046 -1.5062 -0.4083 -0.3183
13890TIP3   OH263084   0.274   3.727   5.176  0.1747 -0.0337  0.0139
13890TIP3    H163085   0.280   3.729   5.272 -0.9589  0.3637  0.0884
13890TIP3    H263086   0.364   3.714   5.147  0.4345 -0.9638  1.1555
13891TIP3   OH263087   6.253   3.457  16.353 -0.1799  0.4594 -0.4343
13891TIP3    H163088   6.239   3.507  16.433  0.9234  1.7918 -1.0436
13891TIP3    H263089   6.169   3.464  16.306 -1.3609 -1.5540  1.1676
13892TIP3   OH263090   4.252   0.546   3.150  0.4926 -0.2633 -0.5795
13892TIP3    H163091   4.189   0.497   3.098 -0.8435  0.9748 -0.1832
13892TIP3    H263092   4.202   0.618   3.188  2.2571  1.1285 -0.7282
13893TIP3   OH263093   3.696   5.128  12.544  0.5356  0.0426 -0.2108
13893TIP3    H163094   3.614   5.153  12.588  0.8438 -0.7540  0.8610
13893TIP3    H263095   3.743   5.210  12.534  0.5673  0.2330  1.2277
13894TIP3   OH263096   4.331   4.767  12.454 -0.2713 -0.5020 -0.0319
13894TIP3    H163097   4.399   4.702  12.436  0.0057 -0.4315  0.7169
13894TIP3    H263098   4.255   4.737  12.404  0.2780 -0.6239 -0.8174
13895TIP3   OH263099   4.548   5.844  13.623  0.7229  0.3342 -0.0046
13895TIP3    H163100   4.500   5.925  13.606  0.5715  0.0968 -0.7447
13895TIP3    H263101   4.488   5.774  13.596 -0.3086 -0.2002  3.2499
13896TIP3   OH263102   3.387   4.978  15.663 -0.7778 -0.3381  0.7031
13896TIP3    H163103   3.460   5.040  15.667  0.0306 -1.0706 -1.6830
13896TIP3    H263104   3.319   5.020  15.717  0.7843  1.1434  1.6477
13897TIP3   OH263105   3.344   5.914   2.932  0.2344 -0.3554  0.0602
13897TIP3    H163106   3.295   5.833   2.919 -1.1192  0.3775  0.3566
13897TIP3    H263107   3.278   5.983   2.926  1.3063  0.7090  0.1101
13898TIP3   OH263108   2.801   1.989   5.504 -0.0392 -0.0030 -0.3720
13898TIP3    H163109   2.753   1.965   5.425 -2.1341  0.2738  0.7412
13898TIP3    H263110   2.774   2.080   5.521  0.0481 -0.1994  0.8830
13899TIP3   OH263111   4.244   3.784  12.191 -0.5079  1.0202 -0.4145
13899TIP3    H163112   4.225   3.804  12.283 -0.7409 -0.0416 -0.2063
13899TIP3    H263113   4.273   3.692  12.193 -4.8364 -0.6218 -1.8744
13900TIP3   OH263114   6.126   4.290  13.209 -0.0851 -0.2203 -0.1929
13900TIP3    H163115   6.046   4.275  13.158 -0.8560 -1.5563  1.3275
13900TIP3    H263116   6.095   4.319  13.295  1.1572  0.9394 -0.0958
13901TIP3   OH263117   5.251   3.017   2.684 -0.4848 -0.3419 -0.0158
13901TIP3    H163118   5.195   3.003   2.608 -0.7037  1.3668 -0.2167
13901TIP3    H263119   5.340   3.013   2.649 -0.5532 -0.7354 -0.1413
13902TIP3   OH263120   0.696   6.789  11.691 -0.7082  0.1064 -0.2801
13902TIP3    H163121   0.622   6.838  11.655 -0.9109  0.5943  0.7668
13902TIP3    H263122   0.768   6.852  11.693 -0.4657 -0.1545 -0.5867
13903TIP3   OH263123   2.819   1.770  16.342 -0.3961  0.5291  0.0294
13903TIP3    H163124   2.811   1.707  16.414  0.1976  1.0185  0.5335
13903TIP3    H263125   2.909   1.801  16.348 -0.6575  1.3465 -0.2776
13904TIP3   OH263126   2.997   5.733   4.734 -0.3163 -0.1741  0.7941
13904TIP3    H163127   2.910   5.747   4.770  0.6910  0.9149  3.0177
13904TIP3    H263128   3.048   5.699   4.807  1.6315  1.1907  0.1493
13905TIP3   OH263129   4.003   3.361   1.072 -0.0096 -0.0386  0.3455
13905TIP3    H163130   4.061   3.291   1.043  1.5741  1.0427  0.8148
13905TIP3    H263131   3.958   3.389   0.992  2.0566  0.8492 -0.5579
13906TIP3   OH263132   0.866   6.416  15.397 -0.0999  0.0875 -0.7876
13906TIP3    H163133   0.900   6.332  15.428 -3.4605 -0.4674  2.0957
13906TIP3    H263134   0.837   6.399  15.308 -0.2756 -1.7176 -0.4185
13907TIP3   OH263135   0.315   1.011  14.714  0.3752  0.1485 -0.0681
13907TIP3    H163136   0.224   1.041  14.720  0.0847 -0.6663 -0.2193
13907TIP3    H263137   0.367   1.091  14.720 -0.3816  0.7405 -1.0590
13908TIP3   OH263138   0.360   1.345  13.923 -0.8917  0.1082  0.1955
13908TIP3    H163139   0.403   1.412  13.975  0.9333 -0.8209 -0.0292
13908TIP3    H263140   0.412   1.340  13.842 -1.5614 -0.9145 -0.1948
13909TIP3   OH263141   2.502   5.117  16.539  0.3278  0.2871  1.0196
13909TIP3    H163142   2.467   5.117  16.628  0.6606  1.2769  1.1573
13909TIP3    H263143   2.597   5.121  16.550  0.3454  1.4513  0.6376
13910TIP3   OH263144   5.328   6.334  14.680  0.1235 -0.2059  0.4420
13910TIP3    H163145   5.418   6.368  14.682  0.1988 -0.3027 -0.5986
13910TIP3    H263146   5.286   6.374  14.756  0.5560  1.2692 -0.0585
13911TIP3   OH263147   3.664   1.656  12.549  0.6751 -0.1661 -0.1721
13911TIP3    H163148   3.647   1.729  12.489  0.6899  1.1229  1.3347
13911TIP3    H263149   3.602   1.669  12.621 -0.5928 -2.6867 -0.6773
13912TIP3   OH263150   5.404   2.269  13.254 -0.2460  0.1705 -0.1752
13912TIP3    H163151   5.346   2.253  13.180 -0.2619  0.6073 -0.2633
13912TIP3    H263152   5.381   2.358  13.283  0.0144  0.1422  0.1188
13913TIP3   OH263153   3.840   5.163   2.885  0.6113 -0.3427  0.3381
13913TIP3    H163154   3.818   5.070   2.895  0.1045 -0.2791 -0.1943
13913TIP3    H263155   3.923   5.163   2.837 -0.5266 -0.4840 -1.7251
13914TIP3   OH263156   2.059   4.245  14.735  0.0113 -1.0183 -0.2208
13914TIP3    H163157   1.982   4.299  14.753  0.7991  0.3532 -0.8012
13914TIP3    H263158   2.027   4.177  14.675 -0.9241 -0.9699  0.2086
13915TIP3   OH263159   1.506   1.199  11.012  0.1898  0.0837 -0.1492
13915TIP3    H163160   1.419   1.181  10.977 -0.2216 -0.4294  1.0690
13915TIP3    H263161   1.493   1.201  11.107  1.3945  0.6522  0.0192
13916TIP3   OH263162   1.607   1.895  16.777 -0.4247 -0.6997  0.2236
13916TIP3    H163163   1.697   1.925  16.759 -0.1268 -0.4188  1.9503
13916TIP3    H263164   1.554   1.974  16.771 -0.7636 -1.0440 -1.8403
13917TIP3   OH263165   4.313   4.922  12.727 -0.1031 -0.3515  0.6063
13917TIP3    H163166   4.315   4.872  12.646 -0.8598  1.6354 -0.6957
13917TIP3    H263167   4.396   4.969  12.729 -0.5078  0.3750  0.4691
13918TIP3   OH263168   3.757   2.910   1.208  0.5173 -0.2420  0.4471
13918TIP3    H163169   3.731   2.988   1.159  1.5961 -0.5880 -0.7334
13918TIP3    H263170   3.758   2.840   1.143 -1.0246 -1.4081  1.5976
13919TIP3   OH263171   1.867   0.525   1.760  0.1617  0.2230  0.3749
13919TIP3    H163172   1.932   0.595   1.749  0.0375  0.3099  0.1914
13919TIP3    H263173   1.789   0.570   1.794 -0.1226  0.2752 -0.3289
13920TIP3   OH263174   0.518   4.074  14.205 -0.0869  0.6881 -0.7541
13920TIP3    H163175   0.486   4.164  14.211 -1.4494  0.2143 -0.4844
13920TIP3    H263176   0.462   4.025  14.266  2.7597  0.1724  1.6581
13921TIP3   OH263177   3.957   2.051   0.213  0.7145  0.3861  0.1736
13921TIP3    H163178   3.996   2.006   0.289  0.4482  0.0454  0.1114
13921TIP3    H263179   3.899   2.117   0.252  0.9391  0.5319  0.2651
13922TIP3   OH263180   4.605   2.647   5.018 -0.3273  0.1397  0.8643
13922TIP3    H163181   4.630   2.707   5.089  2.5522 -0.9181  0.8957
13922TIP3    H263182   4.553   2.579   5.061 -0.2364  0.5255  1.5981
13923TIP3   OH263183   4.377   0.958  13.139 -0.5478  0.1160  0.6147
13923TIP3    H163184   4.414   0.964  13.051 -0.3925 -0.5126  0.6348
13923TIP3    H263185   4.443   0.912  13.191 -1.6735 -1.8177  0.4365
13924TIP3   OH263186   6.206   2.500   2.614 -0.1639 -0.5197  0.2850
13924TIP3    H163187   6.203   2.595   2.602 -3.9462 -0.7130 -2.2507
13924TIP3    H263188   6.288   2.474   2.573  0.7249  1.5551  0.5716
13925TIP3   OH263189   0.940   0.062   1.571 -0.3369  0.1566 -0.4531
13925TIP3    H163190   0.846   0.057   1.587 -0.1630 -0.4448  0.4480
13925TIP3    H263191   0.948   0.082   1.478 -1.3382 -0.6776 -0.7240
13926TIP3   OH263192   6.530   5.212   2.220  0.0563  0.1188  0.2795
13926TIP3    H163193   6.617   5.224   2.183 -0.0459 -0.6577 -0.2289
13926TIP3    H263194   6.474   5.270   2.168 -0.2947 -1.8313 -1.6283
13927TIP3   OH263195   5.908   0.653  10.916  0.2555  0.3176  0.1602
13927TIP3    H163196   5.896   0.724  10.854 -0.1895 -0.7670 -1.0349
13927TIP3    H263197   5.938   0.579  10.863  0.0811 -0.5712  1.2596
13928TIP3   OH263198   6.025   1.444   4.669  0.2539  0.4934 -1.2054
13928TIP3    H163199   5.967   1.423   4.742 -0.1464  1.0344 -1.3588
13928TIP3    H263200   6.113   1.421   4.700  0.1384  1.0944 -0.3987
13929TIP3   OH263201   0.109   0.060  13.119 -0.1804 -0.5582  0.3067
13929TIP3    H163202   0.101   0.152  13.091  1.3981 -0.4705  0.0427
13929TIP3    H263203   0.051   0.012  13.061 -0.1549  0.1490 -0.3233
13930TIP3   OH263204   2.020   2.862  15.243 -0.5113  0.5592  0.4881
13930TIP3    H163205   1.984   2.795  15.301  0.6577  0.2371  0.8812
13930TIP3    H263206   2.044   2.814  15.164 -0.7636  0.7368  0.3015
13931TIP3   OH263207   1.160   1.917   1.374  0.1455 -0.2187 -0.4410
13931TIP3    H163208   1.127   1.870   1.298 -0.2422 -0.4751 -0.1212
13931TIP3    H263209   1.184   2.003   1.341 -2.9194  0.8017 -0.3267
13932TIP3   OH263210   3.475   3.072  15.973 -0.1833 -0.2482  0.0918
13932TIP3    H163211   3.431   3.138  16.027 -1.8938 -0.8573 -0.5163
13932TIP3    H263212   3.443   2.988  16.006 -0.4852 -0.6588 -1.2047
13933TIP3   OH263213   3.666   5.408  10.151  0.0396  0.5172 -0.0161
13933TIP3    H163214   3.698   5.483  10.201 -0.2348 -0.7221  2.1461
13933TIP3    H263215   3.745   5.358  10.131  0.0426  0.4281  0.2117
13934TIP3   OH263216   5.784   3.022  17.068 -0.7233  0.5324 -0.8849
13934TIP3    H163217   5.707   2.987  17.021  0.8066 -1.8246 -1.8033
13934TIP3    H263218   5.858   2.997  17.013  1.1075 -1.4773  2.2438
13935TIP3   OH263219   0.100   5.846   1.527 -0.3106  0.0393 -0.1798
13935TIP3    H163220   0.178   5.811   1.568 -0.1836  1.9502  1.3745
13935TIP3    H263221   0.042   5.771   1.516  0.8134 -1.0128  0.8402
13936TIP3   OH263222   5.267   0.412   6.193  0.2589 -0.5961  0.5039
13936TIP3    H163223   5.325   0.476   6.151  0.7819 -1.4733 -0.1375
13936TIP3    H263224   5.309   0.395   6.278  0.6083 -0.7675  0.2975
13937TIP3   OH263225   4.343   4.970   5.740  0.0095  0.0929  0.6696
13937TIP3    H163226   4.423   4.929   5.706 -0.7668 -1.1796  0.3023
13937TIP3    H263227   4.365   4.997   5.829  0.7633 -0.5114  0.6721
13938TIP3   OH263228   3.331   5.992   2.626  0.2990  0.3432  0.0830
13938TIP3    H163229   3.382   5.934   2.683  0.5202  1.3414  0.9359
13938TIP3    H263230   3.240   5.972   2.648  0.2940 -1.1149 -1.1124
13939TIP3   OH263231   4.699   1.879   5.830 -0.3582 -0.2250 -0.1854
13939TIP3    H163232   4.736   1.958   5.791 -0.3523 -0.3208 -0.3771
13939TIP3    H263233   4.644   1.911   5.901  1.0171 -0.1507  0.8783
13940TIP3   OH263234   1.072   0.181  16.914 -0.1803  0.0272  0.0655
13940TIP3    H163235   1.097   0.265  16.952 -0.3193 -0.0800  0.3989
13940TIP3    H263236   0.977   0.176  16.928 -0.0149 -0.6604  1.0039
13941TIP3   OH263237   3.382   4.983   2.034 -0.1181  0.0216 -0.4798
13941TIP3    H163238   3.353   5.070   2.063 -1.2720  0.0348 -1.5862
13941TIP3    H263239   3.305   4.928   2.044  0.6821 -0.9580  0.4588
13942TIP3   OH263240   3.905   0.828  15.735  0.5340 -0.2137 -0.6612
13942TIP3    H163241   3.930   0.735  15.742  0.6269 -0.1065  0.8288
13942TIP3    H263242   3.872   0.838  15.646  0.1265 -1.7802 -0.7118
13943TIP3   OH263243   3.814   1.411   3.288  0.0890 -0.2806 -0.6173
13943TIP3    H163244   3.825   1.352   3.213 -1.5873 -0.7686 -0.5141
13943TIP3    H263245   3.720   1.407   3.308  0.4584  0.0947  1.3182
13944TIP3   OH263246   5.955   0.565  15.264  0.1064 -0.1144  0.5079
13944TIP3    H163247   5.889   0.624  15.300  0.3394 -0.8767  2.3050
13944TIP3    H263248   5.939   0.481  15.307  1.4103 -0.6674 -0.0131
13945TIP3   OH263249   3.531   5.620  15.329  0.0149 -0.0809 -0.2483
13945TIP3    H163250   3.488   5.536  15.344  0.0930 -0.4641 -1.9834
13945TIP3    H263251   3.459   5.680  15.306  0.1618 -0.2229 -1.1297
13946TIP3   OH263252   3.179   1.174  11.284  0.1900  0.1220  0.2562
13946TIP3    H163253   3.193   1.101  11.344 -0.1337 -0.3167 -0.1958
13946TIP3    H263254   3.265   1.215  11.277 -0.0699  1.1097  2.1892
13947TIP3   OH263255   5.850   2.991   4.225 -0.3862  0.4132  0.3249
13947TIP3    H163256   5.788   2.919   4.229  0.1665 -0.3185 -2.2595
13947TIP3    H263257   5.817   3.048   4.155  1.1725  0.6407 -0.2792
13948TIP3   OH263258   3.423   1.203  15.696  0.2104  0.0886 -0.2889
13948TIP3    H163259   3.399   1.289  15.730  2.1550 -0.1298  1.9443
13948TIP3    H263260   3.408   1.143  15.770  0.0808 -1.2848 -1.3848
13949TIP3   OH263261   3.184   3.721   1.611 -0.2438  0.3589 -0.5247
13949TIP3    H163262   3.121   3.654   1.582  1.0273 -0.8194 -0.6841
13949TIP3    H263263   3.219   3.757   1.529  0.2021  0.0940 -0.4571
13950TIP3   OH263264   4.631   4.100  13.482  0.2802  0.5582 -0.1618
13950TIP3    H163265   4.637   4.081  13.388 -0.5092  0.3469 -0.1748
13950TIP3    H263266   4.549   4.059  13.510  0.5052  0.6224  0.6239
13951TIP3   OH263267   5.716   5.436  15.705  0.0618  0.2640  0.0560
13951TIP3    H163268   5.778   5.473  15.768 -0.4284 -0.0948  0.7768
13951TIP3    H263269   5.651   5.392  15.760 -1.2282  1.2442 -0.6512
13952TIP3   OH263270   3.875   3.045   5.001 -0.2783 -0.0442 -0.8052
13952TIP3    H163271   3.891   3.128   4.956  0.3826 -0.0537 -0.6012
13952TIP3    H263272   3.904   2.978   4.938 -2.5007 -0.2264 -1.7062
13953TIP3   OH263273   2.894   4.912  14.360  0.0901  0.0436  0.0594
13953TIP3    H163274   2.872   4.820  14.376 -0.0932  0.1012  0.1391
13953TIP3    H263275   2.977   4.909  14.312  0.6268 -0.1436  0.9591
13954TIP3   OH263276   5.428   3.135   1.237  0.3430 -0.3788 -0.1905
13954TIP3    H163277   5.477   3.207   1.197 -3.7652  2.7319 -0.3156
13954TIP3    H263278   5.387   3.090   1.164 -2.1212  1.3249  0.0231
13955TIP3   OH263279   0.071   3.076  11.972  0.2533 -0.3577 -0.2136
13955TIP3    H163280   0.033   2.997  11.933 -0.6045  0.3428 -0.8338
13955TIP3    H263281   0.004   3.143  11.961  1.8277  1.0531 -1.7519
13956TIP3   OH263282   6.546   5.540   5.276 -0.0750 -0.0091 -0.4457
13956TIP3    H163283   6.638   5.567   5.272 -0.7451  2.6458  0.0870
13956TIP3    H263284   6.499   5.620   5.302 -2.2961 -1.7890  1.4288
13957TIP3   OH263285   5.872   4.665  13.095 -0.3100  0.1618 -0.2177
13957TIP3    H163286   5.930   4.607  13.046 -1.2826 -1.1099  0.0898
13957TIP3    H263287   5.835   4.724  13.030  0.5893  0.3712 -0.5529
13958TIP3   OH263288   2.248   4.266   0.265  0.2052 -0.1687  0.1256
13958TIP3    H163289   2.180   4.245   0.200  0.4633  0.3156 -0.3074
13958TIP3    H263290   2.229   4.355   0.291  0.5955 -0.0783  0.1023
13959TIP3   OH263291   6.257   4.434  11.327 -0.4305 -0.1990 -0.1230
13959TIP3    H163292   6.261   4.483  11.409  0.5406 -1.1929  0.4526
13959TIP3    H263293   6.265   4.501  11.259 -1.1112  0.6265  0.5771
13960TIP3   OH263294   0.247   5.662  15.057 -0.0893 -0.1394 -0.3570
13960TIP3    H163295   0.156   5.633  15.053 -0.1824 -0.0231  0.6973
13960TIP3    H263296   0.241   5.758  15.059 -0.0949 -0.1233  1.9753
13961TIP3   OH263297   1.604   6.257  14.014  0.1844  0.0124  0.3977
13961TIP3    H163298   1.636   6.167  14.012 -0.7344 -0.3744  1.7645
13961TIP3    H263299   1.527   6.254  14.070 -0.0375  1.6068  0.2300
13962TIP3   OH263300   5.585   0.905  13.073 -0.2964  0.1959  0.1841
13962TIP3    H163301   5.572   0.992  13.035  0.9626  0.5456  0.5090
13962TIP3    H263302   5.582   0.919  13.167 -0.6849 -0.2140  0.2330
13963TIP3   OH263303   6.525   3.489   2.510 -0.2793  0.0393  0.0074
13963TIP3    H163304   6.486   3.532   2.586  0.5222  2.4498 -0.8318
13963TIP3    H263305   6.488   3.401   2.510 -1.8631  0.6269  2.0034
13964TIP3   OH263306   4.825   2.161   4.216  0.0967 -0.4476  0.0217
13964TIP3    H163307   4.796   2.134   4.303  0.7052  0.8196  0.6510
13964TIP3    H263308   4.744   2.187   4.171 -0.1639 -0.5820  0.4080
13965TIP3   OH263309   6.434   5.376   4.807 -0.4300  0.4490  0.5443
13965TIP3    H163310   6.437   5.349   4.715  0.6583 -1.0302  0.9800
13965TIP3    H263311   6.466   5.466   4.805 -2.1304  1.0996 -0.7003
13966TIP3   OH263312   6.237   1.889   4.825 -0.1698  0.0211 -0.1182
13966TIP3    H163313   6.286   1.969   4.804 -0.7307  0.1955 -0.8153
13966TIP3    H263314   6.146   1.918   4.835  0.1054  0.0950  3.5085
13967TIP3   OH263315   6.321   1.227  13.942  0.3882 -0.4149  0.1274
13967TIP3    H163316   6.396   1.194  13.992  0.1766 -0.0069  0.7204
13967TIP3    H263317   6.331   1.187  13.855  0.2863 -1.8160  0.7312
13968TIP3   OH263318   0.972   3.504   3.601 -0.4600  0.5360  0.3230
13968TIP3    H163319   0.992   3.423   3.649 -0.7705  0.3938  0.2152
13968TIP3    H263320   0.958   3.569   3.669  0.1025  0.5781  0.4083
13969TIP3   OH263321   1.504   5.477   1.649  0.2804 -0.4763 -0.0009
13969TIP3    H163322   1.447   5.536   1.698  1.3159  1.8076 -1.3703
13969TIP3    H263323   1.591   5.492   1.686  0.4522 -1.7928  0.1700
13970TIP3   OH263324   0.403   5.768   3.687 -0.0071 -0.4260  0.5080
13970TIP3    H163325   0.369   5.828   3.620  0.2174 -0.0777  0.7041
13970TIP3    H263326   0.436   5.693   3.637 -0.2243 -0.3560  0.2577
13971TIP3   OH263327   3.178   0.067  15.751 -0.9988  0.5390  0.1133
13971TIP3    H163328   3.251   0.020  15.711  0.1450  2.7422 -0.5505
13971TIP3    H263329   3.171   0.031  15.839 -0.1200 -0.7484 -0.3137
13972TIP3   OH263330   0.287   0.177  14.340  0.1223  0.5546 -0.2007
13972TIP3    H163331   0.218   0.220  14.291 -1.0644  0.0963  1.0258
13972TIP3    H263332   0.340   0.133  14.273 -1.2365  0.2490 -1.1153
13973TIP3   OH263333   0.173   0.842  11.969 -0.1925 -0.3523 -0.3074
13973TIP3    H163334   0.221   0.795  11.901 -0.0548 -0.1274 -0.3635
13973TIP3    H263335   0.082   0.819  11.954 -0.1568 -0.3422 -0.5346
13974TIP3   OH263336   0.588   5.693   1.104  0.1771 -0.3173 -0.1217
13974TIP3    H163337   0.514   5.655   1.152  0.0066  1.3093  0.9709
13974TIP3    H263338   0.570   5.787   1.102  2.8112  0.3118  1.2880
13975TIP3   OH263339   2.720   6.778  11.796  0.0903  0.7206  0.3918
13975TIP3    H163340   2.713   6.687  11.824 -0.7224  0.2205 -1.3106
13975TIP3    H263341   2.630   6.807  11.786  0.2877  0.7319 -1.9723
13976TIP3   OH263342   6.163   1.133  16.801  0.5003 -0.2913  0.2372
13976TIP3    H163343   6.203   1.220  16.806 -0.1769  0.5511 -4.3574
13976TIP3    H263344   6.235   1.074  16.779  0.5241 -0.4411  0.6936
13977TIP3   OH263345   2.156   4.940  15.421 -0.3146  0.2145 -0.0989
13977TIP3    H163346   2.162   4.847  15.443  1.0833  0.3245  0.0669
13977TIP3    H263347   2.083   4.945  15.359  1.4690 -1.4871 -2.5369
13978TIP3   OH263348   2.503   2.533   0.742  0.1158  0.0985  0.1586
13978TIP3    H163349   2.490   2.534   0.837  0.0593 -1.1680  0.1764
13978TIP3    H263350   2.514   2.625   0.719 -1.3247  0.5643  1.1897
13979TIP3   OH263351   3.625   2.011   2.130  0.0719 -0.4404 -0.5771
13979TIP3    H163352   3.657   1.949   2.196 -1.6099  0.8480  1.5825
13979TIP3    H263353   3.547   1.968   2.093 -0.5310 -0.0525  0.2223
13980TIP3   OH263354   6.415   3.189   5.792  0.1189  0.2021 -0.1119
13980TIP3    H163355   6.508   3.197   5.814  0.0430 -1.8969  1.2777
13980TIP3    H263356   6.369   3.229   5.867 -0.1271  1.0417 -0.6937
13981TIP3   OH263357   2.428   1.506  14.478 -0.5798 -0.0752  0.1692
13981TIP3    H163358   2.478   1.545  14.550 -1.0645  1.2105 -0.1622
13981TIP3    H263359   2.337   1.510  14.507 -1.1534  3.0923 -1.5473
13982TIP3   OH263360   4.275   0.248  11.482  0.1576  0.3868 -0.4911
13982TIP3    H163361   4.180   0.256  11.483  0.0140 -0.7922 -1.8191
13982TIP3    H263362   4.292   0.156  11.500  1.2037  1.0291  2.3506
13983TIP3   OH263363   4.900   6.780  14.186 -0.2742 -0.1549 -0.2508
13983TIP3    H163364   4.881   6.782  14.093  1.8107 -0.5932 -0.7490
13983TIP3    H263365   4.820   6.811  14.228 -1.8534 -1.4905 -2.0671
13984TIP3   OH263366   6.537   3.288  12.613 -0.2291  0.6537  0.6495
13984TIP3    H163367   6.542   3.217  12.677  0.7518 -0.2337 -0.3725
13984TIP3    H263368   6.570   3.365  12.659 -0.1503  0.1826  1.3950
13985TIP3   OH263369   6.450   1.858   2.239  0.2002  0.2474  0.2874
13985TIP3    H163370   6.487   1.831   2.323 -2.8742  0.2901  1.7827
13985TIP3    H263371   6.370   1.806   2.231 -1.0705  2.3070 -1.2140
13986TIP3   OH263372   0.744   5.814   3.193  0.5021  0.1383 -0.3416
13986TIP3    H163373   0.751   5.719   3.179 -1.3103 -0.2223  0.8041
13986TIP3    H263374   0.688   5.844   3.122 -0.1191  0.0918  0.1244
13987TIP3   OH263375   6.621   3.931   4.948  0.9653  0.3723  0.6454
13987TIP3    H163376   6.708   3.913   4.982  0.3590 -1.7832  1.1878
13987TIP3    H263377   6.598   3.853   4.898 -0.4535  1.1263  0.0598
13988TIP3   OH263378   6.301   3.976  15.282  0.1678  0.3318  0.3536
13988TIP3    H163379   6.295   3.987  15.377 -0.4645  0.4657  0.3014
13988TIP3    H263380   6.218   3.935  15.257  0.4495  0.0279 -0.1046
13989TIP3   OH263381   6.224   0.143   0.834  0.0781 -0.2998 -0.0546
13989TIP3    H163382   6.163   0.080   0.872  0.3541  0.0638  1.0375
13989TIP3    H263383   6.270   0.180   0.909  0.7477  0.3558 -0.7650
13990TIP3   OH263384   1.331   2.383   2.479 -0.0688  0.4415 -0.3495
13990TIP3    H163385   1.405   2.376   2.539 -1.1474  1.1998  1.1430
13990TIP3    H263386   1.331   2.476   2.453 -1.4637  0.8595  1.0192
13991TIP3   OH263387   1.371   0.938   4.146 -0.5958 -0.7685 -0.1606
13991TIP3    H163388   1.311   0.942   4.072  0.0836 -0.6155 -0.7093
13991TIP3    H263389   1.396   0.846   4.152  0.0300 -0.6411 -0.6834
13992TIP3   OH263390   5.724   4.920  15.580  0.3104  0.6182  0.4586
13992TIP3    H163391   5.720   5.014  15.598 -0.6437  0.2764  2.3430
13992TIP3    H263392   5.750   4.881  15.664 -4.2817 -1.1479  1.3792
13993TIP3   OH263393   6.657   6.296   4.205  0.3209  1.0233  0.0432
13993TIP3    H163394   6.593   6.366   4.188 -2.0187 -1.1668 -0.9436
13993TIP3    H263395   6.695   6.278   4.119 -1.4928 -0.9938 -0.4075
13994TIP3   OH263396   2.040   2.810   1.222 -0.2499 -0.1225  0.4445
13994TIP3    H163397   2.108   2.778   1.283 -0.2537  1.3234  1.2467
13994TIP3    H263398   1.996   2.731   1.193 -0.5996 -0.8663  2.7608
13995TIP3   OH263399   1.367   2.907   0.028 -0.0104  0.1936  0.3957
13995TIP3    H163400   1.380   2.812   0.038  1.3563  0.2155 -0.7633
13995TIP3    H263401   1.437   2.946   0.081  1.2283  0.4631 -1.3604
13996TIP3   OH263402   5.713   0.837  11.907  0.0543  0.9812 -0.1942
13996TIP3    H163403   5.640   0.893  11.881  0.5204  2.3696  1.3379
13996TIP3    H263404   5.672   0.764  11.953 -0.4208  1.1442 -0.3506
13997TIP3   OH263405   4.894   6.600   0.715  0.1497 -0.7084  0.2336
13997TIP3    H163406   4.851   6.626   0.797  0.9519  0.3861  0.3370
13997TIP3    H263407   4.987   6.622   0.729  0.5099 -1.6686 -0.5193
13998TIP3   OH263408   1.927   0.560  12.918 -0.2273 -0.3434 -0.0639
13998TIP3    H163409   2.009   0.593  12.954  0.5650  0.0416 -2.0677
13998TIP3    H263410   1.954   0.499  12.849 -1.6392 -0.6713 -0.3594
13999TIP3   OH263411   1.317   2.855   5.186 -0.0737  0.0115  0.4986
13999TIP3    H163412   1.271   2.774   5.163  0.4039  0.1704 -1.1261
13999TIP3    H263413   1.410   2.833   5.176  0.0356  0.9753 -0.7846
14000TIP3   OH263414   2.815   1.474   6.390  0.0383  0.2487 -0.5822
14000TIP3    H163415   2.836   1.538   6.459  0.2304 -0.6153  0.1881
14000TIP3    H263416   2.895   1.423   6.380 -0.9051 -1.6588  0.8221
14001TIP3   OH263417   2.261   0.315  14.615 -0.1384 -0.3822 -0.1235
14001TIP3    H163418   2.340   0.279  14.654  0.4929  0.6317 -0.4272
14001TIP3    H263419   2.244   0.395  14.665 -0.5162 -0.1755 -0.5693
14002TIP3   OH263420   2.240   4.349   5.404  0.0410 -0.2417 -0.2300
14002TIP3    H163421   2.224   4.378   5.494  1.5503  1.9604 -0.5879
14002TIP3    H263422   2.212   4.423   5.350  0.0774 -1.1425 -1.5349
14003TIP3   OH263423   4.438   0.312   5.147 -0.2365  0.3601  0.3631
14003TIP3    H163424   4.346   0.287   5.136 -0.6400  1.6656  0.5906
14003TIP3    H263425   4.483   0.230   5.163 -1.6698 -0.1230  2.2616
14004TIP3   OH263426   1.881   5.352  16.939 -0.6325 -0.6086 -0.6083
14004TIP3    H163427   1.866   5.406  16.861 -0.0843  2.8563  1.4760
14004TIP3    H263428   1.794   5.340  16.977 -0.6954 -0.7069 -0.7824
14005TIP3   OH263429   5.733   0.647   1.331  0.0160 -0.3893 -0.1976
14005TIP3    H163430   5.657   0.588   1.340 -1.2690  1.1881 -0.1637
14005TIP3    H263431   5.714   0.696   1.251  1.4279 -0.4995 -0.6182
14006TIP3   OH263432   1.175   0.993  11.558  0.3243  0.0221 -0.5259
14006TIP3    H163433   1.090   1.027  11.588  1.7666  3.4724  0.1127
14006TIP3    H263434   1.161   0.974  11.465 -0.6895  2.6642 -1.0054
14007TIP3   OH263435   0.964   6.391   4.581  0.0782  0.0456 -0.6860
14007TIP3    H163436   0.890   6.332   4.566 -0.0274  0.1202 -0.4587
14007TIP3    H263437   0.924   6.478   4.588  0.3095  0.2618 -1.8326
14008TIP3   OH263438   3.327   4.830  15.407 -0.8855 -0.2671  0.2919
14008TIP3    H163439   3.353   4.872  15.489 -0.2524  2.2665 -1.1195
14008TIP3    H263440   3.251   4.879  15.378  0.3423  0.5270 -1.8027
14009TIP3   OH263441   5.407   5.677  13.827 -0.4648  0.0706  0.5094
14009TIP3    H163442   5.401   5.585  13.802  2.9603  0.8284 -4.4523
14009TIP3    H263443   5.323   5.715  13.798  0.1123 -0.7123 -2.5030
14010TIP3   OH263444   4.487   0.247  11.316  0.8455  0.6203 -0.0074
14010TIP3    H163445   4.402   0.250  11.361  0.0936  1.5137 -1.4082
14010TIP3    H263446   4.549   0.278  11.382 -0.0645  0.9384  0.7433
14011TIP3   OH263447   3.625   3.647  13.209 -0.2694  0.3933 -0.1962
14011TIP3    H163448   3.586   3.560  13.219  2.1852 -0.5801  2.2073
14011TIP3    H263449   3.702   3.632  13.153 -1.3306  1.6235 -2.0776
14012TIP3   OH263450   5.444   4.452  15.563  0.0333  0.5666 -0.3790
14012TIP3    H163451   5.518   4.461  15.624 -2.1681 -1.9122  3.0387
14012TIP3    H263452   5.399   4.537  15.567 -0.4400  0.2899  2.2154
14013TIP3   OH263453   0.508   0.151  11.572 -0.0261  0.1916  0.0010
14013TIP3    H163454   0.419   0.129  11.546  0.1447 -0.6589  0.1236
14013TIP3    H263455   0.499   0.234  11.619 -0.7419  0.1401 -0.0343
14014TIP3   OH263456   2.862   3.902  12.032  0.4044 -0.1800  0.2180
14014TIP3    H163457   2.806   3.941  12.099  0.5746 -0.0645  0.2929
14014TIP3    H263458   2.834   3.944  11.951 -0.4937 -1.0539  0.0593
14015TIP3   OH263459   4.071   6.042   0.553  0.2406  0.1843  0.2267
14015TIP3    H163460   4.049   6.113   0.492  1.4729 -0.8111 -1.4745
14015TIP3    H263461   4.150   6.073   0.598  0.1131  0.3462  0.3452
14016TIP3   OH263462   1.150   3.147   6.273 -0.3165  0.1938 -0.2861
14016TIP3    H163463   1.125   3.060   6.242 -0.6493  0.3190 -0.3756
14016TIP3    H263464   1.222   3.131   6.334  1.0776  0.0247 -1.9175
14017TIP3   OH263465   6.359   1.538  14.498  0.3643  0.1180 -0.2232
14017TIP3    H163466   6.323   1.522  14.410  0.6112 -0.9707 -0.1371
14017TIP3    H263467   6.443   1.580  14.482  1.7876 -2.7038 -0.6465
14018TIP3   OH263468   4.487   5.816   1.669 -0.3966 -0.4524 -0.6760
14018TIP3    H163469   4.555   5.863   1.718  0.2060 -1.6607 -0.2980
14018TIP3    H263470   4.421   5.882   1.650  0.2665  0.4720  0.1023
14019TIP3   OH263471   4.264   1.024  14.331 -0.0688  0.2417 -0.0098
14019TIP3    H163472   4.203   0.996  14.262  0.7670  1.3659 -1.2457
14019TIP3    H263473   4.229   0.985  14.411 -2.7072  1.2376 -0.5747
14020TIP3   OH263474   0.918   3.897  13.975 -0.0847  0.1231 -0.1054
14020TIP3    H163475   0.972   3.954  14.030 -0.8468  0.7725 -0.0161
14020TIP3    H263476   0.845   3.872  14.031 -0.2773 -0.1286 -0.4669
14021TIP3   OH263477   2.507   1.712  13.413  0.0142 -0.6222  0.0869
14021TIP3    H163478   2.443   1.710  13.342 -0.4159 -0.7173  0.4775
14021TIP3    H263479   2.522   1.620  13.434  1.5516 -0.7086 -1.1250
14022TIP3   OH263480   3.945   1.415  14.410 -0.1119 -0.2177  0.5167
14022TIP3    H163481   3.900   1.365  14.478  0.2729 -1.1850  0.0851
14022TIP3    H263482   4.022   1.451  14.454  1.2900 -2.5615  0.1901
14023TIP3   OH263483   5.004   5.850   1.758 -0.1967  0.2306  0.3094
14023TIP3    H163484   5.078   5.793   1.775 -0.0446  0.1868 -0.4653
14023TIP3    H263485   5.032   5.936   1.791 -0.1948 -0.0008  0.9227
14024TIP3   OH263486   2.038   0.627  10.881 -0.4839 -0.0073  0.0751
14024TIP3    H163487   2.065   0.616  10.972 -0.6847  1.7088  0.3730
14024TIP3    H263488   1.949   0.594  10.877 -0.0956 -1.0925  0.2411
14025TIP3   OH263489   4.401   1.008  14.961  0.2316 -0.0814  0.1498
14025TIP3    H163490   4.349   1.028  15.039 -0.1010 -0.1410 -0.0541
14025TIP3    H263491   4.410   0.913  14.962 -1.1044 -0.2434 -0.7139
14026TIP3   OH263492   3.486   0.505   0.093  0.5359 -0.5414  0.5242
14026TIP3    H163493   3.508   0.510   0.186  0.5850  0.4041  0.4703
14026TIP3    H263494   3.411   0.446   0.090 -1.1965  1.4494  1.5159
14027TIP3   OH263495   1.629   5.445  12.476  0.4039  0.1642  0.0465
14027TIP3    H163496   1.556   5.404  12.523  1.6454 -0.7753  1.2466
14027TIP3    H263497   1.625   5.537  12.500  0.2987 -0.0908  1.0315
14028TIP3   OH263498   1.617   5.714  15.143 -0.0080  0.0758 -0.0155
14028TIP3    H163499   1.611   5.810  15.145 -2.1330 -0.0237  2.3704
14028TIP3    H263500   1.698   5.695  15.190  0.3701  0.6641 -0.3988
14029TIP3   OH263501   2.124   2.102  14.752  0.2311  0.1436 -0.4193
14029TIP3    H163502   2.123   2.008  14.738  0.3063  0.2167 -0.9653
14029TIP3    H263503   2.047   2.120  14.805  0.9208 -0.3792  0.7934
14030TIP3   OH263504   5.783   3.256   4.906 -0.4022 -0.2633 -0.0239
14030TIP3    H163505   5.750   3.267   4.817  0.4088 -2.3721 -0.6477
14030TIP3    H263506   5.761   3.338   4.951 -0.3969  1.0429 -2.2839
14031TIP3   OH263507   4.136   0.351  16.882 -0.3488  0.1624  0.1466
14031TIP3    H163508   4.069   0.352  16.813  0.0149 -1.0166 -0.2491
14031TIP3    H263509   4.151   0.444  16.902 -1.3682  0.4792 -0.4650
14032TIP3   OH263510   5.779   0.722  13.579  0.2043 -0.2116 -0.3517
14032TIP3    H163511   5.713   0.668  13.536 -0.1279  0.8215 -1.1814
14032TIP3    H263512   5.838   0.749  13.509  0.4365  0.3906  0.0601
14033TIP3   OH263513   4.200   1.600   5.859  0.5231 -0.3676  0.7803
14033TIP3    H163514   4.243   1.685   5.874  2.9324 -1.3436 -0.1228
14033TIP3    H263515   4.164   1.576   5.945  0.7047  1.0855  1.2883
14034TIP3   OH263516   4.863   4.600  11.651  0.1605  0.2916 -0.1259
14034TIP3    H163517   4.787   4.634  11.604  0.2156 -1.8609 -1.9590
14034TIP3    H263518   4.936   4.615  11.591  0.2844 -2.2122 -0.7029
14035TIP3   OH263519   1.752   1.080   2.121 -0.4961  0.7885  0.5088
14035TIP3    H163520   1.764   0.995   2.165  1.7142  0.8165  0.0705
14035TIP3    H263521   1.664   1.108   2.147 -1.3221 -1.6572  0.6101
14036TIP3   OH263522   6.089   3.289   5.622 -0.0873  0.0506 -0.1413
14036TIP3    H163523   6.179   3.322   5.621  0.1266 -0.5224 -0.2026
14036TIP3    H263524   6.082   3.239   5.540 -0.5216  0.2557 -0.2288
14037TIP3   OH263525   2.071   5.810  17.128 -0.1945 -0.1674 -0.0264
14037TIP3    H163526   2.163   5.804  17.157 -0.4754  0.8184  1.1204
14037TIP3    H263527   2.041   5.719  17.128  0.2840 -0.3545  1.3363
14038TIP3   OH263528   1.441   3.104   2.382 -0.4180 -0.1405 -0.2869
14038TIP3    H163529   1.478   3.139   2.463 -2.5364  1.7624 -0.0450
14038TIP3    H263530   1.510   3.116   2.317  0.1907  1.2357  0.5694
14039TIP3   OH263531   1.357   5.257   2.424 -0.1093  0.2979 -0.3049
14039TIP3    H163532   1.329   5.338   2.467  2.8383  1.4518 -0.3298
14039TIP3    H263533   1.399   5.286   2.343 -0.8794 -1.4722 -1.4177
14040TIP3   OH263534   2.685   5.527   2.991 -0.0579  0.0456 -0.5337
14040TIP3    H163535   2.745   5.456   3.013  2.0352  1.8935  0.2056
14040TIP3    H263536   2.598   5.494   3.013  0.8878 -2.0684  0.2457
14041TIP3   OH263537   6.462   1.832  12.377 -0.2906 -0.1070 -0.0778
14041TIP3    H163538   6.429   1.893  12.311 -1.6692 -0.9122 -0.1487
14041TIP3    H263539   6.438   1.872  12.460  1.4648  0.9183 -0.0071
14042TIP3   OH263540   0.925   0.134   2.822  0.0670  0.0917 -0.0264
14042TIP3    H163541   0.976   0.061   2.786 -0.7964  0.2336 -1.6681
14042TIP3    H263542   0.983   0.210   2.814  0.1567 -0.0163 -0.4678
14043TIP3   OH263543   2.259   4.805  12.653 -0.4452  0.5000  0.1296
14043TIP3    H163544   2.226   4.720  12.682  0.8966  0.7704  2.7766
14043TIP3    H263545   2.349   4.789  12.626 -0.8433  0.7640 -1.4846
14044TIP3   OH263546   0.376   1.151   2.398  0.0214  0.0823  0.0125
14044TIP3    H163547   0.326   1.195   2.466  0.7933  1.1894 -0.1112
14044TIP3    H263548   0.397   1.065   2.435  0.2689  0.6028  1.1044
14045TIP3   OH263549   3.601   5.123  12.080 -0.1415 -0.1080 -0.2180
14045TIP3    H163550   3.684   5.108  12.125  0.6305  0.7173 -1.3354
14045TIP3    H263551   3.537   5.075  12.133  1.2574 -2.0968 -0.2023
14046TIP3   OH263552   1.058   3.943   5.976 -0.1780 -0.3020 -0.2603
14046TIP3    H163553   1.005   4.022   5.962 -0.8915 -0.5355  0.9934
14046TIP3    H263554   1.117   3.965   6.048  0.7432 -0.3925 -0.9674
14047TIP3   OH263555   2.260   0.926   0.422 -0.5715  0.0611 -0.0140
14047TIP3    H163556   2.184   0.957   0.470 -0.1025 -0.6940  1.2571
14047TIP3    H263557   2.309   0.873   0.485  0.6647 -0.0167 -0.9919
14048TIP3   OH263558   1.136   1.566   5.245 -0.1679  0.3596  0.4991
14048TIP3    H163559   1.099   1.545   5.331 -1.5990 -1.0996 -0.4372
14048TIP3    H263560   1.167   1.482   5.211 -0.3820  0.7727 -0.7616
14049TIP3   OH263561   4.445   3.637   4.847  0.6378 -0.2545 -0.2422
14049TIP3    H163562   4.472   3.630   4.938 -2.0149 -3.1236  0.5220
14049TIP3    H263563   4.367   3.693   4.849 -0.5387 -1.7953 -0.3208
14050TIP3   OH263564   4.605   2.273  13.974  0.0257 -0.8340  0.4344
14050TIP3    H163565   4.624   2.229  14.057  0.6879 -0.5307  0.4526
14050TIP3    H263566   4.519   2.313  13.987  0.7637  0.4819  1.5208
14051TIP3   OH263567   3.112   0.124   0.688 -0.0340  0.5046 -0.2159
14051TIP3    H163568   3.128   0.093   0.599 -0.5031  1.0313 -0.4860
14051TIP3    H263569   3.077   0.047   0.734  0.8207  0.0524 -0.3027
14052TIP3   OH263570   2.521   5.617  17.021  0.1263 -0.2310 -0.7210
14052TIP3    H163571   2.554   5.700  16.987  0.4131 -0.0656 -0.0403
14052TIP3    H263572   2.524   5.558  16.946 -0.7950  0.5668 -1.4132
14053TIP3   OH263573   5.290   2.345  17.092  0.6330  0.1957  0.0439
14053TIP3    H163574   5.204   2.367  17.125  0.5723 -1.6271  1.2715
14053TIP3    H263575   5.311   2.414  17.030 -0.8144  1.7896  1.2564
14054TIP3   OH263576   1.667   2.167  14.350  0.1207 -0.2000  0.4125
14054TIP3    H163577   1.717   2.117  14.285 -0.7581  0.2702 -0.6606
14054TIP3    H263578   1.575   2.152  14.327 -0.1781  1.8904  0.0407
14055TIP3   OH263579   2.797   0.920  15.475  0.2616  0.1811  0.0332
14055TIP3    H163580   2.802   0.884  15.387 -0.1579  0.3066 -0.0435
14055TIP3    H263581   2.829   1.010  15.466 -1.0698  0.6551 -0.2683
14056TIP3   OH263582   2.486   3.946  15.286  1.0787  0.3419 -0.1758
14056TIP3    H163583   2.517   3.986  15.367  1.4761 -0.0862 -0.1135
14056TIP3    H263584   2.403   3.989  15.268 -0.0720 -1.0130  1.5915
14057TIP3   OH263585   6.680   1.565  15.963 -0.0057 -0.5624 -0.7375
14057TIP3    H163586   6.590   1.591  15.943 -0.5443 -2.8024 -1.5098
14057TIP3    H263587   6.680   1.469  15.957  2.4540 -0.6349 -0.8157
14058TIP3   OH263588   2.303   6.004   1.241  0.0530  0.5648 -0.6414
14058TIP3    H163589   2.310   6.096   1.216 -1.4464  0.6845 -0.6939
14058TIP3    H263590   2.335   6.001   1.331 -1.4973  1.4719 -0.0253
14059TIP3   OH263591   5.415   4.922   4.512 -0.1594 -0.1620 -0.6633
14059TIP3    H163592   5.377   5.006   4.538  2.0658  0.3897  1.2177
14059TIP3    H263593   5.355   4.856   4.547  0.1884  0.6580  1.6625
14060TIP3   OH263594   5.380   0.796  14.150  0.3076 -0.4246 -0.1670
14060TIP3    H163595   5.413   0.723  14.098 -0.2267 -2.1142  1.7507
14060TIP3    H263596   5.382   0.764  14.240 -0.7394  1.6522  0.6498
14061TIP3   OH263597   0.448   4.125  15.212 -0.7049 -0.2678 -0.2562
14061TIP3    H163598   0.379   4.116  15.147  0.2827 -1.9534 -1.1611
14061TIP3    H263599   0.413   4.184  15.278 -2.5772 -0.2503 -1.2242
14062TIP3   OH263600   0.040   2.147   4.020 -0.1507  0.1560  0.2292
14062TIP3    H163601  -0.020   2.206   4.066  0.2490  0.4631  0.3560
14062TIP3    H263602   0.085   2.203   3.957 -0.9965 -0.3298 -0.8577
14063TIP3   OH263603   4.576   5.565   0.816 -0.6153 -0.6251  0.6438
14063TIP3    H163604   4.662   5.541   0.782 -0.1676 -1.9469  2.5137
14063TIP3    H263605   4.522   5.488   0.800 -0.7996 -0.6797  1.4625
14064TIP3   OH263606   2.115   1.236  12.615 -0.0151 -0.3149 -0.8456
14064TIP3    H163607   2.032   1.258  12.657 -0.5773  0.8180 -2.4474
14064TIP3    H263608   2.160   1.182  12.678 -1.5472 -0.1095  0.4874
14065TIP3   OH263609   5.305   1.667   3.665 -0.7227  0.1138 -0.7697
14065TIP3    H163610   5.289   1.580   3.702 -2.5113  0.5243 -0.4676
14065TIP3    H263611   5.227   1.685   3.612 -0.9865  2.0429  0.1928
14066TIP3   OH263612   6.592   3.448   3.313 -0.4947  0.0785 -0.3197
14066TIP3    H163613   6.650   3.424   3.241 -0.9414  0.7458 -0.9194
14066TIP3    H263614   6.614   3.539   3.333  0.6906 -0.5385  1.4427
14067TIP3   OH263615   0.405   6.571   1.080 -0.0324 -0.4708 -0.0206
14067TIP3    H163616   0.316   6.538   1.095  0.1490  0.4647  4.4911
14067TIP3    H263617   0.462   6.498   1.106  0.5561 -0.2875 -0.7390
14068TIP3   OH263618   4.237   1.776  14.355 -0.3609  0.4721  0.2013
14068TIP3    H163619   4.294   1.744  14.286  3.1236  0.9326  2.6026
14068TIP3    H263620   4.206   1.697  14.399  1.9942  0.1350  1.4236
14069TIP3   OH263621   4.267   5.845  14.698 -0.3029 -0.6679 -0.5670
14069TIP3    H163622   4.286   5.936  14.717 -1.2924 -0.6124  0.1690
14069TIP3    H263623   4.353   5.803  14.694  0.1406  0.2405 -0.6885
14070TIP3   OH263624   2.712   5.916   0.074  0.4535 -0.3200 -0.0986
14070TIP3    H163625   2.722   5.833   0.121  0.7180  0.7606  1.9000
14070TIP3    H263626   2.628   5.909   0.029  0.3493 -1.5623  0.2620
14071TIP3   OH263627   3.388   2.059   2.824  0.1900 -0.5550  0.3762
14071TIP3    H163628   3.451   2.010   2.771  0.7275 -0.0828  0.5656
14071TIP3    H263629   3.321   2.088   2.763  0.5590 -0.4135  0.0364
14072TIP3   OH263630   0.486   0.968   2.939 -0.1937  0.2494 -0.5874
14072TIP3    H163631   0.463   0.940   2.850 -0.7760  0.8867 -0.6468
14072TIP3    H263632   0.402   0.978   2.983  0.1368 -1.6439  0.5521
14073TIP3   OH263633   6.006   2.059   4.266 -0.2543 -0.0809 -0.0998
14073TIP3    H163634   5.976   1.976   4.303  2.0850 -1.3289 -0.7865
14073TIP3    H263635   5.926   2.101   4.235 -1.7150 -1.2513  1.8219
14074TIP3   OH263636   5.298   1.380  12.435  0.3588  0.9857  0.2833
14074TIP3    H163637   5.364   1.340  12.491  1.2241  1.9789  0.0054
14074TIP3    H263638   5.291   1.321  12.360  1.5841  1.2867 -0.0962
14075TIP3   OH263639   3.921   0.086  14.644  0.0724  0.2090 -0.5081
14075TIP3    H163640   3.847   0.134  14.682 -0.8198 -1.5181  0.0108
14075TIP3    H263641   3.896  -0.006  14.648  2.0325 -0.3969 -0.8091
14076TIP3   OH263642   2.803   6.020   2.712 -0.1079  0.0147  0.0724
14076TIP3    H163643   2.809   6.115   2.724  1.4832  0.2546 -1.9233
14076TIP3    H263644   2.884   5.997   2.666 -0.2129 -2.4122  0.9577
14077TIP3   OH263645   3.085   6.726  16.531 -0.0592  0.1834 -0.1371
14077TIP3    H163646   3.010   6.714  16.590  0.3327  0.3555  0.4089
14077TIP3    H263647   3.143   6.786  16.578  0.0851  0.6350 -0.8759
14078TIP3   OH263648   0.643   2.280  11.389 -0.0461  0.0545 -0.3378
14078TIP3    H163649   0.707   2.232  11.337 -0.0772  1.2949 -1.5863
14078TIP3    H263650   0.657   2.249  11.479  0.6188 -1.4819 -0.9406
14079TIP3   OH263651   2.165   3.881  13.665  0.0596  0.1988 -0.2496
14079TIP3    H163652   2.223   3.915  13.596  0.8993  0.0022  0.3438
14079TIP3    H263653   2.225   3.850  13.733 -0.7508 -0.1731  0.3027
14080TIP3   OH263654   2.596   3.736  16.991  0.2428 -0.5968  0.5943
14080TIP3    H163655   2.646   3.690  16.924  0.2779 -1.7429  1.3762
14080TIP3    H263656   2.530   3.785  16.942  2.0127  0.8777 -0.4473
14081TIP3   OH263657   2.363   4.517   4.811  0.3175  0.1383  0.1401
14081TIP3    H163658   2.381   4.427   4.840 -0.7277 -0.1114  0.0458
14081TIP3    H263659   2.277   4.512   4.769  1.2727  0.6977 -2.0534
14082TIP3   OH263660   4.830   4.348   3.298 -0.1431  0.1375  0.2849
14082TIP3    H163661   4.847   4.368   3.206  0.3148 -0.2196  0.2897
14082TIP3    H263662   4.828   4.434   3.340 -1.5168  0.3885 -0.2362
14083TIP3   OH263663   5.528   2.217  16.544  0.3608 -0.2448  0.2582
14083TIP3    H163664   5.569   2.147  16.594  1.0058 -0.8927 -1.0996
14083TIP3    H263665   5.462   2.254  16.602  2.7876  0.7900  2.5545
14084TIP3   OH263666   4.057   5.936   5.130  0.0141  0.2473  0.1929
14084TIP3    H163667   4.040   5.875   5.059  0.5574 -0.8300  0.9620
14084TIP3    H263668   4.048   6.023   5.090 -0.2815 -0.3314 -1.0335
14085TIP3   OH263669   2.739   3.198   2.939  0.1834  0.4061 -0.4701
14085TIP3    H163670   2.753   3.191   3.033  3.0267 -0.0526 -0.8574
14085TIP3    H263671   2.765   3.287   2.917  1.9226 -0.2296 -1.1306
14086TIP3   OH263672   2.903   3.178  13.481  0.4653  0.1819 -0.3278
14086TIP3    H163673   2.816   3.212  13.498  0.3472 -0.6182  0.7465
14086TIP3    H263674   2.897   3.143  13.392 -0.1170  0.6955 -0.4994
14087TIP3   OH263675   0.237   3.537   0.761  0.4831  0.8071  0.1281
14087TIP3    H163676   0.214   3.627   0.738  0.5640  0.5999 -0.7778
14087TIP3    H263677   0.204   3.484   0.689  1.2785  0.2055  0.1903
14088TIP3   OH263678   4.943   4.900  14.845 -0.4037 -0.8104  0.4804
14088TIP3    H163679   5.016   4.841  14.864  1.3016  1.0746  0.0393
14088TIP3    H263680   4.984   4.984  14.825 -2.6384  0.0041 -1.0437
14089TIP3   OH263681   5.004   3.347   3.937  0.4381 -0.0061  0.5944
14089TIP3    H163682   4.991   3.379   4.027  1.0032  0.2009  0.6066
14089TIP3    H263683   5.052   3.418   3.894  0.3152 -0.1796  0.1758
14090TIP3   OH263684   1.507   1.425   0.582  0.6872 -0.1255  0.2132
14090TIP3    H163685   1.576   1.466   0.529  0.0203  1.7310  0.7021
14090TIP3    H263686   1.444   1.495   0.597 -0.1818 -1.1742  1.7013
14091TIP3   OH263687   5.853   1.239   0.485 -0.0531 -0.4022  0.1162
14091TIP3    H163688   5.843   1.234   0.390 -1.7022 -0.8185  0.2749
14091TIP3    H263689   5.802   1.316   0.511 -0.1529 -0.6670  0.7278
14092TIP3   OH263690   4.511   5.954   1.332  0.1611 -0.3084  0.3170
14092TIP3    H163691   4.483   5.904   1.255 -0.5133 -0.4663  0.6525
14092TIP3    H263692   4.586   5.906   1.366 -0.7430 -1.3625  0.8853
14093TIP3   OH263693   4.030   3.184  16.189  0.0428  0.0397  0.3351
14093TIP3    H163694   4.098   3.132  16.146  0.0912  0.6888 -0.4051
14093TIP3    H263695   4.003   3.248  16.122  2.0623  2.9489  2.0539
14094TIP3   OH263696   2.781   1.230   2.491 -0.1428 -0.5059  0.4920
14094TIP3    H163697   2.843   1.293   2.529 -1.6839  0.7103  1.1026
14094TIP3    H263698   2.818   1.145   2.513  1.4945  0.1714  0.5208
14095TIP3   OH263699   1.271   6.581   5.943 -0.1615  0.0563  0.5831
14095TIP3    H163700   1.354   6.554   5.983 -0.6352  0.1750  1.6691
14095TIP3    H263701   1.218   6.613   6.016 -0.1986  2.5052 -0.4352
14096TIP3   OH263702   0.488   0.341  14.749 -0.3406 -0.6483  0.9590
14096TIP3    H163703   0.438   0.410  14.705 -0.9833 -1.4478  0.4145
14096TIP3    H263704   0.541   0.302  14.680 -2.2540 -2.7225  0.5510
14097TIP3   OH263705   1.123   2.274  13.443  0.3505  0.1546 -0.2668
14097TIP3    H163706   1.209   2.233  13.432 -0.2186 -0.9112 -0.8908
14097TIP3    H263707   1.075   2.253  13.363 -0.8604 -0.1950  0.5125
14098TIP3   OH263708   4.472   4.081  12.690  0.7284  0.1728  0.4198
14098TIP3    H163709   4.513   4.105  12.607  0.3747  0.1889  0.2489
14098TIP3    H263710   4.526   4.123  12.757  1.7742 -0.9086  0.2774
14099TIP3   OH263711   3.258   2.879   3.058  0.3516 -0.1281  0.2888
14099TIP3    H163712   3.197   2.805   3.062  1.1406 -0.7619  0.7063
14099TIP3    H263713   3.206   2.954   3.086  0.2367 -0.9669  2.4574
14100TIP3   OH263714   1.240   2.380   2.166  0.7099 -0.2904 -0.2654
14100TIP3    H163715   1.235   2.371   2.071 -0.0891  1.2307 -0.3820
14100TIP3    H263716   1.330   2.408   2.182  0.3712  1.1357 -0.7429
14101TIP3   OH263717   5.506   0.782  12.186 -0.5828 -0.5296 -0.4698
14101TIP3    H163718   5.443   0.837  12.140  0.7942 -1.4328 -3.7414
14101TIP3    H263719   5.571   0.844  12.221 -2.7281  0.3415  2.3396
14102TIP3   OH263720   1.473   2.264   3.610  0.2576 -0.3245  0.1579
14102TIP3    H163721   1.399   2.272   3.550 -0.6899 -1.2054  1.1838
14102TIP3    H263722   1.500   2.355   3.626 -0.0377 -0.0365 -0.8892
14103TIP3   OH263723   6.275   1.105  13.689  0.2822  0.2902  0.2400
14103TIP3    H163724   6.247   1.173  13.628 -0.0773  1.8520  2.0642
14103TIP3    H263725   6.354   1.068  13.648 -0.7593  0.2133 -1.8637
14104TIP3   OH263726   6.018   2.971  12.686 -0.0315 -0.3098  0.1394
14104TIP3    H163727   5.979   2.905  12.628  0.7228 -0.2168 -0.4903
14104TIP3    H263728   6.057   3.035  12.627 -0.9053  0.8153  0.7497
14105TIP3   OH263729   5.451   2.090  13.469 -0.3100 -0.2270  0.3658
14105TIP3    H163730   5.436   2.154  13.400  0.5916  1.8016  1.9269
14105TIP3    H263731   5.546   2.075  13.469 -0.5553 -2.0105 -0.3003
14106TIP3   OH263732   1.390   5.177   4.985  0.7370  0.2465 -0.0229
14106TIP3    H163733   1.361   5.163   5.076  0.0871  0.8371 -0.1318
14106TIP3    H263734   1.331   5.244   4.951  0.5470 -0.4267 -1.0933
14107TIP3   OH263735   1.021   3.610  14.237 -0.1930  0.0211  0.4023
14107TIP3    H163736   0.983   3.541  14.181 -2.3599  0.9284  0.6279
14107TIP3    H263737   1.094   3.644  14.186  1.1795 -2.5964  0.4236
14108TIP3   OH263738   1.040   2.309   2.590 -0.0974 -0.7896  0.0132
14108TIP3    H163739   0.962   2.318   2.645  0.6878  2.1775  0.8401
14108TIP3    H263740   1.113   2.311   2.652  0.7281 -2.7973 -0.8061
14109TIP3   OH263741   3.244   3.478  15.181  0.6895 -0.2745  0.8497
14109TIP3    H163742   3.316   3.480  15.244  0.0402 -0.2921  1.6104
14109TIP3    H263743   3.195   3.399  15.203 -0.0466  0.1842  0.9025
14110TIP3   OH263744   6.084   4.808   3.272 -0.1522  0.4621  0.1501
14110TIP3    H163745   6.025   4.883   3.269  1.1307  1.5681  0.9703
14110TIP3    H263746   6.056   4.760   3.350  0.4640  1.4046  0.9879
14111TIP3   OH263747   0.308   6.047   2.973 -0.4781 -0.4078 -0.5752
14111TIP3    H163748   0.376   5.989   3.007 -2.3735 -2.3354  0.1594
14111TIP3    H263749   0.310   6.123   3.030  0.3179 -0.9406  0.1268
14112TIP3   OH263750   4.215   6.659   4.080 -0.5557  0.1264 -0.4540
14112TIP3    H163751   4.215   6.569   4.049  1.0950  0.1744 -0.6492
14112TIP3    H263752   4.307   6.684   4.084 -0.9655  1.7256 -0.1580
14113TIP3   OH263753   4.210   3.052   0.612  0.1364  0.7105  0.5397
14113TIP3    H163754   4.290   3.103   0.628  0.4134  0.0834  1.2297
14113TIP3    H263755   4.237   2.984   0.550  0.1658  0.4457  0.8400
14114TIP3   OH263756   6.269   5.459   2.629 -0.2669  0.0899 -0.1311
14114TIP3    H163757   6.211   5.522   2.672  1.9519  0.6533  2.2851
14114TIP3    H263758   6.220   5.377   2.631 -0.9788  0.5084  1.9823
14115TIP3   OH263759   2.362   4.200  12.013  0.0894  0.9063  0.3811
14115TIP3    H163760   2.365   4.107  12.036 -1.4256  1.1598  1.8140
14115TIP3    H263761   2.416   4.243  12.079  0.5796  1.0910 -0.1293
14116TIP3   OH263762   1.634   0.055  16.676  0.7237 -0.7692  0.0362
14116TIP3    H163763   1.686   0.048  16.596 -0.3030  2.1315 -1.0012
14116TIP3    H263764   1.623   0.149  16.690 -1.8644 -1.2105  1.7653
14117TIP3   OH263765   4.447   4.519  16.855  0.6116  0.1061 -0.4096
14117TIP3    H163766   4.374   4.543  16.797 -0.2857  1.4318  1.1680
14117TIP3    H263767   4.419   4.437  16.896  0.1673  0.4019 -0.1097
14118TIP3   OH263768   1.142   5.729   6.141  0.0555 -0.3505  0.2930
14118TIP3    H163769   1.185   5.811   6.167 -0.9051  0.1585  0.3658
14118TIP3    H263770   1.097   5.700   6.220 -0.7630 -0.1829 -0.0980
14119TIP3   OH263771   0.172   5.861  15.361 -0.3038  0.2280 -0.0470
14119TIP3    H163772   0.103   5.921  15.390 -0.8355 -0.3617 -0.0675
14119TIP3    H263773   0.234   5.917  15.314  0.1774  1.0715  1.5083
14120TIP3   OH263774   5.560   0.121  10.848 -0.8749 -0.5408  0.4445
14120TIP3    H163775   5.520   0.136  10.763 -1.0473  0.5365  0.7065
14120TIP3    H263776   5.510   0.176  10.908  0.7050  0.5182  0.8577
14121TIP3   OH263777   0.627   0.812  12.307 -0.1706 -0.2563  0.0020
14121TIP3    H163778   0.625   0.779  12.397 -0.3337  1.7455  0.7724
14121TIP3    H263779   0.636   0.907  12.316 -3.7132  0.4614 -1.9680
14122TIP3   OH263780   4.642   1.415   6.211 -0.0373  0.4964 -0.0800
14122TIP3    H163781   4.719   1.438   6.262  0.7270 -0.7143 -0.6444
14122TIP3    H263782   4.672   1.415   6.120 -0.2435 -1.5607 -0.1893
14123TIP3   OH263783   1.525   4.144  12.908  0.1160  0.0995  0.9403
14123TIP3    H163784   1.568   4.090  12.842 -0.9672  0.2823  0.0449
14123TIP3    H263785   1.587   4.215  12.926  0.2275  0.3355 -0.2807
14124TIP3   OH263786   6.714   0.071  12.267 -0.6167  0.2879 -0.2243
14124TIP3    H163787   6.783   0.010  12.242 -1.4486 -1.6367  1.7755
14124TIP3    H263788   6.756   0.131  12.329 -0.2005  0.7115 -0.8978
14125TIP3   OH263789   2.871   5.832  10.918  0.0864  0.3217  0.4749
14125TIP3    H163790   2.844   5.920  10.892 -1.7245 -0.3063  0.1295
14125TIP3    H263791   2.949   5.815  10.864  0.9188  1.9570  1.0718
14126TIP3   OH263792   3.984   4.732  13.375 -0.0978  0.7647  0.0578
14126TIP3    H163793   3.934   4.810  13.352  0.1780  0.1674 -2.9288
14126TIP3    H263794   3.993   4.684  13.293  0.7954 -1.8273  1.5476
14127TIP3   OH263795   1.418   5.454   0.291  0.6818  0.5360 -0.6497
14127TIP3    H163796   1.488   5.513   0.260  1.2136 -0.1208 -0.7156
14127TIP3    H263797   1.429   5.375   0.239  2.1597 -0.9693  1.7238
14128TIP3   OH263798   5.776   0.493  13.881 -0.5118  0.0585 -0.2086
14128TIP3    H163799   5.838   0.481  13.953 -0.8182 -0.7851 -0.0748
14128TIP3    H263800   5.702   0.538  13.922  0.1789  1.4758 -0.4665
14129TIP3   OH263801   1.123   5.113   2.357 -0.7479 -0.8831 -0.3919
14129TIP3    H163802   1.209   5.154   2.355 -0.5101 -0.9565  3.2373
14129TIP3    H263803   1.063   5.183   2.380 -1.6822 -0.9559 -2.3651
14130TIP3   OH263804   4.012   6.296  11.820 -0.1622 -0.0561  0.1137
14130TIP3    H163805   3.952   6.236  11.777  0.7672 -0.4543 -0.6539
14130TIP3    H263806   4.035   6.360  11.752  0.5813 -0.1388  0.2797
14131TIP3   OH263807   0.593   6.755  17.085 -0.1212  0.0451  0.0624
14131TIP3    H163808   0.641   6.688  17.134 -1.0344  0.7083  1.9318
14131TIP3    H263809   0.659   6.821  17.065  0.0807  0.2678  1.3594
14132TIP3   OH263810   1.822   3.390  16.801 -0.1527 -0.3532 -0.2367
14132TIP3    H163811   1.824   3.301  16.836 -0.2775  0.3512  1.6533
14132TIP3    H263812   1.909   3.403  16.764  0.5546 -0.5860  1.2798
14133TIP3   OH263813   5.398   0.722   0.443  0.0383  0.2781 -0.2742
14133TIP3    H163814   5.490   0.719   0.468 -0.1877 -0.2317  0.5031
14133TIP3    H263815   5.394   0.790   0.375  1.1029 -0.1913 -0.8337
14134TIP3   OH263816   0.929   6.205  15.733 -0.3164  0.2587  0.6335
14134TIP3    H163817   0.960   6.189  15.644  1.0652 -1.4085  1.3658
14134TIP3    H263818   0.979   6.281  15.764 -0.0414  0.1888  0.3562
14135TIP3   OH263819   2.447   3.374   3.266 -0.4857  1.0265 -0.2677
14135TIP3    H163820   2.449   3.393   3.172 -2.7723 -0.7556 -0.7773
14135TIP3    H263821   2.497   3.293   3.276 -1.4862  0.3969 -0.2237
14136TIP3   OH263822   3.960   3.201   4.238 -0.5406 -0.9329  0.6349
14136TIP3    H163823   4.034   3.141   4.248 -1.4910 -2.1416  0.7537
14136TIP3    H263824   3.909   3.164   4.165  0.2283  1.2674 -1.1439
14137TIP3   OH263825   4.394   2.256  14.424 -1.0809  0.0616 -0.2593
14137TIP3    H163826   4.335   2.327  14.399 -0.0954  0.5199 -1.3841
14137TIP3    H263827   4.467   2.300  14.466 -0.5070 -0.2772 -0.8788
14138TIP3   OH263828   2.052   0.464  14.160  0.1960  0.3724  0.0478
14138TIP3    H163829   2.024   0.401  14.226 -0.7866 -1.2521 -1.8010
14138TIP3    H263830   2.025   0.549  14.194  0.7621 -0.2582  2.2137
14139TIP3   OH263831   5.404   1.689  12.891 -0.8042 -0.1485  0.0388
14139TIP3    H163832   5.390   1.783  12.900  1.2998  0.2742 -0.6090
14139TIP3    H263833   5.337   1.661  12.828 -0.1980  1.3108 -1.3276
14140TIP3   OH263834   4.121   2.603   6.486 -0.0932 -0.1077 -0.4889
14140TIP3    H163835   4.042   2.651   6.463  0.3074  0.2406 -1.1698
14140TIP3    H263836   4.159   2.578   6.402  2.0341  2.1628 -0.3275
14141TIP3   OH263837   1.360   4.401   6.033  0.2376  0.3352 -0.4541
14141TIP3    H163838   1.391   4.328   5.979  0.4021  0.4292 -0.4898
14141TIP3    H263839   1.440   4.443   6.064  0.1531 -0.0444  0.3140
14142TIP3   OH263840   5.546   5.203   4.510  0.3453 -0.5403  0.6222
14142TIP3    H163841   5.467   5.237   4.467  0.6282 -0.1932  0.3679
14142TIP3    H263842   5.513   5.144   4.578 -0.1211 -0.8985  0.0988
14143TIP3   OH263843   0.160   5.056  15.000  0.4990 -0.6297  0.5169
14143TIP3    H163844   0.137   4.966  14.980 -0.2722 -0.9552  2.6826
14143TIP3    H263845   0.077   5.098  15.021  1.1651 -0.2614  2.5949
14144TIP3   OH263846   3.981   1.057   0.984 -0.3382 -0.0466  0.1370
14144TIP3    H163847   3.939   1.002   0.917 -2.7612 -0.6770  2.0291
14144TIP3    H263848   4.028   0.995   1.040 -1.0337  0.0617  0.8609
14145TIP3   OH263849   4.387   6.185   4.962  0.1223  0.3627  0.1070
14145TIP3    H163850   4.338   6.267   4.962  1.2475  1.0679  0.7682
14145TIP3    H263851   4.363   6.143   5.045 -0.4415  0.0150 -0.2244
14146TIP3   OH263852   3.574   1.419   1.521  0.1009 -0.2638 -0.0207
14146TIP3    H163853   3.650   1.469   1.550  0.3021 -0.6653  0.1414
14146TIP3    H263854   3.597   1.327   1.535  0.2500 -0.4888 -1.5282
14147TIP3   OH263855   5.842   6.001   1.196 -1.2413 -0.2375  0.3731
14147TIP3    H163856   5.763   6.048   1.224 -1.9812 -1.1471 -0.0993
14147TIP3    H263857   5.808   5.919   1.160  0.0130 -1.1207  1.1624
14148TIP3   OH263858   5.691   3.389  15.035  0.0553  0.3883  0.7444
14148TIP3    H163859   5.625   3.451  15.066 -0.6586  1.0990 -1.9226
14148TIP3    H263860   5.751   3.442  14.983 -1.4803 -1.1718 -3.0183
14149TIP3   OH263861   0.773   5.734  15.035 -0.2049 -0.5542  0.6766
14149TIP3    H163862   0.792   5.640  15.033 -1.0443 -0.8122 -3.7703
14149TIP3    H263863   0.678   5.739  15.036 -0.1896  0.1867 -0.3240
14150TIP3   OH263864   3.821   2.618  15.651 -0.2102 -0.4411  0.1281
14150TIP3    H163865   3.749   2.557  15.641  0.1077 -0.6412 -1.0989
14150TIP3    H263866   3.897   2.563  15.670 -0.3978 -0.2143  1.6831
14151TIP3   OH263867   1.904   0.062   3.611 -0.2261 -0.0191 -0.0820
14151TIP3    H163868   1.892   0.133   3.547  1.2720 -1.7111 -2.4084
14151TIP3    H263869   1.833   0.001   3.591  0.7617 -0.9749 -0.8228
14152TIP3   OH263870   0.558   0.666   2.926  0.1123 -0.1488 -0.6669
14152TIP3    H163871   0.611   0.695   2.851  1.9433 -1.7108 -0.0529
14152TIP3    H263872   0.570   0.734   2.992  0.2607  0.1642 -1.0120
14153TIP3   OH263873   5.294   5.263   2.292 -0.1885  0.0757  0.0060
14153TIP3    H163874   5.214   5.263   2.343 -0.7216  1.2568 -0.7942
14153TIP3    H263875   5.327   5.352   2.298  2.3584 -0.8865  2.2244
14154TIP3   OH263876   5.266   0.131   4.713 -0.1706 -0.1540 -0.0500
14154TIP3    H163877   5.361   0.142   4.723  0.1629 -0.6577 -2.0783
14154TIP3    H263878   5.228   0.203   4.763  1.3787  1.1960 -0.7156
14155TIP3   OH263879   4.465   3.172   0.328 -0.0902  0.1841 -0.3253
14155TIP3    H163880   4.382   3.220   0.335  1.1036  2.4024 -0.2072
14155TIP3    H263881   4.494   3.161   0.419  0.7682  1.4275 -0.4236
14156TIP3   OH263882   2.969   3.099  13.202 -0.5391 -0.0303  0.5018
14156TIP3    H163883   3.028   3.024  13.196 -3.2656 -2.4355  1.0379
14156TIP3    H263884   3.021   3.174  13.174  1.6379 -2.5012 -2.8406
14157TIP3   OH263885   5.699   1.007   4.809  0.0056 -0.3067 -0.6251
14157TIP3    H163886   5.769   0.945   4.829 -0.3650 -0.5410 -0.0226
14157TIP3    H263887   5.631   0.987   4.873  0.5771  1.8944  0.7868
14158TIP3   OH263888   0.610   1.035   0.504 -0.0025 -0.3155  0.7899
14158TIP3    H163889   0.528   1.068   0.541  0.3144  1.8945 -0.3174
14158TIP3    H263890   0.588   1.012   0.414  0.0327 -2.2860  1.2409
14159TIP3   OH263891   3.942   4.496  13.550  0.1212  0.0317 -0.4851
14159TIP3    H163892   3.990   4.550  13.613 -2.9783  1.2669  1.0602
14159TIP3    H263893   3.929   4.554  13.475 -2.3928  1.3010  0.7966
14160TIP3   OH263894   1.424   5.355   4.064  0.0830 -0.1150  0.5784
14160TIP3    H163895   1.411   5.414   3.990  1.2942 -0.8667 -0.2644
14160TIP3    H263896   1.502   5.389   4.108  0.1242 -0.4238  0.7433
14161TIP3   OH263897   1.492   6.494  11.840  0.3453 -0.2337  0.1844
14161TIP3    H163898   1.459   6.443  11.766  1.4158  0.1173 -0.5687
14161TIP3    H263899   1.587   6.489  11.831  0.4771  1.4860  0.3792
14162TIP3   OH263900   6.521   2.328  14.012  0.1706  0.1017  0.1495
14162TIP3    H163901   6.610   2.294  14.015  0.5453  1.1275  1.8779
14162TIP3    H263902   6.498   2.326  13.919  2.9286  2.1326 -0.7257
14163TIP3   OH263903   3.470   0.503   6.166 -0.6468 -0.3265 -0.5089
14163TIP3    H163904   3.532   0.542   6.105 -0.9695 -1.0419 -1.3116
14163TIP3    H263905   3.437   0.425   6.121 -1.2704 -0.5898  0.3700
14164TIP3   OH263906   6.380   3.097   5.451  0.1301  0.4807 -0.4493
14164TIP3    H163907   6.474   3.085   5.438  0.2130 -0.0208  0.5273
14164TIP3    H263908   6.366   3.077   5.544 -1.0684 -0.2806 -0.7709
14165TIP3   OH263909   4.303   1.444   4.331 -0.6620 -0.1597  0.6427
14165TIP3    H163910   4.374   1.380   4.344 -0.7394 -0.0710  1.6046
14165TIP3    H263911   4.263   1.418   4.249  0.0864 -0.6053  0.4035
14166TIP3   OH263912   6.140   6.633  11.949  0.1112 -0.8854  0.0696
14166TIP3    H163913   6.113   6.717  11.988  0.7747 -1.0664  0.9447
14166TIP3    H263914   6.061   6.600  11.906  0.0314  0.5447 -0.9638
14167TIP3   OH263915   1.553   0.727  14.179  1.1592 -0.1719 -0.2953
14167TIP3    H163916   1.492   0.657  14.204  0.5566  0.5071  0.1933
14167TIP3    H263917   1.599   0.693  14.102 -1.7803  0.3382 -2.4535
14168TIP3   OH263918   0.981   2.997  13.565  0.4010  0.3430  0.3131
14168TIP3    H163919   0.953   3.046  13.642  0.8509  1.2068 -0.0570
14168TIP3    H263920   0.907   2.939  13.545 -0.1969  0.9519  0.6997
14169TIP3   OH263921   1.970   6.179  15.376 -0.1088 -0.1293 -1.1216
14169TIP3    H163922   2.047   6.171  15.432 -0.5177 -2.4404 -0.8038
14169TIP3    H263923   1.899   6.202  15.436  0.2709  2.0182 -1.4174
14170TIP3   OH263924   0.955   2.002   3.163 -0.3520 -0.3410  0.3242
14170TIP3    H163925   0.909   2.075   3.121  1.4035  0.6754  0.0675
14170TIP3    H263926   0.886   1.946   3.196 -1.7709  0.7668 -0.6442
14171TIP3   OH263927   4.765   3.748   4.773  0.8173  0.0084 -0.5863
14171TIP3    H163928   4.728   3.684   4.712  1.8369 -0.4333 -0.7536
14171TIP3    H263929   4.860   3.740   4.762  0.9667  1.5847 -0.6448
14172TIP3   OH263930   4.468   4.391  14.887 -0.0792 -0.3710  1.0103
14172TIP3    H163931   4.511   4.476  14.903  2.4057 -0.9898 -1.5240
14172TIP3    H263932   4.465   4.350  14.973  2.6069  0.6459  1.7218
14173TIP3   OH263933   0.367   2.109  13.231  0.3149  0.5009  0.1535
14173TIP3    H163934   0.297   2.086  13.293  2.0287  1.4372  2.5689
14173TIP3    H263935   0.329   2.090  13.145 -2.6278  0.2573  1.3717
14174TIP3   OH263936   3.162   0.545   3.153 -0.2991 -0.4141 -0.4418
14174TIP3    H163937   3.147   0.559   3.059  1.0798 -0.1656 -0.6403
14174TIP3    H263938   3.115   0.464   3.173 -0.0622 -0.8221 -1.4916
14175TIP3   OH263939   6.679   3.768   2.733 -0.0487  0.7735 -0.1852
14175TIP3    H163940   6.735   3.691   2.743 -0.2432  0.8434  1.8282
14175TIP3    H263941   6.627   3.771   2.814 -1.0091  2.2603 -0.8038
14176TIP3   OH263942   2.947   3.659  15.183  0.1565 -0.9238  0.3691
14176TIP3    H163943   2.984   3.572  15.200  0.1021 -1.4362 -1.9054
14176TIP3    H263944   2.883   3.645  15.114  1.2466  1.1356 -1.1600
14177TIP3   OH263945   5.759   2.419  16.594 -0.1546 -0.1054  0.0921
14177TIP3    H163946   5.692   2.357  16.563 -0.5812  1.1127 -1.6098
14177TIP3    H263947   5.834   2.364  16.617 -0.3021 -1.2706 -1.9356
14178TIP3   OH263948   2.816   2.459  11.081  0.3089  0.6770 -0.1659
14178TIP3    H163949   2.833   2.387  11.020 -0.5721 -0.4587  0.8741
14178TIP3    H263950   2.828   2.420  11.168  2.5661  2.5206  0.4397
14179TIP3   OH263951   3.598   6.538  10.985 -0.2525  0.4571 -0.2032
14179TIP3    H163952   3.585   6.572  10.896  0.1880  0.4224 -0.2814
14179TIP3    H263953   3.646   6.456  10.973 -0.4382  0.3080  0.0496
14180TIP3   OH263954   1.603   3.065  11.908 -0.0211 -0.5129 -0.0557
14180TIP3    H163955   1.658   3.063  11.829 -1.0052  0.0359 -0.7675
14180TIP3    H263956   1.515   3.048  11.877 -0.2501 -1.6015  1.1142
14181TIP3   OH263957   4.248   5.922   3.913  0.7913  0.4247  0.1823
14181TIP3    H163958   4.317   5.975   3.874  0.6129 -0.0059 -0.7298
14181TIP3    H263959   4.176   5.983   3.930  0.2894  0.3677 -1.5628
14182TIP3   OH263960   4.894   2.956  11.648  0.0512 -0.1828 -0.4850
14182TIP3    H163961   4.809   2.983  11.613  0.1868  0.2118 -0.5205
14182TIP3    H263962   4.873   2.889  11.714 -0.3465  0.4425  0.0411
14183TIP3   OH263963   6.283   0.844  14.671 -0.0456 -0.4582 -0.2613
14183TIP3    H163964   6.272   0.936  14.694 -1.3244 -0.4186 -0.9221
14183TIP3    H263965   6.263   0.840  14.577 -1.8751 -1.6603  0.1081
14184TIP3   OH263966   0.912   5.646   1.496  0.0152  0.0091  0.5411
14184TIP3    H163967   0.994   5.642   1.545  1.3163 -0.9440 -1.5805
14184TIP3    H263968   0.909   5.735   1.461  1.6287 -0.7077 -1.6389
14185TIP3   OH263969   6.005   5.319   5.896  0.4095 -0.0908  0.2342
14185TIP3    H163970   6.079   5.377   5.876  0.7012 -0.7492 -0.6610
14185TIP3    H263971   5.979   5.344   5.985  1.1142  0.7768  0.2183
14186TIP3   OH263972   3.211   1.159   5.291  0.7900  0.5383  0.0659
14186TIP3    H163973   3.238   1.068   5.300  0.9370  0.5624 -0.1247
14186TIP3    H263974   3.186   1.186   5.380 -2.0779 -0.5669 -0.2902
14187TIP3   OH263975   3.604   3.145   4.623 -0.2176 -0.0368 -0.8651
14187TIP3    H163976   3.687   3.155   4.670 -0.1156 -0.0876 -1.0287
14187TIP3    H263977   3.551   3.088   4.678 -1.1487  2.0735  0.5139
14188TIP3   OH263978   2.992   0.034   4.649 -0.1182  0.5112  0.1286
14188TIP3    H163979   3.023   0.034   4.740 -1.9961  1.2623  0.8180
14188TIP3    H263980   2.909  -0.014   4.652  0.4490 -0.6366 -1.4705
14189TIP3   OH263981   5.226   4.085   5.189 -0.1265 -0.3437 -0.5629
14189TIP3    H163982   5.209   4.000   5.149 -2.6392  0.8378 -2.2199
14189TIP3    H263983   5.290   4.127   5.131  1.1242 -1.0404  0.2627
14190TIP3   OH263984   0.944   3.046  10.872 -0.8503 -0.3162  0.5860
14190TIP3    H163985   1.018   3.100  10.844 -1.9445  0.9307 -0.0139
14190TIP3    H263986   0.917   2.999  10.793 -0.8877 -0.5472  0.7346
14191TIP3   OH263987   0.173   6.080  16.554 -0.4693  0.1216  0.6775
14191TIP3    H163988   0.208   6.015  16.494 -0.8123  1.8229 -1.4739
14191TIP3    H263989   0.079   6.082  16.535 -0.4194  1.4447  0.4839
14192TIP3   OH263990   4.602   5.484  12.722  0.4082 -0.2288 -0.5117
14192TIP3    H163991   4.614   5.511  12.813 -0.9761 -2.0748  0.2912
14192TIP3    H263992   4.683   5.509  12.679  0.4298  2.2430  0.8139
14193TIP3   OH263993   1.198   4.400   5.033 -0.2856  0.1542 -0.4828
14193TIP3    H163994   1.259   4.355   5.092 -0.5900  1.8883  1.2334
14193TIP3    H263995   1.112   4.390   5.075 -0.2745  2.8431  0.3839
14194TIP3   OH263996   2.955   6.344  14.464  0.1434 -0.1926  0.3021
14194TIP3    H163997   3.016   6.373  14.532  0.7975 -1.3208  0.2149
14194TIP3    H263998   2.885   6.409  14.465  1.3747  1.1839  0.3561
14195TIP3   OH263999   6.566   0.129   5.223  0.3194 -0.3699  0.0282
14195TIP3    H164000   6.474   0.105   5.238  0.0720  0.4050 -0.2610
14195TIP3    H264001   6.609   0.108   5.306 -0.4073  0.6643  0.6936
14196TIP3   OH264002   1.882   3.280   3.771 -0.1878 -0.2844 -0.6483
14196TIP3    H164003   1.872   3.270   3.676  0.8592  1.8831 -1.0562
14196TIP3    H264004   1.952   3.218   3.793  0.0707 -0.2922 -1.4268
14197TIP3   OH264005   6.299   2.515  14.528  0.1099  0.4718 -0.2149
14197TIP3    H164006   6.238   2.469  14.469 -1.3881 -0.2494  1.7828
14197TIP3    H264007   6.334   2.586  14.474 -0.2182 -0.8645 -2.3382
14198TIP3   OH264008   1.090   5.797  10.872 -0.1603  0.1028  0.1258
14198TIP3    H164009   1.175   5.842  10.875  1.1900 -2.2321 -0.8798
14198TIP3    H264010   1.054   5.820  10.785 -0.8564  1.4748  0.7334
14199TIP3   OH264011   2.852   6.497  14.917  0.0983  0.8257 -0.6273
14199TIP3    H164012   2.874   6.533  14.831 -0.1964  2.9960  0.1411
14199TIP3    H264013   2.757   6.483  14.914 -0.1775  2.3714 -0.2054
14200TIP3   OH264014   1.484   6.765  11.048  0.2631 -0.0061 -0.3204
14200TIP3    H164015   1.480   6.731  10.959 -0.3393  1.0256 -0.7124
14200TIP3    H264016   1.409   6.824  11.054  0.2869 -0.0741  0.8813
14201TIP3   OH264017   3.331   1.738  12.290 -0.4545 -0.4881 -0.1661
14201TIP3    H164018   3.265   1.758  12.224  1.1056  4.3856 -0.6836
14201TIP3    H264019   3.313   1.799  12.362  2.6380  0.2727  0.1454
14202TIP3   OH264020   2.314   0.828  11.382 -0.1951  0.3936  0.1020
14202TIP3    H164021   2.248   0.794  11.323  0.1254 -0.7581  0.3717
14202TIP3    H264022   2.265   0.878  11.447 -0.9062 -1.0199  0.7012
14203TIP3   OH264023   4.417   2.987  11.112 -0.1092  0.0894  0.8798
14203TIP3    H164024   4.423   2.936  11.030 -0.5087 -0.4001  1.1475
14203TIP3    H264025   4.435   3.077  11.085  0.4630 -0.1686  0.3660
14204TIP3   OH264026   4.396   1.793   0.372 -0.1065 -0.1717 -0.4677
14204TIP3    H164027   4.456   1.740   0.424 -0.1743 -0.5673 -0.7899
14204TIP3    H264028   4.320   1.805   0.428  0.3425  0.4975  0.0189
14205TIP3   OH264029   3.817   0.988   2.560  0.7115  0.1866 -0.2008
14205TIP3    H164030   3.893   1.030   2.600  0.5774  0.6361 -0.4096
14205TIP3    H264031   3.820   1.016   2.468 -1.4603  2.8633  0.4158
14206TIP3   OH264032   3.308   0.184   3.782  0.0162  0.0480 -0.0674
14206TIP3    H164033   3.226   0.135   3.789  0.5317 -0.6747  1.3355
14206TIP3    H264034   3.357   0.141   3.713  0.0072 -0.7664  0.4243
14207TIP3   OH264035   1.697   6.515  14.815 -0.0684 -0.2329  0.4055
14207TIP3    H164036   1.628   6.506  14.880  1.9298  2.3107  3.1183
14207TIP3    H264037   1.691   6.605  14.785  0.9481 -0.4975 -0.6967
14208TIP3   OH264038   4.538   4.676   0.777  0.8115 -0.0511 -0.2002
14208TIP3    H164039   4.446   4.647   0.784  0.4112  1.1911 -0.1027
14208TIP3    H264040   4.589   4.601   0.808 -0.1508 -0.9179 -0.6621
14209TIP3   OH264041   6.303   3.855  12.019 -0.2751 -0.4710  0.0214
14209TIP3    H164042   6.315   3.869  11.925 -1.0889 -2.7898 -0.4896
14209TIP3    H264043   6.244   3.780  12.025 -1.9774  0.9331  2.4143
14210TIP3   OH264044   4.168   2.618   5.617  0.2395 -0.2252  0.2898
14210TIP3    H164045   4.104   2.671   5.569 -0.9079 -0.3321  1.6436
14210TIP3    H264046   4.131   2.609   5.705  2.2930  0.0113  1.2389
14211TIP3   OH264047   4.672   0.529   3.559 -0.2501 -0.1690 -0.5907
14211TIP3    H164048   4.743   0.515   3.622  0.4069  1.4014 -0.9245
14211TIP3    H264049   4.607   0.579   3.608 -0.0305  0.4823 -0.9471
14212TIP3   OH264050   1.490   0.505   0.137  0.1985  0.4472  0.5299
14212TIP3    H164051   1.487   0.597   0.162  0.0921  0.0166  2.2320
14212TIP3    H264052   1.581   0.479   0.150  0.6967  0.7662 -1.8738
14213TIP3   OH264053   2.191   6.226  10.899  0.2675 -0.0692 -0.7150
14213TIP3    H164054   2.194   6.234  10.803  0.0789 -0.4626 -0.7553
14213TIP3    H264055   2.215   6.313  10.931  0.3767  0.0527 -1.1200
14214TIP3   OH264056   2.060   4.734  13.285 -0.0176  0.3582 -0.4425
14214TIP3    H164057   2.059   4.763  13.376 -1.1721 -1.0702  0.0434
14214TIP3    H264058   1.978   4.768  13.249  0.4429  0.9297 -0.9719
14215TIP3   OH264059   2.208   5.586   0.638 -0.3131 -0.6529  0.1603
14215TIP3    H164060   2.133   5.572   0.696 -2.0719  2.3207 -1.1446
14215TIP3    H264061   2.169   5.616   0.556  2.2478  3.3688  0.1386
14216TIP3   OH264062   5.549   6.391   2.613  0.1677 -0.5704 -0.2356
14216TIP3    H164063   5.569   6.484   2.618  0.3854 -0.6794  1.0378
14216TIP3    H264064   5.616   6.355   2.554 -0.4616  0.2017 -1.4834
14217TIP3   OH264065   1.387   5.838  16.626  0.4894  0.2910  0.4095
14217TIP3    H164066   1.400   5.781  16.701 -0.3250 -2.2303 -1.2505
14217TIP3    H264067   1.466   5.893  16.625  1.6094 -1.1898  1.7567
14218TIP3   OH264068   6.287   5.083  13.482  0.7655  0.6270 -0.6124
14218TIP3    H164069   6.265   5.075  13.389 -1.3644 -2.2707 -0.0016
14218TIP3    H264070   6.356   5.019  13.496  1.8027  1.7624 -0.3112
14219TIP3   OH264071   1.348   5.792   3.047  0.6956 -0.2183 -0.1623
14219TIP3    H164072   1.255   5.813   3.055  0.3838 -1.2257 -0.9545
14219TIP3    H264073   1.378   5.842   2.971  0.5712 -0.6063 -0.4712
14220TIP3   OH264074   2.855   3.797   2.699  0.3718  0.2474 -0.4133
14220TIP3    H164075   2.858   3.714   2.651  0.1514  1.4982 -2.7346
14220TIP3    H264076   2.873   3.864   2.633  0.0018  2.1104  1.2681
14221TIP3   OH264077   3.816   4.874  16.000 -0.3636 -0.0773  0.2838
14221TIP3    H164078   3.869   4.827  15.936  0.3748  0.6992  0.3133
14221TIP3    H264079   3.727   4.844  15.984  0.0027 -0.9563 -0.1590
14222TIP3   OH264080   0.870   4.801   3.421 -0.2473 -0.1721  0.3581
14222TIP3    H164081   0.791   4.840   3.459 -0.3374  0.7417 -0.7294
14222TIP3    H264082   0.933   4.872   3.419  0.2771 -0.6343  0.2680
14223TIP3   OH264083   0.260   0.001  15.473 -0.6592 -0.8033  0.3156
14223TIP3    H164084   0.304   0.086  15.478  0.3437 -1.1998 -1.2013
14223TIP3    H264085   0.291  -0.046  15.551  0.2193 -0.4343  0.1982
14224TIP3   OH264086   1.245   2.753  14.164  0.1375 -0.0907 -0.5154
14224TIP3    H164087   1.299   2.738  14.086 -1.8061 -2.6815 -1.5222
14224TIP3    H264088   1.208   2.840  14.152  0.2723 -0.2465 -2.2718
14225TIP3   OH264089   0.734   3.577  14.335 -0.0798  0.1200  0.2754
14225TIP3    H164090   0.740   3.646  14.400 -0.2492 -0.0431  0.4658
14225TIP3    H264091   0.825   3.551  14.319 -0.0872 -0.6510  1.3264
14226TIP3   OH264092   4.251   2.869  12.632 -0.5683  0.3991  0.2565
14226TIP3    H164093   4.191   2.795  12.630  2.7246 -2.5696  0.4913
14226TIP3    H264094   4.334   2.834  12.597  1.4014  3.8224  0.9808
14227TIP3   OH264095   0.349   4.936  12.300  0.4728  0.3511 -0.0639
14227TIP3    H164096   0.335   4.975  12.386  1.3759 -0.2472  0.3736
14227TIP3    H264097   0.261   4.926  12.263 -0.2054 -1.9571  1.9620
14228TIP3   OH264098   6.287   1.290   5.910 -0.4634  0.6256  0.1830
14228TIP3    H164099   6.202   1.290   5.953 -1.9072  0.9075 -2.4612
14228TIP3    H264100   6.345   1.337   5.971 -2.1542  0.3863  2.0723
14229TIP3   OH264101   3.433   3.009  11.892  0.2752  0.1405  0.1131
14229TIP3    H164102   3.469   3.050  11.971  2.0255 -1.8720  0.4538
14229TIP3    H264103   3.421   3.082  11.831 -1.9816  1.9146  2.4291
14230TIP3   OH264104   2.875   2.184  11.071 -0.2876  0.3248  0.1460
14230TIP3    H164105   2.806   2.128  11.108  0.0985 -1.3135 -1.4459
14230TIP3    H264106   2.925   2.125  11.014  0.2069  2.2780 -1.5521
14231TIP3   OH264107   2.034   2.339   4.327 -0.3713  0.2942  0.1037
14231TIP3    H164108   2.130   2.337   4.333 -0.0494 -1.5318 -3.2973
14231TIP3    H264109   2.013   2.431   4.308  0.9705  0.3201 -1.4604
14232TIP3   OH264110   4.494   0.561   3.284 -0.0676  0.0261 -0.1440
14232TIP3    H164111   4.410   0.527   3.255  0.1538 -1.2734  0.6411
14232TIP3    H264112   4.491   0.555   3.380  0.7144  0.4527 -0.0775
14233TIP3   OH264113   2.574   0.628  15.941  0.2343 -0.4805 -0.1027
14233TIP3    H164114   2.525   0.648  15.861  1.3180 -1.1075 -0.9529
14233TIP3    H264115   2.577   0.710  15.988  0.5875  0.2099 -1.2823
14234TIP3   OH264116   1.232   4.240  16.558  0.0516  0.4166  0.7782
14234TIP3    H164117   1.310   4.256  16.612  1.6665  0.1879 -1.3214
14234TIP3    H264118   1.253   4.281  16.474 -2.5013  1.0843  0.3801
14235TIP3   OH264119   3.572   0.069   2.172  0.1716  0.2734 -0.1568
14235TIP3    H164120   3.657   0.027   2.179  0.1411  0.4454  1.9032
14235TIP3    H264121   3.545   0.086   2.262 -1.6287  1.0805 -0.7724
14236TIP3   OH264122   4.024   6.308  14.270 -0.4396 -0.2464 -0.0612
14236TIP3    H164123   4.102   6.350  14.236 -0.1049 -0.8340 -0.0317
14236TIP3    H264124   3.952   6.367  14.246 -0.1116 -0.2324 -1.0209
14237TIP3   OH264125   0.086   6.778  16.019 -0.3945  0.1799  0.2366
14237TIP3    H164126   0.009   6.721  16.008 -0.3325  0.3798 -1.5447
14237TIP3    H264127   0.158   6.717  16.038 -0.4933 -0.2792 -0.7991
14238TIP3   OH264128   3.430   1.209   5.927  0.6588  0.3217 -0.8068
14238TIP3    H164129   3.462   1.280   5.870  2.4551  0.8735  0.7728
14238TIP3    H264130   3.509   1.174   5.967 -0.5545  0.6133  2.0754
14239TIP3   OH264131   0.809   3.269   6.112 -0.0621  0.0353 -1.0099
14239TIP3    H164132   0.874   3.221   6.060  1.3694  1.1299 -0.2980
14239TIP3    H264133   0.781   3.341   6.054  0.3944  0.3567 -0.8409
14240TIP3   OH264134   6.095   5.139  14.073  0.2240 -0.4834  0.0782
14240TIP3    H164135   6.114   5.083  14.148  2.0642  0.1337  0.1259
14240TIP3    H264136   6.174   5.193  14.062 -1.6394  2.6132  0.4681
14241TIP3   OH264137   3.251   0.429  12.249  0.3316 -0.0748  0.4357
14241TIP3    H164138   3.173   0.473  12.216  0.8560 -0.3575 -1.2673
14241TIP3    H264139   3.275   0.366  12.181  1.1000 -1.1797  1.6640
14242TIP3   OH264140   6.218   0.437  10.495  0.0626  0.1204  0.2580
14242TIP3    H164141   6.293   0.399  10.541 -0.4981 -1.3011  0.0416
14242TIP3    H264142   6.164   0.475  10.565 -0.6395 -1.7687  0.8204
14243TIP3   OH264143   1.640   0.684   2.631  0.3060 -0.0262 -0.4155
14243TIP3    H164144   1.663   0.763   2.679 -1.2785 -1.1050  2.3503
14243TIP3    H264145   1.708   0.621   2.653 -1.5967 -1.2444  2.5583
14244TIP3   OH264146   2.965   3.234   3.232  0.1698 -0.6178 -0.5128
14244TIP3    H164147   3.041   3.206   3.283  0.1776  0.0225 -0.1751
14244TIP3    H264148   2.990   3.318   3.195 -0.3827 -0.3901 -0.3824
14245TIP3   OH264149   4.855   5.832   3.958  0.2258 -0.2496  0.0042
14245TIP3    H164150   4.817   5.912   3.921 -0.1489  0.0337  0.9835
14245TIP3    H264151   4.780   5.778   3.982  0.4735 -0.7140 -0.2348
14246TIP3   OH264152   1.293   3.883   2.069  0.0752 -0.6659 -0.1031
14246TIP3    H164153   1.301   3.963   2.017  2.8171  0.3172  1.6045
14246TIP3    H264154   1.205   3.851   2.050 -1.4560  3.1234 -0.3557
14247TIP3   OH264155   2.455   6.632   4.801  0.3935  0.5342 -0.2506
14247TIP3    H164156   2.483   6.543   4.777  1.6620  0.5126  1.1818
14247TIP3    H264157   2.436   6.627   4.894 -3.4529  0.8595 -0.8580
14248TIP3   OH264158   3.295   6.429   5.740 -0.3920  0.4469  0.3942
14248TIP3    H164159   3.260   6.507   5.697 -3.3462  0.8982  3.2123
14248TIP3    H264160   3.331   6.461   5.823  2.2323 -0.7495 -0.1932
14249TIP3   OH264161   3.463   4.299  16.486 -0.0123  0.5834 -0.1819
14249TIP3    H164162   3.390   4.347  16.526 -0.3915  0.5271 -0.7984
14249TIP3    H264163   3.456   4.211  16.521 -0.5731  0.4338 -0.6589
14250TIP3   OH264164   4.863   5.029  11.815 -0.3295  0.2501  0.2726
14250TIP3    H164165   4.862   5.089  11.741 -0.0643 -0.7292 -0.5379
14250TIP3    H264166   4.894   4.946  11.779  0.9751  0.0623  1.7267
14251TIP3   OH264167   6.740   4.096   1.279  0.0599 -0.1743  0.3461
14251TIP3    H164168   6.696   4.019   1.314 -0.1503 -0.2453 -0.0589
14251TIP3    H264169   6.686   4.170   1.307  0.0871 -0.2025  0.4697
14252TIP3   OH264170   2.373   6.661  11.926 -0.0847 -0.1294 -0.1983
14252TIP3    H164171   2.457   6.657  11.970  0.6255 -0.6162 -1.5379
14252TIP3    H264172   2.388   6.718  11.850 -1.2949  0.7978  0.2179
14253TIP3   OH264173   1.825   2.804   1.785 -0.2150 -0.0922 -0.7771
14253TIP3    H164174   1.783   2.806   1.871  0.2816  0.8557 -0.5445
14253TIP3    H264175   1.776   2.867   1.732  0.4879  0.5626 -0.6848
14254TIP3   OH264176   3.446   3.600   0.376  0.4180 -0.0035 -0.0626
14254TIP3    H164177   3.384   3.566   0.312 -1.0548  1.5530  0.4626
14254TIP3    H264178   3.512   3.646   0.324  1.2111 -1.6742 -0.6266
14255TIP3   OH264179   5.748   6.342   2.186  0.1105 -0.7622 -0.5546
14255TIP3    H164180   5.712   6.314   2.102 -2.5698 -0.4830  0.4097
14255TIP3    H264181   5.725   6.271   2.247 -0.8398  0.4539  0.5568
14256TIP3   OH264182   0.164   6.768   4.636 -0.2841 -0.0017 -0.5615
14256TIP3    H164183   0.122   6.716   4.705  0.1985  0.6608  0.2486
14256TIP3    H264184   0.092   6.811   4.590 -0.5718  0.1150 -0.0018
14257TIP3   OH264185   5.819   1.610   2.779 -0.6662 -0.0627 -0.1412
14257TIP3    H164186   5.744   1.645   2.827 -1.0604 -0.3187 -0.5749
14257TIP3    H264187   5.790   1.604   2.689 -0.4219 -1.0340 -0.1600
14258TIP3   OH264188   5.826   5.941   6.544  0.0957 -0.4270 -0.8042
14258TIP3    H164189   5.743   5.984   6.564 -0.4057 -1.8581  0.4195
14258TIP3    H264190   5.800   5.857   6.505  0.8794 -1.3645  0.5751
14259TIP3   OH264191   4.892   0.951   4.985  0.4968 -0.5918  0.3570
14259TIP3    H164192   4.846   1.022   5.029  2.9678 -0.5325  3.1081
14259TIP3    H264193   4.902   0.883   5.051 -0.1108 -2.7963 -1.6552
14260TIP3   OH264194   6.213   1.083   1.955 -0.1002 -0.2425  0.1529
14260TIP3    H164195   6.133   1.113   1.999 -0.0786  0.9035 -0.5321
14260TIP3    H264196   6.239   1.005   2.003 -1.6306 -0.6433  0.3914
14261TIP3   OH264197   5.376   1.355   3.632 -0.1049 -1.1105 -0.0839
14261TIP3    H164198   5.454   1.348   3.577 -0.0088 -1.9943  0.1497
14261TIP3    H264199   5.331   1.272   3.620 -0.5401 -0.9601  0.4861
14262TIP3   OH264200   2.354   4.496   5.916  0.3623 -0.2280  0.3996
14262TIP3    H164201   2.446   4.517   5.902  0.9724 -2.4137  0.7706
14262TIP3    H264202   2.352   4.450   5.999 -1.0356 -0.4993  0.2390
14263TIP3   OH264203   2.524   2.753  16.902 -0.1042 -0.4008  0.1136
14263TIP3    H164204   2.575   2.687  16.951 -0.4594 -0.5334  0.3110
14263TIP3    H264205   2.555   2.745  16.812  1.2182  0.4666  0.4510
14264TIP3   OH264206   3.557   1.741  16.675 -0.2664 -0.5481  0.0433
14264TIP3    H164207   3.574   1.677  16.744 -3.1845 -1.6388 -0.1141
14264TIP3    H264208   3.543   1.823  16.721  0.8538 -0.5700  0.4597
14265TIP3   OH264209   5.737   0.892   5.332  0.1178 -0.0727  0.1472
14265TIP3    H164210   5.664   0.830   5.339 -0.4756  0.6807  0.7674
14265TIP3    H264211   5.760   0.912   5.422  0.9561 -0.1332 -0.0484
14266TIP3   OH264212   6.152   4.087   0.629  0.0931 -0.5361 -0.0788
14266TIP3    H164213   6.077   4.052   0.677  0.2838  0.4006  0.9430
14266TIP3    H264214   6.222   4.091   0.694  0.6946 -0.3099 -0.7340
14267TIP3   OH264215   1.687   5.790  16.260  0.2305 -0.1930  0.0211
14267TIP3    H164216   1.665   5.750  16.343 -1.4502 -0.3312 -0.4526
14267TIP3    H264217   1.628   5.748  16.197  1.7099 -0.3541 -1.3112
14268TIP3   OH264218   4.560   3.288   0.832  0.0292 -0.2283 -0.3604
14268TIP3    H164219   4.507   3.306   0.910  0.8207  1.5353 -0.1973
14268TIP3    H264220   4.650   3.303   0.860  0.3466  0.2113 -1.5559
14269TIP3   OH264221   3.092   3.024   0.258 -0.8798 -0.0402  0.0672
14269TIP3    H164222   3.086   2.984   0.345 -0.0262 -0.2974  0.0157
14269TIP3    H264223   3.153   2.968   0.210 -1.9148 -0.3348 -0.9520
14270TIP3   OH264224   0.332   0.247  16.027 -0.2482  0.2739  0.5381
14270TIP3    H164225   0.353   0.169  16.078  2.6883  0.4776 -0.1861
14270TIP3    H264226   0.298   0.212  15.944 -0.7694 -0.1406  0.9107
14271TIP3   OH264227   0.336   1.763  14.351  0.2355  0.4790  0.0074
14271TIP3    H164228   0.327   1.714  14.269  1.9773  1.7241 -1.0053
14271TIP3    H264229   0.356   1.696  14.416 -2.2365 -0.6701 -0.2856
14272TIP3   OH264230   0.120   1.888   2.427  0.1280 -0.1367  0.2407
14272TIP3    H164231   0.129   1.971   2.472  1.3190  0.5453 -1.1456
14272TIP3    H264232   0.074   1.909   2.346 -0.1872 -0.9562  0.1935
14273TIP3   OH264233   6.471   3.725   2.303 -0.0589 -0.4930  1.2365
14273TIP3    H164234   6.406   3.783   2.343  1.7994  2.4092  0.3349
14273TIP3    H264235   6.509   3.678   2.377 -0.6834  0.4700  2.2048
14274TIP3   OH264236   1.864   4.322  15.349 -0.4170  0.0720  0.2391
14274TIP3    H164237   1.806   4.330  15.425 -0.6815 -0.1929  0.0688
14274TIP3    H264238   1.952   4.324  15.386 -0.5452 -2.1943  0.7936
14275TIP3   OH264239   4.715   1.851  15.815  0.1855 -0.7314  0.1835
14275TIP3    H164240   4.731   1.945  15.825 -0.2210 -0.5974 -0.4117
14275TIP3    H264241   4.642   1.845  15.755  1.3206 -1.4789 -1.1827
14276TIP3   OH264242   0.868   5.702  15.298 -0.1704 -0.4340  0.1277
14276TIP3    H164243   0.831   5.749  15.373  1.3370  1.2338 -0.0899
14276TIP3    H264244   0.813   5.726  15.225  0.5446  1.0492  0.0316
14277TIP3   OH264245   4.424   3.600  12.535 -0.6709 -0.3942 -0.2913
14277TIP3    H164246   4.413   3.675  12.593  0.3415 -0.2199 -0.3042
14277TIP3    H264247   4.510   3.564  12.558 -0.2904 -0.3922 -1.5823
14278TIP3   OH264248   5.830   4.935   1.003 -0.2946  0.1728 -0.1014
14278TIP3    H164249   5.798   5.024   1.011 -2.4786 -0.3182 -2.2496
14278TIP3    H264250   5.767   4.891   0.945  1.4946 -2.3662 -0.3216
14279TIP3   OH264251   3.640   5.416  14.887 -0.2017  0.3351 -0.3730
14279TIP3    H164252   3.602   5.348  14.943  0.1014  1.3749  1.1434
14279TIP3    H264253   3.584   5.493  14.900  0.5935  0.9582 -0.5564
14280TIP3   OH264254   1.387   4.129  11.162  0.4108  0.0288 -0.3573
14280TIP3    H164255   1.352   4.084  11.086 -0.1346  0.8846 -0.6239
14280TIP3    H264256   1.479   4.106  11.164  0.1384 -1.1016 -0.4764
14281TIP3   OH264257   2.971   5.741   3.169 -0.9537  0.3187  0.0570
14281TIP3    H164258   2.991   5.780   3.085  0.3538 -0.9657 -0.2591
14281TIP3    H264259   3.050   5.754   3.221 -1.9620  1.6687  1.3516
14282TIP3   OH264260   4.813   1.049   4.695  0.3623 -0.7068 -0.3063
14282TIP3    H164261   4.878   1.041   4.765  0.4383  0.4076 -0.2393
14282TIP3    H264262   4.730   1.027   4.737  0.5510 -1.0934 -0.1302
14283TIP3   OH264263   4.029   2.944  14.634 -0.0148 -0.0759  0.0525
14283TIP3    H164264   3.999   2.854  14.626 -1.6495  0.4452 -0.1290
14283TIP3    H264265   4.042   2.973  14.544 -2.3787  0.7252 -0.1137
14284TIP3   OH264266   5.755   0.438   5.287 -0.1374 -0.2080 -0.7069
14284TIP3    H164267   5.766   0.446   5.192 -1.7075  2.8691 -0.7470
14284TIP3    H264268   5.717   0.521   5.314 -0.1941 -1.1639  2.5991
14285TIP3   OH264269   0.021   2.094   2.807  0.0948 -0.2084  0.4385
14285TIP3    H164270   0.016   2.131   2.720 -1.8459 -0.5244  0.3593
14285TIP3    H264271  -0.028   2.012   2.801  1.1154 -0.9395  1.5043
14286TIP3   OH264272   0.873   5.419  11.616 -0.0963 -0.1614 -0.3264
14286TIP3    H164273   0.961   5.420  11.578 -0.2651 -0.6286 -0.7481
14286TIP3    H264274   0.817   5.388  11.545 -0.9344  2.0638 -0.7264
14287TIP3   OH264275   0.556   0.890   6.591 -0.0028  0.9860  0.3890
14287TIP3    H164276   0.600   0.826   6.536 -1.9109  0.2664 -0.4032
14287TIP3    H264277   0.540   0.964   6.532 -1.2043  0.5950  0.1837
14288TIP3   OH264278   6.340   0.496   1.035  0.1966 -0.3327  0.6951
14288TIP3    H164279   6.370   0.516   0.946  1.0916  1.8002  1.4090
14288TIP3    H264280   6.252   0.533   1.039  0.1279 -0.4943  0.6696
14289TIP3   OH264281   4.450   1.215   3.855  0.1007  0.0374 -0.8266
14289TIP3    H164282   4.511   1.142   3.853  1.8914  1.4352 -0.7013
14289TIP3    H264283   4.370   1.179   3.893  1.1007 -1.7021 -0.2541
14290TIP3   OH264284   3.530   5.453   5.474 -0.4242 -0.0584  0.5595
14290TIP3    H164285   3.512   5.367   5.436  0.8654  0.1093 -0.4810
14290TIP3    H264286   3.447   5.500   5.467 -0.1242  0.2215 -2.8004
14291TIP3   OH264287   5.833   5.053   1.999  0.1197  0.5085  0.2135
14291TIP3    H164288   5.850   4.962   2.022 -0.1087  0.4937  0.3302
14291TIP3    H264289   5.854   5.102   2.077  0.1340  0.5441  0.1873
14292TIP3   OH264290   5.016   3.462  12.150 -0.3231 -0.0187  0.5176
14292TIP3    H164291   5.071   3.397  12.106 -1.4414  0.5081 -1.8557
14292TIP3    H264292   4.995   3.525  12.081 -3.2312  0.2170  1.4745
14293TIP3   OH264293   0.425   3.922  12.190 -0.4119  0.0384 -0.0484
14293TIP3    H164294   0.367   3.988  12.152 -0.4090 -0.3371 -0.7199
14293TIP3    H264295   0.467   3.881  12.114 -0.4747 -0.7857  0.3515
14294TIP3   OH264296   3.408   4.594   0.631 -0.0800 -0.2404  0.0233
14294TIP3    H164297   3.459   4.605   0.551  0.4335 -0.4264  0.3115
14294TIP3    H264298   3.327   4.642   0.616  0.8549  1.4737  0.1550
14295TIP3   OH264299   3.609   3.788  10.709  0.2478  0.0964  0.1695
14295TIP3    H164300   3.618   3.767  10.802 -0.3873 -0.1781  0.1781
14295TIP3    H264301   3.692   3.761  10.670 -0.2221 -1.7213  0.3129
14296TIP3   OH264302   3.029   1.786   5.504  0.1524  0.1298 -0.4045
14296TIP3    H164303   3.114   1.747   5.525 -0.1558  0.2009  1.1195
14296TIP3    H264304   2.966   1.731   5.551 -0.3821  1.8037  0.9271
14297TIP3   OH264305   3.259   2.101   5.589 -0.3558  0.4100  0.4082
14297TIP3    H164306   3.283   2.157   5.515 -0.4004  0.6078  0.5433
14297TIP3    H264307   3.290   2.149   5.666 -0.2305  0.1628  0.5116
14298TIP3   OH264308   2.129   3.373   5.929  0.7847  0.2680 -0.4017
14298TIP3    H164309   2.043   3.404   5.960  1.7984  1.0946  1.8515
14298TIP3    H264310   2.143   3.420   5.847 -1.1761 -0.4006 -1.1821
14299TIP3   OH264311   4.220   1.341   4.848 -0.5833  0.3394 -0.4946
14299TIP3    H164312   4.133   1.378   4.834 -0.3790  0.0914 -2.6741
14299TIP3    H264313   4.227   1.268   4.786  1.7112  1.2895 -1.4816
14300TIP3   OH264314   4.898   5.706   3.455 -0.4887 -0.0640  0.2889
14300TIP3    H164315   4.929   5.738   3.539  2.4457 -4.0287  0.9837
14300TIP3    H264316   4.939   5.764   3.391  1.1057  0.2097  1.5107
14301TIP3   OH264317   6.680   1.073   3.220 -0.0196  0.0123  0.2019
14301TIP3    H164318   6.765   1.106   3.192  0.5663  0.8570  2.7218
14301TIP3    H264319   6.701   0.993   3.269 -0.9597 -1.1700 -1.2112
14302TIP3   OH264320   2.402   2.120  12.489  0.3247 -0.4146  0.0781
14302TIP3    H164321   2.373   2.044  12.538 -0.4942 -1.8457 -2.4325
14302TIP3    H264322   2.373   2.195  12.541  0.2246 -1.7960  2.1014
14303TIP3   OH264323   3.645   4.046   3.003 -0.0763  0.2664  0.0982
14303TIP3    H164324   3.563   4.053   3.052 -1.2807  1.7627 -1.9523
14303TIP3    H264325   3.706   4.102   3.049 -0.3267 -0.4394  1.3488
14304TIP3   OH264326   0.968   5.007   6.623 -0.1683  0.2039 -0.4448
14304TIP3    H164327   0.961   4.975   6.533  0.7925  1.0830 -0.8589
14304TIP3    H264328   0.977   4.928   6.676 -0.1801 -0.3005 -1.1793
14305TIP3   OH264329   2.641   0.891   6.077  0.5461  0.5310 -0.1295
14305TIP3    H164330   2.646   0.926   5.988  1.1353  0.6821 -0.0428
14305TIP3    H264331   2.593   0.809   6.068 -2.7295  2.2834 -0.0314
14306TIP3   OH264332   1.938   2.351  11.822  0.0248 -0.3062  0.2376
14306TIP3    H164333   1.982   2.290  11.881 -1.3020 -0.2385  1.3314
14306TIP3    H264334   1.962   2.437  11.854 -1.0857 -0.2666  1.0197
14307TIP3   OH264335   6.396   0.144   5.995  1.0635  0.7611  0.8701
14307TIP3    H164336   6.379   0.077   6.061  0.9398  0.2865  0.3680
14307TIP3    H264337   6.337   0.216   6.018  0.2900  0.1994  0.7054
14308TIP3   OH264338   0.554   1.286  11.237  0.3647 -0.1558 -0.6915
14308TIP3    H164339   0.464   1.255  11.235  0.2182  0.2696 -0.7710
14308TIP3    H264340   0.547   1.381  11.240  0.7926  0.1177 -3.9504
14309TIP3   OH264341   0.726   4.200   3.002  0.0969  0.0066  0.1233
14309TIP3    H164342   0.795   4.196   2.936 -0.0067  0.1297  0.0075
14309TIP3    H264343   0.770   4.178   3.084  0.1086 -0.7492 -0.0767
14310TIP3   OH264344   3.422   6.720   0.635 -0.7927  0.3678  0.0415
14310TIP3    H164345   3.362   6.667   0.687  0.5050  0.1466  1.3925
14310TIP3    H264346   3.408   6.692   0.545 -1.4728 -0.9053  0.5248
14311TIP3   OH264347   1.380   1.487   5.447  0.0362 -0.3807 -0.4377
14311TIP3    H164348   1.286   1.500   5.456  0.0673 -1.0862  1.3645
14311TIP3    H264349   1.392   1.392   5.453  0.7949 -0.4013 -1.7426
14312TIP3   OH264350   1.027   6.196  13.448  0.4949  0.8440 -0.1248
14312TIP3    H164351   1.112   6.233  13.427  1.3911 -1.2311 -0.3753
14312TIP3    H264352   1.036   6.163  13.537  0.8027 -1.5876 -1.0052
14313TIP3   OH264353   3.122   5.789  14.157 -0.2108  0.7350 -0.2244
14313TIP3    H164354   3.151   5.698  14.154 -2.5232 -0.0628 -1.5328
14313TIP3    H264355   3.084   5.799  14.245 -2.5848 -0.5836 -0.9934
14314TIP3   OH264356   4.036   1.464   1.823 -0.3326  0.5627 -0.1815
14314TIP3    H164357   4.035   1.372   1.799 -0.9680  0.2491  0.9736
14314TIP3    H264358   4.121   1.496   1.793 -0.6044 -0.0799 -1.7057
14315TIP3   OH264359   6.567   6.243  11.361  0.5480 -0.3439 -0.0043
14315TIP3    H164360   6.585   6.326  11.318 -0.4703 -1.3493 -2.6191
14315TIP3    H264361   6.642   6.187  11.339  0.3333 -0.6778  0.0959
14316TIP3   OH264362   2.217   0.389  13.032  0.3121 -0.4409 -0.6225
14316TIP3    H164363   2.222   0.485  13.034  0.0304 -0.4296 -0.1866
14316TIP3    H264364   2.285   0.362  12.971 -1.3128  0.1548 -2.8515
14317TIP3   OH264365   6.078   2.628  11.122 -0.2229 -0.6979  0.1000
14317TIP3    H164366   6.082   2.712  11.077 -1.9503 -1.6438 -2.0134
14317TIP3    H264367   6.119   2.566  11.062 -0.3515 -1.6163  0.9279
14318TIP3   OH264368   0.111   5.092  14.165  0.0516 -0.3686  0.0696
14318TIP3    H164369   0.073   5.178  14.148  1.0977 -0.0116 -0.5723
14318TIP3    H264370   0.106   5.047  14.081 -0.5621 -0.9697  0.4248
14319TIP3   OH264371   0.867   0.733   2.321 -0.0320  0.4327 -0.2137
14319TIP3    H164372   0.775   0.723   2.298 -0.1589  0.7958  0.1336
14319TIP3    H264373   0.903   0.788   2.251 -0.3007  1.0992  0.1632
14320TIP3   OH264374   4.678   4.831   1.504 -0.3813  0.2965  0.4050
14320TIP3    H164375   4.655   4.762   1.565  1.9548 -0.4213  0.5756
14320TIP3    H264376   4.696   4.786   1.422 -0.3468  0.8689  0.0904
14321TIP3   OH264377   4.825   1.692  12.271 -0.1942  0.4339  0.3601
14321TIP3    H164378   4.836   1.748  12.348  0.9564  0.8848 -0.1049
14321TIP3    H264379   4.879   1.616  12.288  0.6075  0.8448 -0.2718
14322TIP3   OH264380   1.867   6.570  13.420 -0.4814 -0.2188  0.3596
14322TIP3    H164381   1.954   6.530  13.428 -0.1021 -0.0319 -2.0746
14322TIP3    H264382   1.868   6.641  13.483  1.6420  0.5580 -0.4231
14323TIP3   OH264383   6.289   0.389   0.073  0.3673 -0.1764 -0.4734
14323TIP3    H164384   6.310   0.481   0.057 -0.1447 -0.1059 -0.7348
14323TIP3    H264385   6.196   0.389   0.095  0.3243 -0.6526 -0.6463
14324TIP3   OH264386   3.879   1.702   0.842 -0.1448 -0.2980  0.3365
14324TIP3    H164387   3.879   1.797   0.827  0.9520 -0.2975  0.2121
14324TIP3    H264388   3.816   1.689   0.912 -0.8754  0.4305 -0.1644
14325TIP3   OH264389   4.276   4.809  11.577 -0.3022  0.7504  0.1139
14325TIP3    H164390   4.221   4.862  11.634 -1.6489  0.3259 -0.7433
14325TIP3    H264391   4.351   4.785  11.631 -1.1528  1.0028  1.4503
14326TIP3   OH264392   2.227   4.999   0.493 -0.4349 -0.3068  0.6307
14326TIP3    H164393   2.297   5.013   0.429 -0.3947 -0.0775  0.7257
14326TIP3    H264394   2.244   5.063   0.562 -0.6881 -0.3113  0.6975
14327TIP3   OH264395   2.417   2.942   6.064  0.0465  0.1864 -0.2243
14327TIP3    H164396   2.394   2.855   6.095  1.2363  0.0425  0.2953
14327TIP3    H264397   2.458   2.985   6.139  1.8011  0.2737 -1.1848
14328TIP3   OH264398   3.536   2.867   0.423  0.3609  0.4373 -0.2271
14328TIP3    H164399   3.523   2.841   0.514  1.9695  0.3748  0.0062
14328TIP3    H264400   3.514   2.960   0.421  1.2552  0.6777  0.4557
14329TIP3   OH264401   1.473   5.225  14.478 -0.3984  0.0172  0.5994
14329TIP3    H164402   1.496   5.316  14.498  3.2260 -0.0038 -2.3188
14329TIP3    H264403   1.484   5.178  14.560  0.5108  1.7695  1.5313
14330TIP3   OH264404   0.556   2.784  10.931  0.2258 -0.1269  0.4414
14330TIP3    H164405   0.467   2.815  10.913 -0.0663 -1.1403  0.0480
14330TIP3    H264406   0.577   2.726  10.858  1.0208 -0.2907  0.7852
14331TIP3   OH264407   0.012   2.762  12.513 -0.1647 -0.1999 -0.4436
14331TIP3    H164408   0.074   2.823  12.552 -1.5707  1.1389 -0.1889
14331TIP3    H264409  -0.003   2.697  12.582 -0.1911  0.3274  0.0603
14332TIP3   OH264410   2.167   2.668   5.125  0.0476 -0.3540  0.2324
14332TIP3    H164411   2.089   2.616   5.110 -0.4415  0.4905 -0.2284
14332TIP3    H264412   2.232   2.633   5.063  0.0496 -1.0774  0.6415
14333TIP3   OH264413   6.496   2.140  11.305 -0.3940 -0.1567  0.1632
14333TIP3    H164414   6.470   2.060  11.352  0.0172 -0.2386  0.2621
14333TIP3    H264415   6.414   2.179  11.276 -0.5608 -1.2801 -0.9952
14334TIP3   OH264416   5.816   5.351  12.017 -0.2926 -0.0673 -0.2133
14334TIP3    H164417   5.741   5.309  11.976  0.1318  1.6433 -3.0213
14334TIP3    H264418   5.891   5.299  11.989 -0.2015 -0.3431  0.5284
14335TIP3   OH264419   0.661   0.303  15.538  0.2352  0.4089  0.6826
14335TIP3    H164420   0.730   0.258  15.588  1.0789 -0.9196 -1.5493
14335TIP3    H264421   0.609   0.348  15.605  1.2765 -1.2769  2.7513
14336TIP3   OH264422   3.528   5.324   4.368 -0.1366 -0.1791 -0.7138
14336TIP3    H164423   3.477   5.350   4.445 -0.7044  1.1367 -1.4869
14336TIP3    H264424   3.474   5.353   4.294  0.4664 -1.2829 -1.6074
14337TIP3   OH264425   3.028   2.276   5.737  0.1601 -0.3462  0.5247
14337TIP3    H164426   3.019   2.331   5.815 -1.0115 -0.8721  0.7736
14337TIP3    H264427   3.042   2.339   5.666  0.4698  0.1796  1.0394
14338TIP3   OH264428   1.292   1.863   5.614 -0.0338  0.1948  0.4426
14338TIP3    H164429   1.234   1.906   5.676  0.3941 -0.4936  1.3447
14338TIP3    H264430   1.380   1.881   5.646  0.1819 -0.4954  0.2686
14339TIP3   OH264431   3.355   5.321  15.012 -0.3243  0.0173 -0.2416
14339TIP3    H164432   3.392   5.240  14.977 -1.1456 -0.5395  0.1512
14339TIP3    H264433   3.308   5.360  14.939 -1.4730 -0.8050  0.0194
14340TIP3   OH264434   5.083   1.267   4.603 -0.2971 -0.5179  0.4424
14340TIP3    H164435   5.154   1.235   4.547 -0.3087  0.4071 -0.1080
14340TIP3    H264436   5.017   1.300   4.542 -2.1306 -3.1397  0.8316
14341TIP3   OH264437   4.214   2.050  13.739 -0.1596 -0.6350 -0.8344
14341TIP3    H164438   4.172   2.077  13.820  2.0432 -1.7796  0.8045
14341TIP3    H264439   4.291   2.107  13.732  0.8870 -1.9922 -0.8657
14342TIP3   OH264440   2.863   3.529   0.653 -0.6806  0.1807 -0.1985
14342TIP3    H164441   2.832   3.534   0.562  1.2696 -1.9454 -1.0758
14342TIP3    H264442   2.799   3.472   0.697 -1.0578  0.3742 -0.4873
14343TIP3   OH264443   4.249   1.243  15.295  0.0970 -0.3689  0.7645
14343TIP3    H164444   4.334   1.271  15.259 -0.0310 -0.0983  0.6740
14343TIP3    H264445   4.215   1.181  15.230 -0.4028  0.5579  0.1208
14344TIP3   OH264446   1.714   2.382   5.775  0.0668  0.3000 -0.3951
14344TIP3    H164447   1.627   2.422   5.784 -0.6879 -0.6862 -2.7225
14344TIP3    H264448   1.773   2.456   5.762 -0.7681  0.8799 -1.0126
14345TIP3   OH264449   1.154   5.705   1.276  0.4483  0.3503  0.0243
14345TIP3    H164450   1.107   5.624   1.254  1.6115 -0.2530 -0.3259
14345TIP3    H264451   1.223   5.677   1.336  2.0741  0.7183 -1.5771
14346TIP3   OH264452   3.375   2.313   2.154  0.2112  0.5220  0.2344
14346TIP3    H164453   3.458   2.338   2.195 -0.2363  1.6913  0.4629
14346TIP3    H264454   3.325   2.394   2.150 -0.8497 -0.1319 -0.0882
14347TIP3   OH264455   2.896   2.342  13.945  0.3513  0.0036  0.3589
14347TIP3    H164456   2.908   2.429  13.982  0.3068  0.0628  0.2347
14347TIP3    H264457   2.801   2.329  13.946  0.3105  0.2282 -0.2442
14348TIP3   OH264458   1.643   0.062   6.415  0.4045  0.0637 -0.5534
14348TIP3    H164459   1.589   0.136   6.440  0.5445  0.4045 -1.2133
14348TIP3    H264460   1.609  -0.012   6.465 -0.7112  0.2543 -0.9978
14349TIP3   OH264461   1.285   4.890  15.779 -0.0208 -0.1627  0.6349
14349TIP3    H164462   1.266   4.965  15.835  1.1617  0.9391 -0.3627
14349TIP3    H264463   1.377   4.901  15.756  0.2753 -2.1439  0.7551
14350TIP3   OH264464   1.223   6.163  11.123  0.3434 -0.1432 -0.2471
14350TIP3    H164465   1.278   6.187  11.197 -0.3537 -1.7263  0.8435
14350TIP3    H264466   1.276   6.099  11.075 -0.5944 -1.9279  0.9940
14351TIP3   OH264467   1.104   0.006   4.571 -0.1226 -0.3073 -0.4675
14351TIP3    H164468   1.075   0.075   4.510  1.2289 -0.4893 -1.3659
14351TIP3    H264469   1.157  -0.052   4.517 -0.3341 -1.4585  0.5300
14352TIP3   OH264470   4.360   1.984  16.179 -0.1276 -0.4040 -0.3882
14352TIP3    H164471   4.300   2.000  16.251  0.0815 -3.3565  0.5833
14352TIP3    H264472   4.436   1.941  16.219  0.8060 -0.5226 -2.1457
14353TIP3   OH264473   1.852   6.558   2.064 -0.1952 -0.5377 -0.3528
14353TIP3    H164474   1.897   6.568   2.148  2.0875  0.0517 -1.5576
14353TIP3    H264475   1.850   6.463   2.048 -0.9108 -0.6704  0.4734
14354TIP3   OH264476   3.185   2.026   3.463 -0.4909  0.0648  0.5779
14354TIP3    H164477   3.270   2.043   3.424 -0.8277  1.1227  0.2619
14354TIP3    H264478   3.203   1.966   3.535  0.1773 -1.7944 -1.0527
14355TIP3   OH264479   4.366   2.286   1.711 -0.0546  0.6025  0.1824
14355TIP3    H164480   4.411   2.202   1.716 -2.6225 -1.0393 -1.6237
14355TIP3    H264481   4.288   2.274   1.765  0.0743  2.2533  0.7775
14356TIP3   OH264482   5.070   3.159   1.442 -0.2067  0.4791 -0.0412
14356TIP3    H164483   5.147   3.209   1.469  1.3684 -2.0046  0.2996
14356TIP3    H264484   5.064   3.173   1.347  2.0036 -0.9768 -0.4516
14357TIP3   OH264485   4.354   3.827  13.643 -0.1069  0.0402  0.3204
14357TIP3    H164486   4.421   3.808  13.577 -1.1115  0.9807 -1.0342
14357TIP3    H264487   4.303   3.898  13.605 -0.4864  0.8925  2.3233
14358TIP3   OH264488   2.894   6.579   4.517 -0.8551  0.1203  0.2580
14358TIP3    H164489   2.826   6.585   4.451  0.7896  0.2164 -1.5055
14358TIP3    H264490   2.862   6.635   4.589 -0.8529  3.5628 -2.1780
14359TIP3   OH264491   4.958   1.206  14.408 -0.0408  0.2641  0.2086
14359TIP3    H164492   4.962   1.297  14.439 -0.0815 -0.4080  2.3341
14359TIP3    H264493   4.882   1.204  14.350  1.1007  2.0000 -1.5063
14360TIP3   OH264494   1.422   6.460   2.679 -0.1639  0.2089  0.2952
14360TIP3    H164495   1.450   6.480   2.589 -3.2287  1.4569 -0.5387
14360TIP3    H264496   1.501   6.468   2.732  1.9391 -1.3803 -2.3691
14361TIP3   OH264497   3.568   6.742   4.843 -0.2826 -0.0655 -0.1585
14361TIP3    H164498   3.594   6.653   4.818  0.6514  0.5353 -1.4541
14361TIP3    H264499   3.601   6.753   4.932  1.8845 -0.1777 -0.8822
14362TIP3   OH264500   1.497   2.185   5.702  0.0047  0.4240 -0.1984
14362TIP3    H164501   1.424   2.200   5.643 -1.1363  0.3762  1.1582
14362TIP3    H264502   1.504   2.090   5.709  1.0806  0.3807 -1.3293
14363TIP3   OH264503   0.870   3.559   3.847 -0.4718 -0.1900 -0.0786
14363TIP3    H164504   0.775   3.558   3.860 -0.6690 -0.0180 -1.3878
14363TIP3    H264505   0.904   3.503   3.917 -1.6811 -1.6961 -0.6296
14364TIP3   OH264506   0.696   4.204   0.643 -0.0347 -0.4824 -0.0681
14364TIP3    H164507   0.668   4.289   0.609 -0.5385 -0.0088  1.4331
14364TIP3    H264508   0.687   4.212   0.738  2.1646 -1.4216  0.2829
14365TIP3   OH264509   6.192   1.256  12.168  0.2175  0.1119 -0.1583
14365TIP3    H164510   6.227   1.219  12.249  0.8609 -1.7534 -1.2373
14365TIP3    H264511   6.150   1.183  12.123 -0.5325  1.2015 -1.3224
14366TIP3   OH264512   4.154   5.370  16.341  0.4808  0.1584 -0.1096
14366TIP3    H164513   4.096   5.294  16.337  1.2208 -0.5739  1.8248
14366TIP3    H264514   4.202   5.369  16.259 -0.1122 -0.9837 -0.4567
14367TIP3   OH264515   4.802   2.764  11.836 -0.4694  0.5020  0.3738
14367TIP3    H164516   4.820   2.672  11.815  0.3073  0.8163 -0.4033
14367TIP3    H264517   4.707   2.771  11.832 -0.5644 -0.3663  0.8869
14368TIP3   OH264518   6.007   5.520  15.194  0.0241  0.0830 -0.2222
14368TIP3    H164519   6.078   5.572  15.232  0.2867 -1.0539  0.8965
14368TIP3    H264520   6.005   5.546  15.102  2.5245 -0.5336 -0.5279
14369TIP3   OH264521   5.882   5.614   4.771  0.1248  0.2848  0.9430
14369TIP3    H164522   5.840   5.573   4.847 -0.9346  1.0523  0.7923
14369TIP3    H264523   5.970   5.638   4.803  0.4729 -1.3210  1.2683
14370TIP3   OH264524   4.919   0.328   4.617 -0.8981  0.2427  0.0699
14370TIP3    H164525   4.908   0.423   4.613 -0.7463  0.3068  1.0929
14370TIP3    H264526   5.007   0.314   4.650 -1.2847 -0.2469  0.9227
14371TIP3   OH264527   1.612   0.900  12.353 -0.3471  0.1642  0.0859
14371TIP3    H164528   1.571   0.950  12.282 -2.2307  0.0645  1.0398
14371TIP3    H264529   1.669   0.963  12.397  1.7577 -0.0474 -2.1207
14372TIP3   OH264530   0.746   6.640   1.620  0.1963  0.3001  0.7408
14372TIP3    H164531   0.752   6.601   1.707 -1.9962 -2.6729 -0.2540
14372TIP3    H264532   0.775   6.571   1.560  1.2539  2.1098 -0.9678
14373TIP3   OH264533   0.950   1.389   1.648  0.0341  0.4245 -0.0860
14373TIP3    H164534   0.913   1.475   1.666 -0.1264  0.3616 -0.1084
14373TIP3    H264535   1.013   1.404   1.578  2.0744  0.9938  1.7863
14374TIP3   OH264536   1.146   2.877   4.062 -0.4815 -0.7809  0.2718
14374TIP3    H164537   1.189   2.802   4.020 -0.0359  0.2915 -1.2343
14374TIP3    H264538   1.139   2.943   3.993  1.1269  1.4255  2.0923
14375TIP3   OH264539   3.590   6.727  14.466 -0.1196  0.5018 -0.3411
14375TIP3    H164540   3.629   6.706  14.551  0.8034  1.4229 -0.5208
14375TIP3    H264541   3.552   6.644  14.436  0.0394  0.0314  0.7078
14376TIP3   OH264542   3.706   2.278  15.880 -0.2018  0.6368  0.8041
14376TIP3    H164543   3.786   2.258  15.928 -0.6315 -1.5271  0.7225
14376TIP3    H264544   3.650   2.322  15.944  0.2935  0.3189  1.4648
14377TIP3   OH264545   3.817   0.381  14.706 -0.4475  0.8686  0.6736
14377TIP3    H164546   3.746   0.324  14.735  0.2224  0.2129  1.0714
14377TIP3    H264547   3.801   0.392  14.612  0.4288 -1.5493  0.1525
14378TIP3   OH264548   2.488   0.222   3.479  0.6045 -0.2617  1.0909
14378TIP3    H164549   2.418   0.158   3.474 -1.1058  1.5871 -0.8104
14378TIP3    H264550   2.565   0.176   3.445 -0.3335 -1.5802  0.6932
14379TIP3   OH264551   0.057   2.995  16.967 -0.1702 -0.7211  0.6464
14379TIP3    H164552   0.104   2.956  16.893 -0.0072 -1.7911  1.2954
14379TIP3    H264553   0.006   2.923  17.003 -0.8986 -0.0003  1.0673
14380TIP3   OH264554   2.767   3.852   3.676 -0.2715  0.5661  0.3899
14380TIP3    H164555   2.781   3.782   3.739  0.0740  0.5922  0.3425
14380TIP3    H264556   2.803   3.930   3.717  0.2576  0.5180  0.0273
14381TIP3   OH264557   3.036   1.972   1.266 -0.2547  0.2835 -0.5352
14381TIP3    H164558   3.102   1.910   1.235 -0.1887  0.1667 -0.1577
14381TIP3    H264559   3.062   2.056   1.226  0.4771  0.3716  0.1065
14382TIP3   OH264560   1.380   5.599   0.845  0.2758  0.4146  0.2681
14382TIP3    H164561   1.442   5.527   0.840  0.0160  0.2860 -1.5841
14382TIP3    H264562   1.310   5.567   0.901 -0.3104 -1.1685 -1.2938
14383TIP3   OH264563   0.327   0.974  12.188 -0.7299 -0.2919  0.3475
14383TIP3    H164564   0.322   0.922  12.268  0.2592 -0.7705  0.1109
14383TIP3    H264565   0.303   0.913  12.118  0.8129 -0.5663  0.0267
14384TIP3   OH264566   4.123   4.989   2.569 -0.2640 -0.5159 -0.7157
14384TIP3    H164567   4.159   4.904   2.595 -1.1381 -0.9697 -0.9594
14384TIP3    H264568   4.094   5.028   2.652  0.2340 -0.4047 -0.5902
14385TIP3   OH264569   1.664   6.617  12.228  0.5420  0.0854 -0.4435
14385TIP3    H164570   1.611   6.624  12.307  1.3134 -1.8192  0.2894
14385TIP3    H264571   1.678   6.708  12.201 -2.1143  0.7078 -0.0587
14386TIP3   OH264572   6.203   6.570  10.955 -0.1521  0.4057  0.2113
14386TIP3    H164573   6.142   6.498  10.943 -0.7718  0.8274  0.7752
14386TIP3    H264574   6.215   6.577  11.049 -0.7949  1.5989  0.2222
14387TIP3   OH264575   2.405   3.599  11.227 -0.0687  0.2377 -0.3170
14387TIP3    H164576   2.400   3.680  11.177 -0.0074  1.0484  0.9370
14387TIP3    H264577   2.459   3.540  11.174  2.4503  2.0448  0.0988
14388TIP3   OH264578   5.763   0.084  16.359  0.1500  0.9569 -0.1678
14388TIP3    H164579   5.821   0.009  16.354 -1.4934 -0.3084 -1.2426
14388TIP3    H264580   5.815   0.152  16.402  2.7319  0.2088 -1.8509
14389TIP3   OH264581   2.573   4.542   6.367 -0.1543  0.0031 -0.7677
14389TIP3    H164582   2.546   4.451   6.359 -2.0279  0.3741  0.6454
14389TIP3    H264583   2.505   4.592   6.323  0.6911  0.7592 -1.2642
14390TIP3   OH264584   4.132   5.615  11.859  0.2325 -0.2535 -0.5325
14390TIP3    H164585   4.044   5.620  11.897  0.0835 -0.4989 -0.8361
14390TIP3    H264586   4.155   5.523  11.862 -0.7370 -0.6749 -3.0955
14391TIP3   OH264587   0.326   0.698   2.448 -0.6983 -0.1259  0.5656
14391TIP3    H164588   0.370   0.765   2.500  1.5419  0.5869 -2.0467
14391TIP3    H264589   0.252   0.744   2.407 -1.1258 -0.1201  1.3352
14392TIP3   OH264590   2.850   3.537  16.512 -0.6284 -0.0345 -0.6640
14392TIP3    H164591   2.851   3.630  16.491 -1.0930 -0.1721 -1.3272
14392TIP3    H264592   2.897   3.530  16.595  0.8095  0.5912 -1.4031
14393TIP3   OH264593   3.851   2.565   3.015 -0.3559  0.3120 -0.1600
14393TIP3    H164594   3.857   2.632   3.083 -0.5172  0.7342 -0.5561
14393TIP3    H264595   3.761   2.572   2.982 -0.7615 -0.8975  0.5977
14394TIP3   OH264596   3.595   1.006  10.957  0.7542  0.3250 -0.4624
14394TIP3    H164597   3.545   0.961  11.025  0.3046 -1.5237 -1.9497
14394TIP3    H264598   3.560   1.095  10.957  1.1061  0.5281  2.0115
14395TIP3   OH264599   1.568   3.907  14.691 -0.2255 -0.0981 -0.1775
14395TIP3    H164600   1.570   3.811  14.690  0.4248 -0.0857 -1.2730
14395TIP3    H264601   1.574   3.930  14.784  0.4047 -1.1055  0.0403
14396TIP3   OH264602   2.988   0.342   3.127  0.3131  0.5184  0.0222
14396TIP3    H164603   2.917   0.313   3.070 -0.4790  1.0397  0.7190
14396TIP3    H264604   2.971   0.299   3.211  0.4892  1.0951  0.3574
14397TIP3   OH264605   5.796   0.710   3.335 -0.1233  0.2259 -0.1629
14397TIP3    H164606   5.712   0.744   3.304 -0.6140  0.1833  1.0907
14397TIP3    H264607   5.859   0.738   3.268 -0.7150  2.4518  0.1408
14398TIP3   OH264608   5.268   1.552   0.043 -0.2588 -0.4110 -0.5584
14398TIP3    H164609   5.350   1.578  -0.000 -0.9104  0.6583 -1.2017
14398TIP3    H264610   5.203   1.553  -0.027 -1.5153  2.1222  0.5150
14399TIP3   OH264611   5.739   1.825  12.852 -0.0048 -0.1200 -0.0125
14399TIP3    H164612   5.732   1.917  12.826  0.7489  0.0302  0.2833
14399TIP3    H264613   5.720   1.776  12.772  0.2906  0.3048 -0.3457
14400TIP3   OH264614   4.354   0.247   3.359 -0.9813  0.6020  1.1388
14400TIP3    H164615   4.314   0.185   3.420 -0.8312 -0.8423 -0.1662
14400TIP3    H264616   4.311   0.331   3.379 -1.6717 -0.0349  2.5105
14401TIP3   OH264617   3.843   1.960  14.794  0.3800 -0.1230  0.2348
14401TIP3    H164618   3.871   1.940  14.705 -0.3181  0.6110 -0.1681
14401TIP3    H264619   3.749   1.979  14.785  0.6629  1.7417  0.8194
14402TIP3   OH264620   2.184   2.837   2.901  0.0668 -0.3260  0.0820
14402TIP3    H164621   2.196   2.853   2.995  1.3180 -0.4760 -0.0357
14402TIP3    H264622   2.196   2.922   2.861 -0.6165 -0.2343  0.0554
14403TIP3   OH264623   4.171   2.655   0.915 -0.0026 -0.0187  0.5749
14403TIP3    H164624   4.175   2.712   0.992 -1.0848 -0.9365  1.3478
14403TIP3    H264625   4.192   2.568   0.948  0.5273 -0.2704 -0.3794
14404TIP3   OH264626   2.683   4.943  15.934  0.2549  0.3737  0.0750
14404TIP3    H164627   2.614   4.989  15.887  1.4996  1.2509 -0.9812
14404TIP3    H264628   2.757   4.942  15.873  0.6062 -2.1709  0.4468
14405TIP3   OH264629   6.078   0.235  15.793  0.3037  0.0133  0.1279
14405TIP3    H164630   6.038   0.224  15.707 -3.6493  3.6631  1.1781
14405TIP3    H264631   6.036   0.168  15.848 -0.5885  0.5240  0.0934
14406TIP3   OH264632   1.500   0.736  13.129 -0.1953 -0.3827  0.0400
14406TIP3    H164633   1.522   0.794  13.056 -0.9384  0.6222  0.5845
14406TIP3    H264634   1.553   0.767  13.202  0.0838 -0.9893  0.1045
14407TIP3   OH264635   6.674   4.935   2.485  0.5815  0.1969 -0.2892
14407TIP3    H164636   6.725   4.871   2.534 -0.5011 -1.2518 -0.9509
14407TIP3    H264637   6.701   4.922   2.394 -1.1723 -0.9181 -0.7190
14408TIP3   OH264638   2.651   4.832  16.623 -0.5153  0.6199  0.4702
14408TIP3    H164639   2.563   4.822  16.585  0.9537  0.1006 -3.1867
14408TIP3    H264640   2.658   4.759  16.685 -1.6347 -1.2395 -1.4628
14409TIP3   OH264641   3.510   2.052  15.064  0.0811  0.4791  0.4888
14409TIP3    H164642   3.476   1.991  15.131  0.6297 -0.4157 -0.0284
14409TIP3    H264643   3.525   1.997  14.987  0.3934  1.3174 -0.0623
14410TIP3   OH264644   1.460   4.628  15.790 -0.2031  0.0383  0.1299
14410TIP3    H164645   1.414   4.710  15.807 -2.4682 -0.9782 -0.7184
14410TIP3    H264646   1.437   4.572  15.864 -2.3942 -1.2530 -1.4107
14411TIP3   OH264647   5.940   2.322   4.969  0.0911  0.6523  0.0951
14411TIP3    H164648   5.900   2.348   5.053 -1.1485  0.5944 -0.4488
14411TIP3    H264649   5.865   2.311   4.910  0.9288  0.3963 -0.9418
14412TIP3   OH264650   2.846   0.135   1.071  0.1210 -0.1614 -0.4283
14412TIP3    H164651   2.824   0.119   0.979  0.0496  0.3815 -0.5054
14412TIP3    H264652   2.889   0.221   1.071 -1.0612  0.4487  0.2219
14413TIP3   OH264653   2.924   4.592   6.796 -0.0719  0.4654  0.1637
14413TIP3    H164654   2.849   4.532   6.787 -0.4653  0.8539  0.7823
14413TIP3    H264655   2.963   4.570   6.880  1.2176 -0.5002 -0.6445
14414TIP3   OH264656   6.288   2.524   0.682 -0.1819  0.3090  0.5874
14414TIP3    H164657   6.194   2.521   0.702 -0.5738  0.2307 -1.1247
14414TIP3    H264658   6.296   2.591   0.615  0.9950  0.2752  0.6798
14415TIP3   OH264659   1.078   3.935  14.569 -0.4202  0.1772 -0.0872
14415TIP3    H164660   1.084   3.922  14.475 -0.6175  0.1006 -0.0888
14415TIP3    H264661   1.164   3.971  14.594  0.4516 -1.8073  0.0208
14416TIP3   OH264662   6.350   3.812  13.400 -0.0248  0.1014 -0.6988
14416TIP3    H164663   6.370   3.725  13.364 -2.0225 -0.3275 -0.9005
14416TIP3    H264664   6.280   3.846  13.344  0.9680  2.0417 -0.8534
14417TIP3   OH264665   6.671   1.146  16.972 -0.3320  0.1652  0.0946
14417TIP3    H164666   6.756   1.165  17.012  0.8313 -0.9050 -1.7150
14417TIP3    H264667   6.607   1.173  17.038  1.3343  2.4173  0.9504
14418TIP3   OH264668   4.112   5.772  14.918  0.0236  0.2539 -0.0781
14418TIP3    H164669   4.166   5.810  14.848  0.5636 -0.6034 -0.1333
14418TIP3    H264670   4.103   5.680  14.895 -0.1028  0.0362  0.7983
14419TIP3   OH264671   4.075   3.017   0.893 -0.0484  0.3711  0.0152
14419TIP3    H164672   4.099   3.057   0.810  0.3403  0.1333  0.0118
14419TIP3    H264673   4.126   3.065   0.958  0.1259  0.1342  0.0512
14420TIP3   OH264674   6.683   1.699   0.011  0.0750  0.3883 -0.1042
14420TIP3    H164675   6.740   1.678   0.085 -0.7516 -0.0780  0.4296
14420TIP3    H264676   6.661   1.613  -0.027  0.7339  0.6416 -1.0916
14421TIP3   OH264677   2.420   5.952  15.920 -0.1260  0.6545 -0.0753
14421TIP3    H164678   2.463   5.980  15.839  0.8981  0.4658  0.3945
14421TIP3    H264679   2.490   5.916  15.974 -0.5240  2.0375  1.4723
14422TIP3   OH264680   3.426   2.619   0.920  0.3548 -0.2135  0.0193
14422TIP3    H164681   3.395   2.625   1.010 -0.0717 -0.3299 -0.1167
14422TIP3    H264682   3.484   2.694   0.909 -0.3012  0.3138  0.1138
14423TIP3   OH264683   5.710   6.388  11.334  0.3918  0.1979 -0.2917
14423TIP3    H164684   5.670   6.475  11.334  2.7998  1.4255  1.3498
14423TIP3    H264685   5.708   6.361  11.426  0.4559 -1.0892 -0.6574
14424TIP3   OH264686   0.127   3.009   5.676  0.0617  0.0184 -0.6505
14424TIP3    H164687   0.100   2.946   5.609  1.6208  1.0068 -2.2958
14424TIP3    H264688   0.122   2.960   5.758 -1.2968 -1.4351 -1.5393
14425TIP3   OH264689   4.792   5.016  12.419 -0.5566 -0.0988  0.0709
14425TIP3    H164690   4.730   4.945  12.404 -1.5287  0.6747  0.3214
14425TIP3    H264691   4.853   4.982  12.484  0.6035 -1.6459 -1.7281
14426TIP3   OH264692   4.506   6.076  15.363  0.0894 -0.1107 -0.5393
14426TIP3    H164693   4.565   6.071  15.288  1.7422  0.5806  0.6500
14426TIP3    H264694   4.544   6.017  15.427 -0.2278  0.7034  0.4306
14427TIP3   OH264695   5.597   0.035   3.566 -0.2663  0.2691  0.1068
14427TIP3    H164696   5.591  -0.038   3.629  0.6163  0.3179  0.2638
14427TIP3    H264697   5.638  -0.004   3.489  0.1070  0.5741  0.1510
14428TIP3   OH264698   5.697   0.707  12.411  0.0562 -0.4694 -0.1782
14428TIP3    H164699   5.736   0.662  12.336  0.0957 -2.0151  0.7123
14428TIP3    H264700   5.603   0.701  12.396  0.0770  0.6516 -0.8713
14429TIP3   OH264701   5.806   5.193   4.458 -0.1694 -0.4134  0.3200
14429TIP3    H164702   5.850   5.267   4.500  0.7835 -0.8842  0.1707
14429TIP3    H264703   5.713   5.209   4.474  0.0817  0.2522  1.2217
14430TIP3   OH264704   0.539   3.162   4.218  0.0868  0.4467  0.5608
14430TIP3    H164705   0.604   3.130   4.281  2.2937  1.3312 -1.1617
14430TIP3    H264706   0.539   3.257   4.229  0.3217  0.5931 -0.5490
14431TIP3   OH264707   1.343   4.870   3.989  0.3416  0.2507  0.4400
14431TIP3    H164708   1.249   4.855   3.986 -0.0109  1.9067  1.7420
14431TIP3    H264709   1.367   4.891   3.899 -1.0158  2.1488  0.4484
14432TIP3   OH264710   1.940   1.869   2.813  0.3377  0.1656 -0.2432
14432TIP3    H164711   1.987   1.930   2.756  1.4160 -2.1683 -2.0502
14432TIP3    H264712   1.943   1.785   2.766 -1.3233 -1.2366  1.9399
14433TIP3   OH264713   6.420   5.811  13.910 -0.0496 -0.1215  0.7533
14433TIP3    H164714   6.360   5.873  13.869  1.3257  0.8164  0.0778
14433TIP3    H264715   6.367   5.734  13.928 -1.2592  0.3793 -0.5373
14434TIP3   OH264716   6.536   5.929  10.878  0.2851  0.6976 -0.1418
14434TIP3    H164717   6.478   5.937  10.955  1.5108  2.2368  0.6770
14434TIP3    H264718   6.515   5.843  10.842 -1.5184  0.6206  0.9327
14435TIP3   OH264719   0.540   0.006   4.008 -0.2793 -0.6897 -0.0418
14435TIP3    H164720   0.566  -0.027   4.094  2.4222 -0.6054 -0.7233
14435TIP3    H264721   0.487   0.083   4.027  2.1671  0.7377  1.6902
14436TIP3   OH264722   2.628   1.990  13.341 -0.0636 -1.0294  0.0909
14436TIP3    H164723   2.579   2.063  13.378  1.1743  0.2375 -0.6452
14436TIP3    H264724   2.569   1.951  13.277 -0.1266  0.5839 -0.9180
14437TIP3   OH264725   1.164   0.251  12.562 -0.0917  0.1652 -0.0693
14437TIP3    H164726   1.079   0.264  12.520  0.4586 -0.8337 -1.5737
14437TIP3    H264727   1.211   0.334  12.547 -1.0486  1.0243  1.4770
14438TIP3   OH264728   5.379   1.136  11.204  0.3449 -0.2074 -0.3908
14438TIP3    H164729   5.367   1.059  11.150 -0.0375  0.2732 -0.9983
14438TIP3    H264730   5.290   1.164  11.227  0.3913 -2.3994  3.4302
14439TIP3   OH264731   6.735   4.198  16.393  0.5230  0.2653 -0.1035
14439TIP3    H164732   6.781   4.114  16.396  0.9825  0.5256  0.1725
14439TIP3    H264733   6.803   4.263  16.374  0.0449  0.4853 -1.1035
14440TIP3   OH264734   1.318   2.747  14.479  0.2824  0.3369  0.3974
14440TIP3    H164735   1.395   2.738  14.423  2.3193  0.4614  2.9976
14440TIP3    H264736   1.311   2.841  14.495 -0.2842  0.3032  0.3687
14441TIP3   OH264737   4.924   0.364  14.228  0.6386  0.1474 -0.5448
14441TIP3    H164738   4.878   0.299  14.174 -1.8212  0.2097  1.2807
14441TIP3    H264739   4.904   0.338  14.318  0.6119  2.7200  0.2616
14442TIP3   OH264740   2.478   2.399  14.725  0.1638 -0.2187 -0.3271
14442TIP3    H164741   2.434   2.421  14.643  0.6687  2.2414 -0.0192
14442TIP3    H264742   2.570   2.388  14.700  0.5750  1.9147  0.0144
14443TIP3   OH264743   1.769   1.228  11.693  0.9663  0.1794  0.0386
14443TIP3    H164744   1.838   1.164  11.709  2.0721  1.4618  0.6411
14443TIP3    H264745   1.803   1.283  11.622  0.6670  0.9489  0.4793
14444TIP3   OH264746   4.729   5.879  12.821  0.3255 -0.8781  0.1033
14444TIP3    H164747   4.635   5.860  12.818  0.2764 -0.5810 -0.4240
14444TIP3    H264748   4.742   5.922  12.905 -0.6652  2.3116 -1.1789
14445TIP3   OH264749   4.849   0.942  14.466  0.8090 -0.4244  0.1896
14445TIP3    H164750   4.763   0.938  14.507  0.1490  1.6847 -0.8302
14445TIP3    H264751   4.893   1.016  14.508  2.1484 -1.4585  0.6875
14446TIP3   OH264752   0.391   0.108  14.835 -0.7681 -0.1991  0.0118
14446TIP3    H164753   0.418   0.184  14.784 -0.0533 -0.9478 -0.7647
14446TIP3    H264754   0.446   0.110  14.913 -0.3884 -0.1990 -0.2530
14447TIP3   OH264755   5.456   3.487   0.973 -0.4303 -0.1364  0.3734
14447TIP3    H164756   5.416   3.470   0.888 -0.5445  2.2020 -0.1038
14447TIP3    H264757   5.550   3.493   0.954 -0.5870  2.2754 -0.0421
14448TIP3   OH264758   5.284   6.754  14.767  0.3475  0.3290  0.5980
14448TIP3    H164759   5.369   6.772  14.728 -0.0037  1.4479  0.2891
14448TIP3    H264760   5.257   6.670  14.730  1.1995  0.0852  0.5128
14449TIP3   OH264761   1.270   2.609   0.069 -0.1643 -0.4371 -0.2869
14449TIP3    H164762   1.342   2.587   0.129 -0.1299  0.3881 -0.0064
14449TIP3    H264763   1.191   2.594   0.121 -0.1161  0.9674  0.2330
14450TIP3   OH264764   3.277   1.657   1.647  0.1526 -0.4939  0.6206
14450TIP3    H164765   3.308   1.568   1.660  1.3991 -0.3585 -1.1459
14450TIP3    H264766   3.282   1.672   1.553 -0.1477  1.3952  0.8521
14451TIP3   OH264767   4.191   1.389   3.378 -0.2882 -0.3835  0.0659
14451TIP3    H164768   4.154   1.319   3.432 -0.1817 -1.8922 -1.7077
14451TIP3    H264769   4.141   1.385   3.297  0.9733  0.3584 -0.7759
14452TIP3   OH264770   5.732   0.234  15.832 -0.1566 -0.1738 -0.5985
14452TIP3    H164771   5.773   0.174  15.895 -0.4745  2.0350  1.9113
14452TIP3    H264772   5.645   0.252  15.870 -1.2976 -0.4660 -2.9133
14453TIP3   OH264773   2.125   3.954   0.009  0.4368 -0.3255  0.3062
14453TIP3    H164774   2.108   3.953   0.104  2.3148  0.6687  0.6899
14453TIP3    H264775   2.145   4.045  -0.011  3.3254 -1.0097 -0.3854
14454TIP3   OH264776   3.723   1.442  12.765 -0.5588 -0.3827 -0.5604
14454TIP3    H164777   3.732   1.486  12.849  0.2662 -0.6286 -0.5136
14454TIP3    H264778   3.673   1.362  12.784 -0.0786 -0.6075 -0.2430
14455TIP3   OH264779   1.575   6.316   0.829 -0.3896  0.5359 -0.6206
14455TIP3    H164780   1.624   6.378   0.775  0.5769  0.0464 -0.3360
14455TIP3    H264781   1.640   6.250   0.855 -1.5852 -1.1925 -1.7784
14456TIP3   OH264782   0.813   2.256   4.884  0.0195 -0.0034 -0.4516
14456TIP3    H164783   0.730   2.209   4.885  0.4139 -0.7132 -0.2938
14456TIP3    H264784   0.844   2.249   4.794 -0.0601  0.2042 -0.4952
14457TIP3   OH264785   5.320   3.706  16.442  0.5493 -0.1269  0.5787
14457TIP3    H164786   5.310   3.757  16.522  0.4345  1.5519 -0.4735
14457TIP3    H264787   5.268   3.752  16.376 -0.6816 -2.3335 -0.1295
14458TIP3   OH264788   2.225   4.507  16.789  0.1740  0.1576 -0.1103
14458TIP3    H164789   2.130   4.499  16.786  0.3571 -3.3775 -1.5162
14458TIP3    H264790   2.257   4.427  16.748  3.7886  1.9855 -1.2911
14459TIP3   OH264791   5.144   3.849   5.000 -0.2429  0.0612 -0.1219
14459TIP3    H164792   5.099   3.896   4.930  2.0649  0.6244 -1.3283
14459TIP3    H264793   5.212   3.798   4.955 -1.6943 -3.4429  1.2414
14460TIP3   OH264794   0.897   4.612   0.498 -0.1351 -0.1120  0.4654
14460TIP3    H164795   0.890   4.621   0.593  0.0883  1.7989  0.3485
14460TIP3    H264796   0.985   4.645   0.478 -0.8282  1.2057 -0.5441
14461TIP3   OH264797   3.712   3.170  13.074  0.3847  0.4646  0.1490
14461TIP3    H164798   3.802   3.187  13.103  0.7287 -1.0519  0.0618
14461TIP3    H264799   3.716   3.083  13.036 -1.4365 -0.2151  1.4234
14462TIP3   OH264800   4.490   0.302  15.716  0.0990 -0.3016 -0.6737
14462TIP3    H164801   4.503   0.291  15.810  0.2417 -1.9595 -0.8660
14462TIP3    H264802   4.479   0.213  15.682  2.2890  0.0447 -2.5512
14463TIP3   OH264803   4.288   0.250   1.179  0.2355  0.1607 -0.0401
14463TIP3    H164804   4.356   0.239   1.245 -0.4929 -0.9418  0.5372
14463TIP3    H264805   4.208   0.265   1.228  0.1013  1.9565 -0.7194
14464TIP3   OH264806   6.138   3.019   2.282 -0.5452  0.2296 -0.1060
14464TIP3    H164807   6.185   2.937   2.269  0.4058  0.9252 -1.1871
14464TIP3    H264808   6.192   3.086   2.239 -1.8698  1.2542 -0.2604
14465TIP3   OH264809   4.960   3.978   5.746  0.1383  0.0938 -0.0991
14465TIP3    H164810   4.929   4.063   5.780  3.5229  0.5932  2.2436
14465TIP3    H264811   5.047   3.996   5.712  1.6663 -2.6021  1.9525
14466TIP3   OH264812   1.654   5.664  16.500 -0.0204  0.4444 -0.3652
14466TIP3    H164813   1.630   5.747  16.541  0.0090  0.5774 -0.6156
14466TIP3    H264814   1.577   5.609  16.509  1.1400 -0.8784  3.2224
14467TIP3   OH264815   2.304   5.472  15.335 -0.0001  0.3326  0.5000
14467TIP3    H164816   2.384   5.421  15.322  1.2418  2.1623  0.4996
14467TIP3    H264817   2.308   5.540  15.267 -1.4581  0.5831  0.6359
14468TIP3   OH264818   5.791   6.230  12.383  0.8079 -0.3763  0.8321
14468TIP3    H164819   5.747   6.312  12.364 -0.5037 -1.2054  0.0965
14468TIP3    H264820   5.738   6.189  12.452 -1.1976 -2.4934 -1.7089
14469TIP3   OH264821   4.430   6.054  12.640  0.4227 -0.3276 -0.3150
14469TIP3    H164822   4.401   5.979  12.692  1.2128 -0.7016 -0.3959
14469TIP3    H264823   4.480   6.108  12.702 -0.7651  0.5215 -0.0710
14470TIP3   OH264824   2.623   0.269  16.079 -0.4138  0.2168 -0.5938
14470TIP3    H164825   2.564   0.223  16.019 -1.1876 -1.6683  1.4603
14470TIP3    H264826   2.593   0.244  16.166  2.2468  0.7452  0.5800
14471TIP3   OH264827   2.275   5.199   0.703 -0.1430  0.3858  0.2650
14471TIP3    H164828   2.194   5.243   0.678 -0.1715  0.0571 -0.2351
14471TIP3    H264829   2.341   5.269   0.705 -0.3700  0.5997  0.3636
14472TIP3   OH264830   4.048   0.007  16.163  0.6218 -0.3394 -0.1931
14472TIP3    H164831   3.957  -0.017  16.178  0.8483 -0.2679  1.5146
14472TIP3    H264832   4.051   0.102  16.176  1.1655 -0.5218  1.3170
14473TIP3   OH264833   2.916   0.614   4.750 -0.1517  0.1154  0.1168
14473TIP3    H164834   2.986   0.655   4.700 -0.1469 -0.3603 -0.2721
14473TIP3    H264835   2.896   0.533   4.703  0.1201 -0.5346  1.0925
14474TIP3   OH264836   4.853   6.473   2.871 -0.6071 -0.3068  0.6858
14474TIP3    H164837   4.869   6.402   2.809  0.4253  0.8847 -0.4601
14474TIP3    H264838   4.919   6.460   2.940  0.4768  0.2974 -0.2135
14475TIP3   OH264839   1.815   6.211   5.467 -0.0343 -0.8859 -0.4566
14475TIP3    H164840   1.817   6.144   5.399 -0.9225 -0.7930 -0.5742
14475TIP3    H264841   1.827   6.294   5.420 -1.3384 -0.7610 -0.5894
14476TIP3   OH264842   1.138   5.902  14.984 -0.8688  0.7293  0.0803
14476TIP3    H164843   1.150   5.819  14.937 -1.9621  0.4691  0.2422
14476TIP3    H264844   1.180   5.889  15.069  0.3743  0.9096 -0.4811
14477TIP3   OH264845   6.225   4.055   0.137 -0.1165  0.2156 -0.0087
14477TIP3    H164846   6.266   4.005   0.067  1.2132 -0.4078  1.1657
14477TIP3    H264847   6.181   3.990   0.191  0.2761  0.4866  0.6512
14478TIP3   OH264848   1.627   2.744  13.692  0.4658  0.1313  0.3208
14478TIP3    H164849   1.707   2.692  13.680 -0.2125 -0.9371  0.2567
14478TIP3    H264850   1.620   2.795  13.612  1.9808  1.5438  1.0305
14479TIP3   OH264851   1.093   1.943   1.811 -0.3413 -0.4606 -0.5170
14479TIP3    H164852   1.064   1.933   1.901  0.2408  0.0536 -0.2670
14479TIP3    H264853   1.149   1.867   1.796  0.7310  0.1986  0.0358
14480TIP3   OH264854   3.233   3.485   1.871  0.2769 -0.5154 -0.0231
14480TIP3    H164855   3.256   3.569   1.832  0.9388 -0.1073  1.1885
14480TIP3    H264856   3.166   3.507   1.936  0.5389 -0.8992  0.3796
14481TIP3   OH264857   1.442   2.399  10.877 -0.1852  0.0529 -0.4240
14481TIP3    H164858   1.498   2.477  10.883 -0.5771  0.2560  1.3025
14481TIP3    H264859   1.354   2.434  10.866 -0.3703 -0.1171  0.4188
14482TIP3   OH264860   1.328   4.804  15.157  0.6342 -0.8916  0.4402
14482TIP3    H164861   1.373   4.723  15.182  0.1296 -0.8319  1.6005
14482TIP3    H264862   1.332   4.858  15.236 -0.3998 -0.4118  0.1759
14483TIP3   OH264863   5.792   5.893  15.724 -0.1800  0.4971 -0.0414
14483TIP3    H164864   5.760   5.828  15.662  0.3188  0.0995  0.1156
14483TIP3    H264865   5.718   5.908  15.782  0.1455 -1.0366  0.8286
14484TIP3   OH264866   6.518   6.191  12.791  0.2956  0.4176 -0.0793
14484TIP3    H164867   6.510   6.285  12.776 -0.2132  0.7746  2.1458
14484TIP3    H264868   6.600   6.182  12.841 -0.0166 -0.2334  0.3224
14485TIP3   OH264869   3.875   4.986  11.731  0.2202 -0.2301  0.1488
14485TIP3    H164870   3.853   5.071  11.693  0.3524 -0.4564 -0.4420
14485TIP3    H264871   3.913   4.936  11.658 -0.9542 -1.2211  0.1828
14486TIP3   OH264872   3.859   2.465   4.805 -0.1554 -0.0133  0.4966
14486TIP3    H164873   3.936   2.510   4.838  0.8425 -1.2794 -0.0430
14486TIP3    H264874   3.796   2.469   4.877  0.9206 -0.1894  1.4664
14487TIP3   OH264875   0.510   0.108   0.205 -0.0205 -0.1226 -0.3750
14487TIP3    H164876   0.563   0.089   0.282  0.9639  1.3228 -0.6533
14487TIP3    H264877   0.473   0.024   0.180  1.9449 -1.1613 -0.0044
14488TIP3   OH264878   2.451   2.231  13.359 -0.1541  0.6663 -0.2595
14488TIP3    H164879   2.519   2.261  13.298 -0.3262  0.3831 -0.5968
14488TIP3    H264880   2.389   2.304  13.363  0.7005  1.3707  0.8873
14489TIP3   OH264881   1.819   5.448   1.201  0.9175  0.1273 -0.3753
14489TIP3    H164882   1.767   5.514   1.156  1.6314  1.0908  0.1797
14489TIP3    H264883   1.797   5.460   1.294  0.5024 -0.9103 -0.3284
14490TIP3   OH264884   6.322   3.090  15.055 -0.5908  0.6112  0.3207
14490TIP3    H164885   6.264   3.114  14.982 -0.1605  0.5153 -0.0599
14490TIP3    H264886   6.288   3.007  15.087 -0.0511  0.0133 -0.5922
14491TIP3   OH264887   6.012   1.919  14.147 -0.3096 -0.0140 -0.1194
14491TIP3    H164888   5.993   1.833  14.108 -4.8043 -0.0666  1.5481
14491TIP3    H264889   6.043   1.898  14.235 -1.3454  0.0180  0.2655
14492TIP3   OH264890   1.265   1.852   5.046 -0.1154  0.1809  0.1945
14492TIP3    H164891   1.190   1.825   4.994  1.0620  2.9796 -3.3950
14492TIP3    H264892   1.308   1.770   5.071 -2.2582 -1.3756 -0.8879
14493TIP3   OH264893   2.213   2.744  16.444  0.1867  0.3507 -0.0811
14493TIP3    H164894   2.216   2.690  16.365  0.9013 -1.3689  1.0673
14493TIP3    H264895   2.303   2.743  16.477 -0.1692  0.7425  0.9524
14494TIP3   OH264896   3.364   0.710   2.042 -1.0235 -0.5431 -0.6712
14494TIP3    H164897   3.334   0.629   1.999  2.2903 -1.4335 -1.6135
14494TIP3    H264898   3.324   0.707   2.129 -3.9996 -1.2077 -1.9414
14495TIP3   OH264899   2.892   5.193   0.928  0.1340  0.0370  0.0358
14495TIP3    H164900   2.922   5.187   0.838 -1.8497  0.8033 -0.7379
14495TIP3    H264901   2.814   5.136   0.931  1.0092 -1.1816  1.6890
14496TIP3   OH264902   3.458   0.195  13.362 -0.0126 -0.4222 -0.9431
14496TIP3    H164903   3.526   0.257  13.389 -1.1868 -0.0626  1.4627
14496TIP3    H264904   3.496   0.108  13.378  0.4809 -0.2726 -1.2818
14497TIP3   OH264905   2.949   1.923  13.991 -0.1474  0.8931  0.0829
14497TIP3    H164906   3.016   1.969  14.041 -0.3450  0.9343  0.3103
14497TIP3    H264907   2.939   1.839  14.035 -0.6253  1.0988  0.3676
14498TIP3   OH264908   5.070   2.659  16.263  0.6027 -0.4627 -0.1194
14498TIP3    H164909   5.083   2.746  16.225 -1.8323 -0.0137 -0.0627
14498TIP3    H264910   5.079   2.672  16.357 -2.1103  0.3259  0.1233
14499TIP3   OH264911   0.676   4.184   3.740 -0.3784 -0.5351  0.6151
14499TIP3    H164912   0.659   4.090   3.736 -0.9849 -0.4392  0.8497
14499TIP3    H264913   0.600   4.224   3.696 -0.5567 -0.1146  1.2973
14500TIP3   OH264914   2.285   5.455  16.305  0.0264 -0.2453  0.0847
14500TIP3    H164915   2.196   5.487  16.290  0.8618  2.9104  1.1134
14500TIP3    H264916   2.340   5.532  16.291  2.3968 -1.5328  1.7717
14501TIP3   OH264917   4.846   0.591  12.135 -0.0320  0.8547 -0.1252
14501TIP3    H164918   4.799   0.566  12.214  0.0405 -0.6060 -0.5295
14501TIP3    H264919   4.898   0.667  12.162  1.4667 -0.7366  1.7799
14502TIP3   OH264920   5.751   4.099   3.712  0.6484 -0.4934 -0.0278
14502TIP3    H164921   5.722   4.013   3.682 -1.3015  0.5533 -1.4262
14502TIP3    H264922   5.684   4.125   3.776  0.5061  0.4606 -0.5471
14503TIP3   OH264923   4.852   5.106   1.361  0.1059 -0.1769 -1.1955
14503TIP3    H164924   4.777   5.108   1.421 -0.0160 -0.9820 -1.3072
14503TIP3    H264925   4.820   5.148   1.281 -0.3369 -0.7867 -1.3513
14504TIP3   OH264926   5.698   0.369   5.839 -0.0362  0.0115 -0.3321
14504TIP3    H164927   5.604   0.386   5.839  0.2725  2.2308  1.2340
14504TIP3    H264928   5.733   0.429   5.906  2.3461 -1.5883 -0.0080
14505TIP3   OH264929   6.744   6.121   5.551 -0.0497  0.5266 -0.0344
14505TIP3    H164930   6.815   6.128   5.614 -0.7344  2.4887  0.5926
14505TIP3    H264931   6.785   6.088   5.471  0.7606 -2.4878  1.4868
14506TIP3   OH264932   1.902   2.871  11.131  0.3525 -0.2361 -0.0237
14506TIP3    H164933   1.867   2.928  11.199 -0.5257 -0.5513 -0.2008
14506TIP3    H264934   1.924   2.931  11.059  1.8554  0.1774  0.7235
14507TIP3   OH264935   1.427   0.112  13.607 -0.7748 -0.0631  0.1878
14507TIP3    H164936   1.401   0.135  13.697 -1.2407  0.9491 -0.2009
14507TIP3    H264937   1.354   0.141  13.553 -0.3634 -0.4089 -0.5603
14508TIP3   OH264938   3.434   5.626  14.929  0.4784  0.0615  0.3853
14508TIP3    H164939   3.498   5.697  14.927 -0.9023  1.3650  0.6926
14508TIP3    H264940   3.349   5.670  14.929 -0.4604 -1.6113 -0.6989
14509TIP3   OH264941   5.193   1.216  15.971 -0.5832  0.0886 -0.3436
14509TIP3    H164942   5.270   1.215  16.029 -0.3341 -1.0955 -0.6668
14509TIP3    H264943   5.130   1.271  16.017 -0.7380 -1.5106  1.5321
14510TIP3   OH264944   6.805   6.097  11.288 -0.2459  0.8016 -0.1112
14510TIP3    H164945   6.846   6.016  11.317 -2.8798 -0.8330 -0.5596
14510TIP3    H264946   6.795   6.087  11.193 -2.1839  0.7868  0.0477
14511TIP3   OH264947   6.229   0.162  14.546 -0.4653  0.1541  0.3418
14511TIP3    H164948   6.164   0.093  14.560 -0.6141  0.4982  1.4009
14511TIP3    H264949   6.201   0.206  14.467 -1.2870  0.0334  0.5602
14512TIP3   OH264950   2.843   5.838  11.387  0.0118 -0.1816  0.2183
14512TIP3    H164951   2.818   5.772  11.322 -0.5156 -2.0314  2.1671
14512TIP3    H264952   2.819   5.922  11.347 -0.7343 -1.2600 -1.7415
14513TIP3   OH264953   3.558   1.538  13.486  0.6497  0.6451 -0.0405
14513TIP3    H164954   3.564   1.621  13.532  2.4575  0.5030  0.0568
14513TIP3    H264955   3.582   1.472  13.552 -1.8496 -0.1063  0.2007
14514TIP3   OH264956   4.421   6.811   1.367  0.5407 -0.1316 -0.3703
14514TIP3    H164957   4.369   6.818   1.447 -3.6982 -1.1562 -2.7576
14514TIP3    H264958   4.464   6.726   1.373 -1.6107 -1.2562 -0.0821
14515TIP3   OH264959   2.504   3.352  16.769  0.2102 -0.2294  0.5904
14515TIP3    H164960   2.497   3.263  16.805  1.4744 -0.2213  0.8888
14515TIP3    H264961   2.572   3.394  16.822 -1.1149  1.2841  1.1594
14516TIP3   OH264962   2.610   0.026  12.640 -0.0461  1.0071  0.2673
14516TIP3    H164963   2.679  -0.025  12.598 -1.1997 -0.6607  0.2698
14516TIP3    H264964   2.569  -0.036  12.701 -1.2270  2.0729  0.5965
14517TIP3   OH264965   0.741   1.915  11.757  0.1192  0.5830  0.2026
14517TIP3    H164966   0.677   1.904  11.827 -0.8810 -0.1898 -0.7880
14517TIP3    H264967   0.825   1.897  11.798 -0.5893 -1.5362  0.8779
14518TIP3   OH264968   2.214   3.716  16.278  0.4059  0.5362  0.2748
14518TIP3    H164969   2.233   3.699  16.186 -3.0597  1.2214 -0.6983
14518TIP3    H264970   2.231   3.810  16.288 -0.6891  0.7851 -0.1148
14519TIP3   OH264971   3.605   4.781  12.371  0.2456  0.0028  0.2664
14519TIP3    H164972   3.567   4.724  12.304  0.3865 -0.8121  0.8783
14519TIP3    H264973   3.649   4.722  12.432 -0.4686  0.6623  1.4709
14520TIP3   OH264974   1.296   3.919  16.983  0.0392  0.0865  0.1558
14520TIP3    H164975   1.371   3.926  16.924 -0.4129  0.9798 -0.3283
14520TIP3    H264976   1.222   3.950  16.931 -0.5529 -0.1432  0.8499
14521TIP3   OH264977   4.410   5.587   3.660  0.4066 -0.1743 -0.1982
14521TIP3    H164978   4.495   5.590   3.704  0.3449  0.5690 -0.1076
14521TIP3    H264979   4.418   5.650   3.588 -0.3047  0.4787  0.2699
14522TIP3   OH264980   0.676   4.516  14.649 -0.8092 -1.0118 -0.0621
14522TIP3    H164981   0.658   4.609  14.664 -0.6439 -0.8585 -0.7947
14522TIP3    H264982   0.685   4.479  14.737  2.9776  0.4136  0.3353
14523TIP3   OH264983   3.208   3.736   5.817  0.8893  0.1370  0.3248
14523TIP3    H164984   3.137   3.704   5.763  0.1914  2.7226 -0.4243
14523TIP3    H264985   3.189   3.701   5.905 -0.8791  0.1356 -0.0209
14524TIP3   OH264986   1.179   1.458  11.958  0.0075 -0.4091 -0.1722
14524TIP3    H164987   1.169   1.553  11.951 -0.1770 -0.4453 -0.4112
14524TIP3    H264988   1.105   1.430  12.011  0.7198 -0.2816  0.9142
14525TIP3   OH264989   0.117   6.057  14.976  0.3094 -0.4182  0.1523
14525TIP3    H164990   0.042   6.075  15.032  0.9172  0.8091  0.6157
14525TIP3    H264991   0.186   6.029  15.037  1.2783  1.8630  0.2019
14526TIP3   OH264992   5.200   0.831   5.084 -0.2948  0.0554  0.7128
14526TIP3    H164993   5.241   0.790   5.160  0.3631  0.8116  0.7809
14526TIP3    H264994   5.183   0.921   5.111  1.9576  1.0027 -0.7085
14527TIP3   OH264995   6.257   0.164  12.512 -0.1461 -0.0913 -0.4277
14527TIP3    H164996   6.270   0.192  12.602  1.1789  0.8843 -0.8891
14527TIP3    H264997   6.254   0.068  12.517  3.2656 -0.2623  0.3195
14528TIP3   OH264998   1.402   3.119  14.729 -0.0937  0.0023 -0.4501
14528TIP3    H164999   1.356   3.118  14.812  2.3277  0.4410  0.9871
14528TIP3    H265000   1.422   3.211  14.713 -1.7017  0.1017 -2.2842
14529TIP3   OH265001   4.554   4.064   5.552  0.1846 -0.4381 -0.3303
14529TIP3    H165002   4.628   4.094   5.605  0.8077 -0.6300 -1.0777
14529TIP3    H265003   4.477   4.094   5.600  0.7480  0.0490  0.2924
14530TIP3   OH265004   2.638   3.962  16.802  0.5309 -0.0589  0.2308
14530TIP3    H165005   2.615   3.893  16.739 -1.7155 -0.6392  1.5728
14530TIP3    H265006   2.555   4.003  16.825  1.8320  3.6951 -1.0256
14531TIP3   OH265007   6.558   5.300   0.661 -0.5755 -0.3922 -0.1299
14531TIP3    H165008   6.607   5.271   0.584 -1.8170 -0.3240 -0.9779
14531TIP3    H265009   6.473   5.257   0.652 -0.5248 -0.9211  1.5691
14532TIP3   OH265010   3.437   1.012   5.715  0.5947  0.8487  0.1448
14532TIP3    H165011   3.455   1.103   5.688  0.8066  0.4038 -1.3018
14532TIP3    H265012   3.420   1.018   5.809  0.9329  2.3434  0.1393
14533TIP3   OH265013   0.685   4.675  13.015  0.1166  0.8122  0.6077
14533TIP3    H165014   0.777   4.677  12.991 -0.1452  0.9830 -0.4070
14533TIP3    H265015   0.639   4.709  12.939 -0.7735  0.9397  1.1839
14534TIP3   OH265016   3.915   3.693   1.829 -0.3604 -0.0117 -0.4955
14534TIP3    H165017   3.884   3.607   1.801 -0.9684  0.0909 -0.1519
14534TIP3    H265018   4.004   3.678   1.858 -0.5727 -0.5919 -0.1301
14535TIP3   OH265019   3.000   3.780  15.816  0.1408 -0.1010  0.1739
14535TIP3    H165020   2.933   3.714  15.799 -1.3250  0.9774  1.5128
14535TIP3    H265021   3.004   3.831  15.735 -1.1076  0.1752  0.2638
14536TIP3   OH265022   2.564   3.603   4.149  0.0228 -0.4871 -0.3260
14536TIP3    H165023   2.602   3.550   4.079 -1.3096 -1.7150 -0.1594
14536TIP3    H265024   2.485   3.642   4.109  0.2155  0.2403 -0.0188
14537TIP3   OH265025   1.500   3.702   3.272 -0.1109 -0.1007 -0.4060
14537TIP3    H165026   1.503   3.783   3.220  2.3922 -0.5522 -1.0696
14537TIP3    H265027   1.420   3.711   3.324 -2.1131  0.9680 -3.3695
14538TIP3   OH265028   5.358   6.107   6.174 -0.0919  0.0355 -0.1639
14538TIP3    H165029   5.295   6.048   6.216 -0.0025 -0.4199 -0.6516
14538TIP3    H265030   5.311   6.141   6.098  0.2438 -0.3032 -0.5282
14539TIP3   OH265031   5.795   2.738   5.543  0.2460 -0.4052  0.1745
14539TIP3    H165032   5.816   2.661   5.596  2.2051 -0.6831 -0.9172
14539TIP3    H265033   5.835   2.811   5.590  0.3258 -0.3741  0.0581
14540TIP3   OH265034   6.196   4.977   5.755  0.4058 -0.3001 -0.8609
14540TIP3    H165035   6.123   4.992   5.814  0.9383 -0.4207 -0.1646
14540TIP3    H265036   6.218   5.065   5.721  2.1643  0.3205  1.6100
14541TIP3   OH265037   6.588   2.510   1.992 -0.0020  0.1067  0.1560
14541TIP3    H165038   6.512   2.512   1.933 -0.5210 -0.3179  0.7938
14541TIP3    H265039   6.598   2.601   2.021  0.7398  0.4751 -1.1656
14542TIP3   OH265040   4.893   0.410   1.987 -0.0443  0.3324 -0.1542
14542TIP3    H165041   4.865   0.335   2.040 -2.7681  0.3059 -1.4680
14542TIP3    H265042   4.949   0.372   1.920 -2.9724 -1.0330 -2.0349
14543TIP3   OH265043   1.027   3.418  15.158  0.0806  0.6239 -0.0989
14543TIP3    H165044   0.964   3.354  15.191  0.8876  0.5908  1.4777
14543TIP3    H265045   1.112   3.375  15.168  0.8013  2.4234  2.4383
14544TIP3   OH265046   2.879   5.853   1.360 -0.2856 -0.2504 -0.7125
14544TIP3    H165047   2.954   5.804   1.324 -0.2820 -0.7273 -0.0793
14544TIP3    H265048   2.854   5.913   1.290  1.0481  0.3168 -0.7279
14545TIP3   OH265049   4.056   0.707   3.566 -0.6330  0.4407  0.6087
14545TIP3    H165050   4.086   0.708   3.657 -1.3719 -0.4502  0.8783
14545TIP3    H265051   3.987   0.774   3.564 -1.1700 -0.0968  0.9114
14546TIP3   OH265052   4.461   3.537  11.451 -0.9205 -0.0785  0.1010
14546TIP3    H165053   4.378   3.561  11.411 -1.2472 -1.4941 -0.1405
14546TIP3    H265054   4.454   3.567  11.541 -1.4669  0.3035 -0.0640
14547TIP3   OH265055   1.848   4.990  13.129 -0.2616 -0.6548  0.3343
14547TIP3    H165056   1.830   5.084  13.130  0.3210 -0.5139 -0.8634
14547TIP3    H265057   1.794   4.955  13.199 -1.6167  0.3733 -0.1504
14548TIP3   OH265058   5.350   4.732  17.043  0.0291 -0.2334 -0.2844
14548TIP3    H165059   5.422   4.763  17.098 -0.5548  0.8247 -0.0776
14548TIP3    H265060   5.365   4.775  16.958  0.2267 -0.8547 -0.5683
14549TIP3   OH265061   3.305   6.644   4.681 -0.6480 -0.2164  0.3756
14549TIP3    H165062   3.221   6.633   4.637  0.9836 -0.6678 -2.9116
14549TIP3    H265063   3.324   6.558   4.717 -0.9521 -0.5110 -0.1473
14550TIP3   OH265064   6.217   1.008   3.680  0.3302  0.2755  0.0030
14550TIP3    H165065   6.146   1.073   3.685  0.3408  0.3708 -0.9219
14550TIP3    H265066   6.175   0.929   3.647  0.4908  0.0815  0.2665
14551TIP3   OH265067   5.665   2.208   3.790 -0.2565 -0.0800 -0.2390
14551TIP3    H165068   5.688   2.279   3.850  2.6000  0.3825 -1.7261
14551TIP3    H265069   5.569   2.209   3.787 -0.3479  3.2424  0.3603
14552TIP3   OH265070   5.376   4.136   3.299  0.0816  0.0960  0.0144
14552TIP3    H165071   5.377   4.209   3.237 -0.8174 -0.6315 -0.8866
14552TIP3    H265072   5.299   4.085   3.275 -1.5546  0.8762  3.0574
14553TIP3   OH265073   3.552   3.557  12.876 -0.2777 -0.5376 -0.0028
14553TIP3    H165074   3.558   3.646  12.910 -0.9217 -1.4541  2.7131
14553TIP3    H265075   3.471   3.557  12.824 -0.4738  0.3490  0.2886
14554TIP3   OH265076   6.404   2.448   9.947  0.0544  0.7345 -0.0458
14554TIP3    H165077   6.431   2.362   9.979 -0.0072  0.9497  0.5853
14554TIP3    H265078   6.322   2.466   9.993 -0.1941  0.9123 -0.5530
14555TIP3   OH265079   1.983   6.724   4.327 -0.0683 -0.0931  0.2006
14555TIP3    H165080   1.913   6.699   4.266  0.0278 -0.7511  0.3560
14555TIP3    H265081   1.974   6.663   4.400  0.7481 -0.2569  0.1655
14556TIP3   OH265082   2.998   5.085  12.270  0.0436  0.2617  0.1357
14556TIP3    H165083   2.987   5.036  12.352  1.0861  0.9906  0.7253
14556TIP3    H265084   2.929   5.051  12.213 -1.0040  0.0678  1.4658
14557TIP3   OH265085   0.019   0.246   5.724  0.0727 -0.0254 -0.5163
14557TIP3    H165086  -0.073   0.266   5.738 -0.0621 -0.8900 -0.0986
14557TIP3    H265087   0.041   0.291   5.642 -0.5393  0.7175 -0.2821
14558TIP3   OH265088   5.629   6.626  14.033  0.3272  0.2014 -0.8203
14558TIP3    H165089   5.689   6.621  13.958 -1.1623 -0.4025 -2.0210
14558TIP3    H265090   5.549   6.583  14.003 -0.0684 -0.7859  1.3996
14559TIP3   OH265091   3.472   0.532  12.778 -0.5859  0.1942  0.3290
14559TIP3    H165092   3.498   0.448  12.739 -1.7487  0.3149 -0.8041
14559TIP3    H265093   3.526   0.597  12.733 -0.7684  0.1847  0.0939
14560TIP3   OH265094   6.548   1.429  16.856  0.0964  0.2557  0.1205
14560TIP3    H165095   6.582   1.453  16.943 -2.8735  0.8691  1.2444
14560TIP3    H265096   6.556   1.509  16.805  0.6981  0.2637  0.2197
14561TIP3   OH265097   2.620   3.675   5.495 -0.4598 -0.4951 -0.3854
14561TIP3    H165098   2.656   3.730   5.565  0.2350 -1.0501 -0.3000
14561TIP3    H265099   2.677   3.692   5.420  0.3822 -1.8351 -0.0786
14562TIP3   OH265100   3.416   6.187   2.422 -0.1383 -0.0128  0.4938
14562TIP3    H165101   3.464   6.123   2.370  0.5577  1.0117 -0.1604
14562TIP3    H265102   3.361   6.135   2.480  0.5625 -1.1985  0.1200
14563TIP3   OH265103   5.596   5.376   0.262  0.2101 -1.3421  0.4243
14563TIP3    H165104   5.581   5.371   0.357 -0.7612  1.2437  0.5044
14563TIP3    H265105   5.521   5.426   0.229  0.3596 -2.4609 -1.7847
14564TIP3   OH265106   4.570   1.643  11.038 -0.4295  0.4225 -0.3180
14564TIP3    H165107   4.527   1.709  10.984  1.1021  1.3436 -0.4848
14564TIP3    H265108   4.637   1.605  10.981 -0.7236 -0.6901  0.0475
14565TIP3   OH265109   0.492   4.037  16.889  0.4427  0.1177 -0.0178
14565TIP3    H165110   0.438   4.089  16.829 -1.2970  0.5274  1.7779
14565TIP3    H265111   0.513   3.957  16.840 -1.0800  0.3468 -1.1148
14566TIP3   OH265112   1.797   4.291  12.549  0.0501 -0.5382  0.3464
14566TIP3    H165113   1.717   4.248  12.577 -0.1888  0.9781  2.1891
14566TIP3    H265114   1.769   4.355  12.483 -0.6987  1.5147  2.5081
14567TIP3   OH265115   0.768   6.294  15.157  0.0790 -0.7877  0.0693
14567TIP3    H165116   0.746   6.212  15.201  0.2135 -1.6555 -1.4163
14567TIP3    H265117   0.835   6.270  15.093 -0.4883  0.3046 -0.9833
14568TIP3   OH265118   0.157   5.856  12.715 -0.4080 -0.3756 -0.2474
14568TIP3    H165119   0.203   5.785  12.671 -0.0105 -0.5564  0.4379
14568TIP3    H265120   0.213   5.877  12.790 -0.1197  1.1959 -0.8653
14569TIP3   OH265121   4.261   4.225   3.561  0.4566  0.1910 -0.3542
14569TIP3    H165122   4.354   4.228   3.536  0.9577  0.5759  1.3671
14569TIP3    H265123   4.247   4.306   3.610 -0.7535  0.0487 -0.4289
14570TIP3   OH265124   5.952   2.438  12.644  0.1801  0.2992  0.3875
14570TIP3    H165125   5.906   2.431  12.560  0.5833  1.3249  0.0767
14570TIP3    H265126   6.030   2.384  12.632 -1.1643 -1.9428  1.1168
14571TIP3   OH265127   0.297   0.804   4.857  0.4656 -0.5524  0.1327
14571TIP3    H165128   0.376   0.763   4.823  0.2134 -0.2512 -0.8384
14571TIP3    H265129   0.305   0.896   4.833 -0.8525 -0.7739 -1.3006
14572TIP3   OH265130   4.924   3.361  15.843  0.0892 -0.9132  0.4992
14572TIP3    H165131   4.985   3.295  15.812  0.0360 -1.0256  0.6336
14572TIP3    H265132   4.840   3.315  15.851 -0.3872 -0.3926 -1.1976
14573TIP3   OH265133   3.397   2.442   4.720  0.1979 -0.4730  0.0405
14573TIP3    H165134   3.432   2.358   4.689  2.3373 -0.0896  1.2395
14573TIP3    H265135   3.356   2.421   4.804  0.7421 -0.3563  0.3455
14574TIP3   OH265136   1.349   0.773   3.423  0.4668 -0.3950 -0.1810
14574TIP3    H165137   1.359   0.853   3.475 -0.8004 -0.1689 -0.2550
14574TIP3    H265138   1.425   0.773   3.365  0.8964  0.3432  0.3644
14575TIP3   OH265139   1.979   1.913  14.523 -0.0187 -0.4839  0.5168
14575TIP3    H165140   1.905   1.946  14.573 -0.2383 -0.3440  0.1088
14575TIP3    H265141   2.032   1.991  14.504  1.4816 -0.8518  2.7572
14576TIP3   OH265142   5.423   2.706  12.143  0.3475  0.7229  0.2973
14576TIP3    H165143   5.343   2.721  12.092  1.4795  0.1936 -1.7159
14576TIP3    H265144   5.452   2.794  12.168  0.3219  1.0754 -0.8610
14577TIP3   OH265145   6.283   3.701  10.846 -0.4697 -0.2486 -0.1982
14577TIP3    H165146   6.298   3.787  10.808  0.0234 -0.6533 -0.9374
14577TIP3    H265147   6.281   3.716  10.941 -1.1008  0.6752 -0.3543
14578TIP3   OH265148   2.175   5.542  14.190  0.1099 -0.3986  0.4806
14578TIP3    H165149   2.112   5.493  14.242 -0.0816 -1.1560 -0.4584
14578TIP3    H265150   2.247   5.481  14.175 -0.3651 -0.5894 -1.1448
14579TIP3   OH265151   0.670   3.171  13.504 -0.3631 -0.1478  0.4386
14579TIP3    H165152   0.624   3.087  13.508 -1.1994  0.1721 -1.5488
14579TIP3    H265153   0.736   3.164  13.573  0.4083 -2.9304 -0.4274
14580TIP3   OH265154   1.469   2.295  16.085  0.4960 -0.0729  0.0949
14580TIP3    H165155   1.425   2.212  16.065 -0.3221  0.5179 -0.6619
14580TIP3    H265156   1.445   2.314  16.176  0.3261 -0.4473  0.1299
14581TIP3   OH265157   6.807   4.001   2.907 -0.2610  0.1895  0.3240
14581TIP3    H165158   6.811   4.013   3.002  1.4420  2.7111  0.0380
14581TIP3    H265159   6.757   3.920   2.895 -1.1934  0.1984  3.3133
14582TIP3   OH265160   5.830   2.648  12.709 -0.3083  0.0859 -0.1832
14582TIP3    H165161   5.797   2.621  12.795  0.0430  0.6772  0.1456
14582TIP3    H265162   5.866   2.567  12.672  0.2754 -0.0229  0.5748
14583TIP3   OH265163   6.254   5.592  13.938 -0.2039  0.0542 -0.1926
14583TIP3    H165164   6.235   5.508  13.897 -1.1034 -0.5783  1.4394
14583TIP3    H265165   6.179   5.647  13.914  1.1929  1.0531 -2.7430
14584TIP3   OH265166   0.442   3.190   3.649  0.2204 -0.2571 -0.3835
14584TIP3    H165167   0.533   3.208   3.624 -0.3274  1.6539 -1.0976
14584TIP3    H265168   0.444   3.192   3.745  0.6560  1.3737 -0.4012
14585TIP3   OH265169   0.828   1.252  11.312 -0.2270 -0.1027 -0.2214
14585TIP3    H165170   0.838   1.175  11.257 -1.7425  0.7136 -1.7725
14585TIP3    H265171   0.739   1.284  11.292  0.0317  1.5338  1.0019
14586TIP3   OH265172   3.834   2.378  11.313 -0.5052 -0.0194 -0.0531
14586TIP3    H165173   3.740   2.365  11.321 -0.5195 -0.7872 -1.2400
14586TIP3    H265174   3.871   2.290  11.308  0.2687  0.2717  0.3057
14587TIP3   OH265175   6.800   0.079  14.106  0.0223  0.4752 -0.1609
14587TIP3    H165176   6.883   0.064  14.061  0.4047  1.5056  0.1595
14587TIP3    H265177   6.736   0.090  14.035 -0.1199 -1.6317 -0.3998
14588TIP3   OH265178   0.845   6.810  10.768  0.3418  0.5140  0.3325
14588TIP3    H165179   0.757   6.802  10.805  0.4332  1.5221  0.8005
14588TIP3    H265180   0.832   6.794  10.674  0.0048 -1.3832  0.6576
14589TIP3   OH265181   0.926   4.534  11.351 -0.1962 -0.0161  0.5276
14589TIP3    H165182   0.906   4.619  11.310 -0.1087 -0.4499 -0.4460
14589TIP3    H265183   1.022   4.532  11.358 -0.1821 -0.1463  0.3011
14590TIP3   OH265184   1.898   2.546   1.154  0.1608  0.2498  0.6847
14590TIP3    H165185   1.844   2.500   1.219 -0.2585 -0.1762  0.0418
14590TIP3    H265186   1.983   2.502   1.160 -0.7577 -2.0593 -1.3203
14591TIP3   OH265187   6.652   1.296   2.809  0.4169 -0.2862  0.1274
14591TIP3    H165188   6.567   1.272   2.845 -0.1774  1.0142 -0.3378
14591TIP3    H265189   6.645   1.278   2.715  0.3071  0.6966 -0.0640
14592TIP3   OH265190   6.784   0.421  15.227  0.2274  0.1642  0.7674
14592TIP3    H165191   6.763   0.328  15.235 -0.0295  0.2738  1.4333
14592TIP3    H265192   6.796   0.435  15.133 -0.3170 -0.4138  0.6044
14593TIP3   OH265193   3.901   1.883  14.506  0.1336  0.2294 -0.2039
14593TIP3    H165194   3.933   1.903  14.418 -2.0757  0.0556 -1.1234
14593TIP3    H265195   3.843   1.808  14.494 -0.9126  0.7531  1.2485
14594TIP3   OH265196   6.702   5.793   1.904 -0.4208 -0.0586 -0.1760
14594TIP3    H165197   6.796   5.805   1.912 -0.5702  0.4445  1.1163
14594TIP3    H265198   6.692   5.702   1.874  0.4843  0.3005 -1.6506
14595TIP3   OH265199   2.195   1.720  13.825 -0.1276  0.0249  0.2473
14595TIP3    H165200   2.269   1.692  13.879 -0.6069 -0.2531  0.7689
14595TIP3    H265201   2.163   1.799  13.868  0.2970  0.5496 -0.3801
14596TIP3   OH265202   2.776   2.246  15.345  0.4428  0.9309 -0.4082
14596TIP3    H165203   2.752   2.309  15.413 -0.6681  0.4779 -0.3566
14596TIP3    H265204   2.848   2.288  15.298  0.9897  1.4056  0.8021
14597TIP3   OH265205   0.642   0.793   5.969 -0.1358  0.8785  0.2843
14597TIP3    H165206   0.635   0.795   5.874  0.6439  2.0078  0.2380
14597TIP3    H265207   0.714   0.732   5.986 -0.1027  0.8794  0.1509
14598TIP3   OH265208   5.907   4.489  17.054  0.7076 -0.7661 -0.2926
14598TIP3    H165209   5.886   4.396  17.061  0.8791 -0.9125 -1.4535
14598TIP3    H265210   5.943   4.512  17.140  0.5796 -1.7425  0.0399
14599TIP3   OH265211   2.331   5.252  15.548 -0.1145 -0.5336 -0.0199
14599TIP3    H165212   2.265   5.234  15.614  1.8986  0.9653  2.6331
14599TIP3    H265213   2.337   5.348  15.545  2.1398 -0.5987  0.1807
14600TIP3   OH265214   1.022   5.920  15.699  0.2598 -0.2835  0.1503
14600TIP3    H165215   0.943   5.898  15.649  0.5715 -0.9474 -0.0679
14600TIP3    H265216   1.061   5.993  15.650  0.7722 -1.1846 -0.8223
14601TIP3   OH265217   5.331   1.652  15.557  0.4057 -0.1439 -0.8249
14601TIP3    H165218   5.304   1.725  15.500  2.4637  0.0658 -1.6481
14601TIP3    H265219   5.250   1.610  15.582 -0.6978  0.7896 -2.5787
14602TIP3   OH265220   3.112   3.824  13.716 -0.0432 -0.5358  0.1640
14602TIP3    H165221   3.041   3.874  13.676 -0.4604 -1.7721 -0.6847
14602TIP3    H265222   3.184   3.887  13.724 -1.1819  0.7335  0.9999
14603TIP3   OH265223   6.641   5.231   5.226  1.1081 -0.6238 -0.4356
14603TIP3    H165224   6.578   5.292   5.264  0.8934  0.1646 -1.9563
14603TIP3    H265225   6.723   5.281   5.223  1.0336 -0.5310 -1.2900
14604TIP3   OH265226   6.792   1.855  13.784  0.1367 -0.0672  0.3471
14604TIP3    H165227   6.775   1.783  13.724  0.8216 -0.6380  0.8167
14604TIP3    H265228   6.885   1.876  13.771  0.0374  0.4722  0.4909
14605TIP3   OH265229   6.455   5.115  11.300  0.0954  0.1158 -0.4908
14605TIP3    H165230   6.532   5.087  11.250  0.6357  1.8835 -0.7210
14605TIP3    H265231   6.451   5.055  11.374  0.6365 -1.1158 -1.4298
14606TIP3   OH265232   6.455   1.698   4.655  0.1846  0.3843  0.0576
14606TIP3    H165233   6.462   1.669   4.746 -0.5720 -1.7342 -0.5029
14606TIP3    H265234   6.496   1.628   4.604 -0.9705  0.6691 -1.3469
14607TIP3   OH265235   2.000   2.729  12.460 -0.4225 -0.2818  0.7597
14607TIP3    H165236   1.928   2.789  12.441  2.8951  3.2987 -2.3122
14607TIP3    H265237   2.060   2.780  12.516  1.1788 -1.8719  0.5992
14608TIP3   OH265238   0.636   0.110   2.776 -0.5797 -0.4717 -0.5768
14608TIP3    H165239   0.580   0.112   2.854 -2.2080 -1.9140 -1.6468
14608TIP3    H265240   0.725   0.105   2.810 -1.3019 -2.0943  1.2103
14609TIP3   OH265241   0.309   1.520  14.916 -0.2938 -0.2300 -0.3784
14609TIP3    H165242   0.323   1.458  14.844 -0.5770 -1.4521  0.5730
14609TIP3    H265243   0.390   1.517  14.967  0.2390  1.2813 -1.0929
14610TIP3   OH265244   2.585   1.410   4.032 -0.1291 -0.1734 -0.5657
14610TIP3    H165245   2.566   1.422   3.939  1.5255  1.4745 -0.7493
14610TIP3    H265246   2.609   1.317   4.039 -0.3529 -0.3418 -1.7796
14611TIP3   OH265247   5.322   0.144   0.081 -0.2458 -0.1757 -0.1738
14611TIP3    H165248   5.345   0.093   0.159  0.3330  0.3635  0.0158
14611TIP3    H265249   5.395   0.204   0.069 -0.7751  0.4030 -0.5702
14612TIP3   OH265250   5.668   1.601   1.700 -0.2395 -0.2567  0.1979
14612TIP3    H165251   5.630   1.548   1.770 -2.0606  0.3407 -0.2711
14612TIP3    H265252   5.639   1.558   1.619 -1.1891  1.0068 -0.1832
14613TIP3   OH265253   5.622   0.492  16.196 -0.0918  0.0313  0.2846
14613TIP3    H165254   5.631   0.507  16.102 -0.6776 -0.2216  0.1838
14613TIP3    H265255   5.547   0.432  16.204  0.6908 -0.9202  0.8219
14614TIP3   OH265256   1.825   6.123  16.414  0.6712  0.1558  0.1279
14614TIP3    H165257   1.777   6.204  16.396  0.6417 -0.0615 -0.7938
14614TIP3    H265258   1.854   6.092  16.328  0.9264 -0.6664  0.5000
14615TIP3   OH265259   1.091   3.076  12.654  0.2427  0.0885  0.2006
14615TIP3    H165260   1.038   3.013  12.703  1.2575 -0.3620  0.7402
14615TIP3    H265261   1.163   3.100  12.713 -0.1499  1.8276  0.0387
14616TIP3   OH265262   2.924   5.484  14.519 -0.0010  0.0148  0.3562
14616TIP3    H165263   2.907   5.533  14.599 -0.4488  0.0148  0.2635
14616TIP3    H265264   2.848   5.501  14.464  0.2437 -0.0906 -0.0196
14617TIP3   OH265265   3.288   5.713   4.676  0.3215 -0.2397 -0.4167
14617TIP3    H165266   3.240   5.685   4.754 -2.4893  0.7075 -1.6722
14617TIP3    H265267   3.230   5.692   4.603  2.5309 -0.4254 -2.2366
14618TIP3   OH265268   2.045   3.739   3.832  0.1394  0.3123 -0.2614
14618TIP3    H165269   2.070   3.703   3.746  0.7697  1.3571 -0.5355
14618TIP3    H265270   2.026   3.831   3.815  0.7356  0.6516  0.7910
14619TIP3   OH265271   1.699   1.401  12.414  0.7280 -0.0182 -0.1168
14619TIP3    H165272   1.724   1.364  12.330 -1.1568  0.0887 -0.7700
14619TIP3    H265273   1.752   1.480  12.422 -0.8068  1.3737 -2.4373
14620TIP3   OH265274   0.591   3.988  13.071  0.0523 -0.4280 -0.4920
14620TIP3    H165275   0.624   4.009  12.984  0.4037 -1.6119 -0.6552
14620TIP3    H265276   0.625   4.058  13.127  0.0668  0.1760 -1.2384
14621TIP3   OH265277   3.373   2.162   0.643  0.2833  0.1850 -0.1273
14621TIP3    H165278   3.279   2.169   0.660  0.3563 -0.8847  0.8099
14621TIP3    H265279   3.394   2.241   0.594 -0.7420  1.3928  1.2932
14622TIP3   OH265280   0.182   5.557  14.554  0.0382  0.5842 -0.0529
14622TIP3    H165281   0.091   5.548  14.581  0.0478 -0.0014 -0.2048
14622TIP3    H265282   0.209   5.469  14.530  1.1084  0.4769  1.4611
14623TIP3   OH265283   1.725   2.748  14.522  0.2125 -0.1979  0.5067
14623TIP3    H165284   1.817   2.769  14.507 -0.0548  0.8404  0.2703
14623TIP3    H265285   1.702   2.799  14.600 -0.6426  0.9984 -0.4990
14624TIP3   OH265286   5.036   3.194  14.160 -0.2010 -0.3245 -0.4069
14624TIP3    H165287   5.111   3.251  14.176  0.2059 -0.7636 -0.7249
14624TIP3    H265288   4.974   3.250  14.113  0.0598 -0.0519 -0.4364
14625TIP3   OH265289   5.265   4.448   4.458 -1.1447  0.4447  0.2681
14625TIP3    H165290   5.295   4.506   4.528 -0.1268  0.6951 -0.3503
14625TIP3    H265291   5.326   4.464   4.386 -2.3091  0.3671 -0.7653
14626TIP3   OH265292   0.129   4.904   4.673  0.0770  0.5088 -0.2414
14626TIP3    H165293   0.080   4.916   4.592  1.5369 -1.2768 -1.4677
14626TIP3    H265294   0.122   4.811   4.693  1.8087  0.4486  0.2712
14627TIP3   OH265295   5.933   4.807  13.716 -0.1844 -0.7348  0.0615
14627TIP3    H165296   5.953   4.892  13.756  0.4861 -0.7333 -0.2646
14627TIP3    H265297   5.934   4.825  13.622 -1.3507 -0.8237  0.0125
14628TIP3   OH265298   4.730   1.617   1.154  0.4894  0.0411 -0.6226
14628TIP3    H165299   4.702   1.544   1.211  0.4849 -0.1387 -0.8540
14628TIP3    H265300   4.816   1.641   1.188  1.0741 -0.9295 -1.3387
14629TIP3   OH265301   4.889   1.039  13.715  0.0411 -0.1473 -0.1839
14629TIP3    H165302   4.894   0.992  13.798  0.7353  1.3542  0.6621
14629TIP3    H265303   4.808   1.090  13.722 -0.3139 -0.6121 -0.7832
14630TIP3   OH265304   4.062   0.955  11.778 -0.5990  0.4392  0.4019
14630TIP3    H165305   3.966   0.959  11.769 -0.4430  1.5171 -1.1039
14630TIP3    H265306   4.079   1.005  11.858 -1.1240  3.3222 -1.1321
14631TIP3   OH265307   3.074   0.394   3.440 -0.4272  0.1500  0.1335
14631TIP3    H165308   3.081   0.442   3.522 -0.9396 -0.7774  0.7394
14631TIP3    H265309   2.995   0.341   3.449  1.3724 -2.6956  0.5585
14632TIP3   OH265310   3.600   3.026  10.627 -0.0888 -0.2292  0.4657
14632TIP3    H165311   3.659   3.070  10.566 -0.9905 -1.1944 -1.1892
14632TIP3    H265312   3.530   3.090  10.643  0.4057  0.2106  0.9189
14633TIP3   OH265313   0.262   1.923  16.252  0.0913 -0.2865  0.4905
14633TIP3    H165314   0.333   1.981  16.277  0.3238 -0.8045  1.0431
14633TIP3    H265315   0.183   1.977  16.259 -0.0377 -0.6901  3.5914
14634TIP3   OH265316   4.125   1.105  13.711 -0.7906 -0.2018  0.7575
14634TIP3    H165317   4.182   1.110  13.634  0.8197  0.4833  1.9416
14634TIP3    H265318   4.043   1.068  13.678  0.9264 -3.0998 -0.7001
14635TIP3   OH265319   1.773   2.911   0.480 -0.3321 -0.2135  0.0690
14635TIP3    H165320   1.700   2.971   0.464 -0.3177  0.5496  2.4600
14635TIP3    H265321   1.830   2.958   0.540  1.0023 -1.6599 -0.0045
14636TIP3   OH265322   1.948   0.170   5.376 -0.3414 -0.1110  0.1658
14636TIP3    H165323   1.877   0.208   5.324  0.2825  0.1479 -0.5077
14636TIP3    H265324   2.024   0.225   5.358  0.1200 -0.5812  0.6226
14637TIP3   OH265325   4.007   5.670   5.000 -0.2500  0.1504  0.2104
14637TIP3    H165326   3.938   5.604   5.000 -0.5672  0.4769 -0.1489
14637TIP3    H265327   4.088   5.620   5.006 -0.5235 -0.2247  1.0141
14638TIP3   OH265328   2.149   5.997  12.745  0.4265 -0.2794  0.2650
14638TIP3    H165329   2.096   5.971  12.669  1.7650 -0.5116 -0.6060
14638TIP3    H265330   2.133   5.928  12.809 -1.0573  0.1384  0.3903
14639TIP3   OH265331   4.044   1.526  10.997 -0.1364  0.4083 -0.2414
14639TIP3    H165332   3.955   1.492  10.995  0.2591 -0.7250  0.3701
14639TIP3    H265333   4.049   1.585  10.922 -2.3148  2.9890  1.4619
14640TIP3   OH265334   5.337   2.556   6.513 -0.4442 -0.6013 -0.1083
14640TIP3    H165335   5.411   2.497   6.522  1.4557  1.2727 -2.1805
14640TIP3    H265336   5.322   2.590   6.602  0.9375 -1.2941  0.4168
14641TIP3   OH265337   4.721   2.970   2.848  0.5937 -0.5439 -0.2826
14641TIP3    H165338   4.719   3.010   2.761  0.5798 -0.0808 -0.0717
14641TIP3    H265339   4.703   2.878   2.832 -0.9421 -0.2033 -0.6145
14642TIP3   OH265340   4.985   2.038   3.521  0.2064 -0.2449 -0.9009
14642TIP3    H165341   5.047   2.061   3.452  1.0465 -0.6634 -0.3042
14642TIP3    H265342   4.913   1.994   3.475 -0.5158  1.7915 -1.8109
14643TIP3   OH265343   5.920   2.327   1.725  0.4392 -0.1101  0.7426
14643TIP3    H165344   5.947   2.237   1.740  1.1971  0.1402  0.9450
14643TIP3    H265345   5.954   2.375   1.800 -0.7535  0.2022  1.1100
14644TIP3   OH265346   2.586   4.226   1.451 -0.1803  0.2476 -0.0358
14644TIP3    H165347   2.508   4.262   1.492 -0.5518 -1.8338  1.2466
14644TIP3    H265348   2.555   4.148   1.405  1.0512 -0.3757  0.1411
14645TIP3   OH265349   6.487   4.019   3.238 -0.5366 -0.0668  0.2550
14645TIP3    H165350   6.480   3.987   3.329  0.7540 -1.1321  0.0175
14645TIP3    H265351   6.488   4.114   3.246 -0.0676 -0.1480  1.4121
14646TIP3   OH265352   0.484   1.273   3.773  0.3347  0.1190  0.3525
14646TIP3    H165353   0.527   1.334   3.714 -0.9790  0.8311  0.0971
14646TIP3    H265354   0.477   1.321   3.856 -1.8343  0.8374 -0.2008
14647TIP3   OH265355   3.810   2.255  16.304 -0.1026 -0.5191  0.5415
14647TIP3    H165356   3.735   2.306  16.334  0.5647  0.2749  0.8914
14647TIP3    H265357   3.778   2.165  16.300 -1.6593  0.0585 -1.2680
14648TIP3   OH265358   5.851   3.191  10.578  0.1082 -0.7616  0.2408
14648TIP3    H165359   5.894   3.105  10.574 -1.8317 -1.7568 -1.0121
14648TIP3    H265360   5.918   3.253  10.552  0.5516 -2.3634 -2.9288
14649TIP3   OH265361   3.131   4.155   5.951  0.2670  0.4301  0.1578
14649TIP3    H165362   3.195   4.152   6.022 -0.4168 -1.3031  0.7494
14649TIP3    H265363   3.184   4.150   5.871  0.9181 -0.2325  0.6174
14650TIP3   OH265364   2.571   3.655  11.682 -0.4481  0.3821 -0.5441
14650TIP3    H165365   2.599   3.565  11.697  0.4089  0.8561  0.8846
14650TIP3    H265366   2.479   3.648  11.654 -0.4788 -0.9051 -0.1381
14651TIP3   OH265367   3.717   1.579  12.249  0.0023 -0.3899 -0.1389
14651TIP3    H165368   3.787   1.570  12.314 -0.8402 -0.7948  0.7497
14651TIP3    H265369   3.720   1.498  12.199  0.2568 -0.3496 -0.1867
14652TIP3   OH265370   5.054   6.129  11.468  0.4708  0.7103  0.1950
14652TIP3    H165371   5.077   6.198  11.406 -0.8564  0.2771 -0.8185
14652TIP3    H265372   5.092   6.050  11.431 -1.1614  0.2753 -0.6406
14653TIP3   OH265373   1.985   2.988   5.668 -0.2852 -0.2566 -0.3416
14653TIP3    H165374   2.049   3.048   5.707  0.4818 -0.9527 -0.4887
14653TIP3    H265375   1.901   3.030   5.681  0.1440  0.3808  0.4474
14654TIP3   OH265376   5.795   5.968  11.601 -0.3638 -0.7800  0.1510
14654TIP3    H165377   5.746   5.894  11.566 -0.3340 -0.5673 -0.3416
14654TIP3    H265378   5.773   5.970  11.694 -1.0392 -0.8790 -0.0074
14655TIP3   OH265379   2.982   3.577  16.748  0.2195 -0.1302 -0.1637
14655TIP3    H165380   2.989   3.614  16.836 -0.0819 -1.2580  0.3572
14655TIP3    H265381   3.034   3.497  16.752 -0.7061 -0.7759 -0.6668
14656TIP3   OH265382   0.940   3.429  10.308 -0.4132  0.1667 -0.7594
14656TIP3    H165383   1.013   3.486  10.286 -1.7443  1.8085 -1.1818
14656TIP3    H265384   0.957   3.402  10.398  1.7037 -1.1687 -1.4927
14657TIP3   OH265385   5.174   5.597   2.659 -0.6178 -0.2224 -0.0889
14657TIP3    H165386   5.127   5.531   2.607  1.3769 -1.7893  0.0051
14657TIP3    H265387   5.256   5.555   2.683  1.3134  2.6990 -1.0349
14658TIP3   OH265388   4.280   2.608  16.140 -0.1091  0.7130 -0.0706
14658TIP3    H165389   4.356   2.549  16.146 -1.0615 -0.4146  1.3883
14658TIP3    H265390   4.312   2.680  16.086  1.3102 -0.8001 -1.4117
14659TIP3   OH265391   0.582   6.268   3.484  0.0977 -0.6436  0.0071
14659TIP3    H165392   0.487   6.261   3.496  0.2862 -0.9311  1.5015
14659TIP3    H265393   0.593   6.348   3.432 -0.9228 -0.0532  0.6454
14660TIP3   OH265394   1.678   0.002   2.794 -0.0839 -0.2952  0.3936
14660TIP3    H165395   1.681   0.045   2.880 -1.0092  0.7886 -0.0973
14660TIP3    H265396   1.692   0.073   2.731  2.2851 -1.3252 -0.3450
14661TIP3   OH265397   0.015   4.412  16.908 -0.1555 -0.0552  0.2063
14661TIP3    H165398   0.004   4.344  16.975 -0.7477 -0.7754 -0.6047
14661TIP3    H265399   0.109   4.430  16.907 -0.0516 -0.5381  0.7494
14662TIP3   OH265400   4.005   0.889   0.606  0.3362  0.2724 -0.1668
14662TIP3    H165401   4.007   0.816   0.544  0.8182 -1.5667  1.8859
14662TIP3    H265402   3.947   0.860   0.676  1.8329  1.1183  1.5244
14663TIP3   OH265403   4.909   5.964  11.124  0.2107  0.1846 -0.2938
14663TIP3    H165404   4.862   6.047  11.127  0.6157  0.4012  0.0816
14663TIP3    H265405   4.961   5.969  11.044 -0.2157  0.0439 -0.5841
14664TIP3   OH265406   4.961   0.182  13.077  0.7436 -0.6987 -0.1257
14664TIP3    H165407   4.970   0.086  13.082 -0.1336 -0.7490  0.8988
14664TIP3    H265408   4.869   0.198  13.096  0.6206  0.3005 -1.4531
14665TIP3   OH265409   6.694   2.384   1.377  0.1258  0.4922  0.0727
14665TIP3    H165410   6.739   2.377   1.293  0.7616  0.9812  0.3628
14665TIP3    H265411   6.634   2.458   1.365  0.2435  0.5863  0.0599
14666TIP3   OH265412   0.577   2.465   1.395 -0.4190  0.1392 -0.5563
14666TIP3    H165413   0.668   2.492   1.397 -0.5141  0.4214  0.6186
14666TIP3    H265414   0.573   2.386   1.449 -0.8484  0.0641 -0.6888
14667TIP3   OH265415   5.698   3.418   1.663 -0.0582  0.0161  0.5238
14667TIP3    H165416   5.629   3.453   1.719 -0.2504  1.1624 -0.3772
14667TIP3    H265417   5.694   3.472   1.584 -0.0399 -1.7921 -0.7685
14668TIP3   OH265418   1.198   0.665  12.262 -0.5874 -0.3261  0.5437
14668TIP3    H165419   1.243   0.692  12.342 -3.1508  3.5175  0.9733
14668TIP3    H265420   1.260   0.686  12.191 -0.1423  1.0362  1.2958
14669TIP3   OH265421   2.155   4.241   0.002  0.4256  0.3116  0.2417
14669TIP3    H165422   2.249   4.258   0.002  0.5396 -0.3172  0.0928
14669TIP3    H265423   2.116   4.325  -0.024  1.0124  0.1907 -1.0875
14670TIP3   OH265424   0.093   6.031   5.749 -0.3330  0.4824 -0.0332
14670TIP3    H165425   0.082   5.964   5.816 -0.5175  0.5150 -0.0315
14670TIP3    H265426   0.136   6.104   5.794  1.7282 -0.3938 -0.4776
14671TIP3   OH265427   5.426   3.634   5.474  0.3604 -0.4527 -0.2604
14671TIP3    H165428   5.429   3.577   5.550  0.8090  1.1046  0.9536
14671TIP3    H265429   5.502   3.692   5.485  0.6367 -0.4074 -2.0859
14672TIP3   OH265430   5.165   2.645  16.530 -0.0628 -0.3045  0.5278
14672TIP3    H165431   5.257   2.648  16.504 -0.6343 -0.7218 -1.7385
14672TIP3    H265432   5.164   2.584  16.604  1.2816 -1.6263 -0.4681
14673TIP3   OH265433   3.543   0.921  16.506  0.1513  0.0011  0.4151
14673TIP3    H165434   3.554   0.826  16.505 -1.3522 -0.2042 -1.0811
14673TIP3    H265435   3.498   0.941  16.424 -1.0311  1.8320  1.4397
14674TIP3   OH265436   5.437   2.485   2.542 -0.1524 -0.7708 -0.5584
14674TIP3    H165437   5.405   2.541   2.472  0.5384  2.4195  1.4940
14674TIP3    H265438   5.390   2.515   2.620  3.1074 -0.2703  1.3660
14675TIP3   OH265439   6.687   3.771  13.952  0.1709  0.3614 -0.6458
14675TIP3    H165440   6.661   3.757  13.861 -0.2449 -0.6479 -0.3841
14675TIP3    H265441   6.728   3.688  13.978  1.2704  1.0081 -0.2341
14676TIP3   OH265442   2.096   1.266   6.021  0.2945 -0.6717  0.1660
14676TIP3    H165443   2.156   1.264   5.946  0.4823 -0.3068  0.3033
14676TIP3    H265444   2.053   1.351   6.014 -1.9893 -1.8577 -1.3056
14677TIP3   OH265445   2.705   2.330  14.984  0.6985 -0.3909 -0.0095
14677TIP3    H165446   2.678   2.281  14.907 -2.1536  1.4001 -0.2954
14677TIP3    H265447   2.646   2.299  15.054  0.6380  0.7176  0.4539
14678TIP3   OH265448   0.831   4.160  12.053  0.4114  0.2659  0.0247
14678TIP3    H165449   0.783   4.090  12.097 -0.0570  0.9373  0.5992
14678TIP3    H265450   0.780   4.178  11.974  0.6652 -0.1930 -0.2531
14679TIP3   OH265451   4.905   6.590   3.524  0.3952  0.3459 -0.1142
14679TIP3    H165452   4.903   6.672   3.474 -0.3596 -0.4942 -1.5167
14679TIP3    H265453   4.994   6.557   3.514  1.3537  1.9585  2.1802
14680TIP3   OH265454   1.771   4.017   1.632 -0.2194 -0.2536  0.5009
14680TIP3    H165455   1.737   3.933   1.663  0.3414 -0.7291 -0.1243
14680TIP3    H265456   1.700   4.080   1.647 -1.2104 -1.1285 -0.4002
14681TIP3   OH265457   5.469   4.026  15.659 -0.4925 -0.1117 -0.2790
14681TIP3    H165458   5.437   4.107  15.619  2.7113  2.4670  1.9169
14681TIP3    H265459   5.552   4.008  15.616 -0.5540 -1.6146  0.1466
14682TIP3   OH265460   3.152   6.403  13.788 -0.1892  0.6531 -0.0603
14682TIP3    H165461   3.197   6.485  13.806  1.3974 -0.2408  0.2360
14682TIP3    H265462   3.208   6.359  13.724 -0.5435 -0.5854  0.4583
14683TIP3   OH265463   0.263   2.309  15.112  0.1171  0.3845 -0.2198
14683TIP3    H165464   0.176   2.320  15.149  0.6521  1.0367  0.8980
14683TIP3    H265465   0.279   2.214  15.116  0.6631  0.5206  2.5182
14684TIP3   OH265466   6.102   4.071   2.721 -0.1017 -0.2577 -0.2909
14684TIP3    H165467   6.114   3.983   2.686 -1.4201 -1.1050  1.2171
14684TIP3    H265468   6.070   4.057   2.810  0.1000  1.7650  0.1568
14685TIP3   OH265469   3.955   2.197   5.027  0.1377  0.1608  0.3932
14685TIP3    H165470   4.012   2.124   5.051 -0.2396 -0.6399 -1.0554
14685TIP3    H265471   3.895   2.206   5.101  1.9865  0.9300  1.8869
14686TIP3   OH265472   0.641   5.234   1.934  0.1789  0.1118 -0.0898
14686TIP3    H165473   0.632   5.199   2.022 -2.7368  0.6820 -0.0547
14686TIP3    H265474   0.690   5.315   1.945 -0.3775  0.3065  1.0671
14687TIP3   OH265475   4.335   2.522   2.670 -0.3184 -1.1500  0.0139
14687TIP3    H165476   4.315   2.584   2.601  0.4724 -1.5232 -0.5762
14687TIP3    H265477   4.388   2.572   2.733 -2.4156 -0.3491  1.2425
14688TIP3   OH265478   0.429   3.310   1.323 -0.6149 -0.2354  0.0349
14688TIP3    H165479   0.343   3.275   1.346 -1.0766 -0.6929 -2.1579
14688TIP3    H265480   0.479   3.307   1.405 -2.8014  0.5050  1.4873
14689TIP3   OH265481   6.709   1.760  14.712 -0.4320 -0.6342  0.2094
14689TIP3    H165482   6.753   1.758  14.797 -0.3106 -0.3479  0.1548
14689TIP3    H265483   6.631   1.813  14.726 -1.4602 -2.1840  0.6255
14690TIP3   OH265484   3.026   0.721  13.007  0.0319 -0.6421 -0.4124
14690TIP3    H165485   3.028   0.629  13.034  2.0771 -0.2811  0.9093
14690TIP3    H265486   2.952   0.758  13.055  0.7109 -1.0898  1.0558
14691TIP3   OH265487   4.144   1.812   3.356 -0.1960  0.0558 -0.3480
14691TIP3    H165488   4.149   1.763   3.438 -0.6402 -1.9515 -1.4542
14691TIP3    H265489   4.074   1.876   3.370 -1.3851 -1.3604  0.2993
14692TIP3   OH265490   2.269   6.191   1.797  0.5026  0.2990  0.4483
14692TIP3    H165491   2.320   6.256   1.749  0.8083 -1.4296 -1.6874
14692TIP3    H265492   2.332   6.121   1.816 -0.3787 -0.5005  0.4680
14693TIP3   OH265493   4.960   5.935  16.844  0.0319 -0.0984  0.1712
14693TIP3    H165494   4.964   5.961  16.752 -0.5785 -0.0348  0.1586
14693TIP3    H265495   4.936   6.015  16.891 -1.5994 -0.5310  0.1614
14694TIP3   OH265496   3.295   3.544   4.745 -0.4319  0.4758 -0.4220
14694TIP3    H165497   3.217   3.599   4.733 -0.6834 -0.1050 -1.6443
14694TIP3    H265498   3.351   3.565   4.671  0.0465  0.0299 -0.1925
14695TIP3   OH265499   0.168   4.061   5.800  0.1276 -0.3254 -0.0692
14695TIP3    H165500   0.204   3.973   5.789 -0.2109 -0.3796 -0.8448
14695TIP3    H265501   0.239   4.111   5.839  0.8107 -0.6005 -0.9301
14696TIP3   OH265502   5.632   3.387   0.515  0.0733  0.1281 -0.3354
14696TIP3    H165503   5.573   3.311   0.516 -0.1089  0.2241 -1.7104
14696TIP3    H265504   5.720   3.348   0.509  0.1100  0.0096  0.7144
14697TIP3   OH265505   0.062   5.063  15.265  0.2809 -0.0969  0.3352
14697TIP3    H165506   0.015   5.024  15.339  0.1990 -0.1342  0.2636
14697TIP3    H265507   0.059   5.157  15.281 -0.5986 -0.0357 -0.1320
14698TIP3   OH265508   5.963   5.580   5.409  0.1651  0.3771  0.0431
14698TIP3    H165509   5.993   5.634   5.482  1.3831 -1.0738  0.6704
14698TIP3    H265510   6.023   5.601   5.338  1.9956 -1.5332  0.8959
14699TIP3   OH265511   5.333   6.542  15.810 -0.6457  0.2188  0.2400
14699TIP3    H165512   5.405   6.595  15.843 -0.9225  0.2169  0.8693
14699TIP3    H265513   5.344   6.457  15.851 -0.2574 -0.2029 -0.6952
14700TIP3   OH265514   3.248   4.675   3.907  0.3527 -0.1158  0.4127
14700TIP3    H165515   3.312   4.668   3.978 -1.9550 -1.5219  2.4796
14700TIP3    H265516   3.270   4.603   3.848  0.4660 -0.8033  1.2829
14701TIP3   OH265517   1.842   3.734  11.216  0.7355  0.9111  0.2570
14701TIP3    H165518   1.859   3.826  11.235  1.6764  0.5112  1.5055
14701TIP3    H265519   1.859   3.725  11.122  2.7320  1.5884  0.5007
14702TIP3   OH265520   0.142   6.444  11.915 -0.3796 -0.0965 -0.0181
14702TIP3    H165521   0.059   6.475  11.952  0.2975  0.5618  1.0153
14702TIP3    H265522   0.174   6.379  11.978 -1.0557 -1.8902 -1.4247
14703TIP3   OH265523   3.561   3.477  13.507 -0.3019  0.2467 -0.8568
14703TIP3    H165524   3.563   3.432  13.592 -0.7453  0.3243 -0.8030
14703TIP3    H265525   3.550   3.569  13.529 -0.5329  0.2542 -1.0021
14704TIP3   OH265526   5.846   6.786   2.711 -0.2072  0.2450 -0.0777
14704TIP3    H165527   5.833   6.880   2.699 -2.2898 -0.0997 -0.9708
14704TIP3    H265528   5.938   6.777   2.735  0.1090  2.4775 -0.2676
14705TIP3   OH265529   2.958   2.719  10.536  0.1904 -0.0511 -0.2456
14705TIP3    H165530   2.904   2.709  10.457 -1.1774 -0.8499  0.7555
14705TIP3    H265531   2.944   2.638  10.585  2.0064 -0.1072  0.2464
14706TIP3   OH265532   5.484   6.580   5.247 -0.2893  0.5333  0.2360
14706TIP3    H165533   5.499   6.532   5.329 -0.7220 -2.2503 -1.1780
14706TIP3    H265534   5.566   6.568   5.198 -0.9678 -0.1794 -0.7640
14707TIP3   OH265535   6.419   6.396   1.004 -0.4173  0.5639  0.1025
14707TIP3    H165536   6.395   6.323   0.947 -0.7482  1.6167 -1.1574
14707TIP3    H265537   6.351   6.397   1.072 -0.3974 -0.2952  0.1425
14708TIP3   OH265538   0.823   3.154   0.352  0.4548  0.0317  0.0549
14708TIP3    H165539   0.770   3.199   0.418  0.7113 -0.7211  0.7991
14708TIP3    H265540   0.912   3.184   0.368  0.4321  0.3334 -0.3718
14709TIP3   OH265541   3.604   2.052   4.371 -0.2446 -0.0724  0.3399
14709TIP3    H165542   3.547   2.122   4.342 -2.9691 -2.1207  0.4014
14709TIP3    H265543   3.623   2.001   4.293  1.3132  0.4009  0.3763
14710TIP3   OH265544   0.751   0.149  13.439  0.3596  0.0712  0.5185
14710TIP3    H165545   0.659   0.132  13.460  0.6698 -0.5111  1.5023
14710TIP3    H265546   0.792   0.062  13.438  1.0702  0.3863  1.0133
14711TIP3   OH265547   5.896   1.915  13.405 -0.4733 -0.2768  0.1013
14711TIP3    H165548   5.947   1.906  13.325  1.1024 -0.2977  1.0849
14711TIP3    H265549   5.854   1.829  13.417 -1.2461 -0.0761 -1.0188
14712TIP3   OH265550   2.029   3.607   3.590 -0.1149 -0.0709  0.7055
14712TIP3    H165551   1.934   3.615   3.589 -0.0675  0.7678  1.4445
14712TIP3    H265552   2.045   3.517   3.618 -0.7036  0.6208  3.5061
14713TIP3   OH265553   6.463   5.634  12.044  0.2717 -0.0497 -0.5852
14713TIP3    H165554   6.490   5.720  12.014  3.8227 -1.5769 -2.3685
14713TIP3    H265555   6.458   5.581  11.965 -0.1256 -1.9104  0.6130
14714TIP3   OH265556   4.108   5.668   5.423 -0.5024  1.0551 -0.2660
14714TIP3    H165557   4.046   5.635   5.488  0.6911  1.6555  1.2545
14714TIP3    H265558   4.062   5.741   5.381 -0.5513  2.1750  1.5609
14715TIP3   OH265559   3.029   0.467  13.107 -0.0965  0.0747 -0.4628
14715TIP3    H165560   3.109   0.439  13.152  0.3774  2.4374  0.3445
14715TIP3    H265561   2.961   0.408  13.138  0.6020  0.4166  1.9082
14716TIP3   OH265562   5.138   4.577  14.879  0.4239  0.7586  0.0002
14716TIP3    H165563   5.119   4.557  14.971 -0.1856  1.3472  0.0102
14716TIP3    H265564   5.151   4.492  14.838  1.1180  0.5072  0.7155
14717TIP3   OH265565   3.379   0.896  12.445  0.0892 -0.2846 -0.2899
14717TIP3    H165566   3.321   0.962  12.406 -0.7063 -1.2659 -0.8173
14717TIP3    H265567   3.404   0.839  12.372 -1.4073 -2.1417  0.5381
14718TIP3   OH265568   0.437   2.361  14.306 -0.4413  0.1546  0.3502
14718TIP3    H165569   0.352   2.373  14.350 -0.9132 -0.3228 -0.4186
14718TIP3    H265570   0.469   2.450  14.293 -0.6065  0.3243  1.0597
14719TIP3   OH265571   2.249   4.163   2.640  0.3144  0.2976  0.0009
14719TIP3    H165572   2.155   4.150   2.641  0.0576  1.9160 -0.3270
14719TIP3    H265573   2.263   4.248   2.683  1.7026 -0.3094  0.8275
14720TIP3   OH265574   0.165   4.433  12.354 -0.0845  0.4002  0.3548
14720TIP3    H165575   0.230   4.500  12.331 -0.1446  0.2672 -0.2235
14720TIP3    H265576   0.174   4.423  12.449  1.5408 -0.4314  0.1446
14721TIP3   OH265577   3.679   6.253  15.776 -0.3827  0.0153  0.2617
14721TIP3    H165578   3.734   6.184  15.812 -0.2647  0.1900  0.4176
14721TIP3    H265579   3.731   6.291  15.705 -0.2280  0.2970  0.5224
14722TIP3   OH265580   2.840   5.267  11.276 -0.3234  0.1538 -0.0706
14722TIP3    H165581   2.910   5.225  11.227 -0.6177 -0.3980 -0.0259
14722TIP3    H265582   2.763   5.258  11.220 -0.6777 -0.5518  0.5190
14723TIP3   OH265583   0.898   3.849  12.880 -0.3163 -0.4410  0.2427
14723TIP3    H165584   0.904   3.882  12.790  1.3752 -2.9379 -0.7086
14723TIP3    H265585   0.874   3.757  12.869  0.4312 -0.9297  2.3042
14724TIP3   OH265586   1.149   1.926   6.264  0.4601  0.1576  0.1545
14724TIP3    H165587   1.122   1.977   6.341  2.3930  0.0530  0.9788
14724TIP3    H265588   1.080   1.862   6.251 -1.2217  1.9069  0.1261
14725TIP3   OH265589   4.865   1.145   2.158  0.3508  0.0455 -0.3537
14725TIP3    H165590   4.859   1.058   2.118 -1.3226  0.1813 -0.4945
14725TIP3    H265591   4.932   1.190   2.107  0.9375 -1.0197 -0.5524
14726TIP3   OH265592   0.220   3.550   1.923  0.1601  0.4283  0.0262
14726TIP3    H165593   0.152   3.544   1.990  0.9241  0.3893  0.8136
14726TIP3    H265594   0.237   3.643   1.913 -0.4232  0.4733 -0.6077
14727TIP3   OH265595   0.719   5.270  13.322  0.5360  0.3866  0.1450
14727TIP3    H165596   0.717   5.334  13.251  0.8042  1.1116  0.7780
14727TIP3    H265597   0.627   5.259  13.347  0.4462  0.1657 -0.2854
14728TIP3   OH265598   2.296   5.264  16.782 -0.4262  0.4781 -0.5685
14728TIP3    H165599   2.316   5.171  16.773 -1.5496  0.1761 -0.1075
14728TIP3    H265600   2.213   5.275  16.735 -0.1981  1.2982 -0.8036
14729TIP3   OH265601   1.989   5.177   1.511  0.2617 -0.0930  0.8570
14729TIP3    H165602   1.929   5.111   1.478 -0.1066  1.6446 -2.4176
14729TIP3    H265603   1.961   5.194   1.601 -0.1536 -3.6363  1.5233
14730TIP3   OH265604   4.051   6.552   5.444  0.1962 -0.0492  0.3706
14730TIP3    H165605   4.142   6.579   5.429  0.0296 -0.9548 -3.1227
14730TIP3    H265606   4.058   6.479   5.505  1.5940  1.0970  1.6596
14731TIP3   OH265607   1.368   3.268  16.178  0.0398  0.2612  0.3759
14731TIP3    H165608   1.429   3.284  16.250  0.1270 -1.6409  0.7607
14731TIP3    H265609   1.423   3.267  16.100  0.3362 -0.2167  0.5831
14732TIP3   OH265610   3.975   6.548   1.052 -0.2792  0.3366  0.2939
14732TIP3    H165611   4.055   6.581   1.011 -1.8319 -0.0901 -3.5671
14732TIP3    H265612   3.969   6.457   1.024 -2.9016  0.8373 -1.1463
14733TIP3   OH265613   3.692   1.926   4.150 -0.2639 -0.2099  0.2376
14733TIP3    H165614   3.660   1.840   4.122 -0.5393  0.3961 -1.3845
14733TIP3    H265615   3.673   1.984   4.077  1.1349  0.9732  0.7600
14734TIP3   OH265616   4.003   4.300   4.798 -0.6198 -0.1468 -0.1203
14734TIP3    H165617   3.938   4.243   4.757  0.8467 -2.2351  0.2692
14734TIP3    H265618   4.083   4.286   4.747  0.7199 -1.2534  2.0977
14735TIP3   OH265619   6.623   1.416   5.087 -0.1405  0.1605  0.1484
14735TIP3    H165620   6.676   1.448   5.160 -2.2204  0.4725  1.6166
14735TIP3    H265621   6.649   1.325   5.076  1.0030  0.4352  0.5192
14736TIP3   OH265622   3.404   5.020  13.939  0.4768 -0.1007 -0.1638
14736TIP3    H165623   3.442   5.080  14.003  1.5975  0.9426 -1.7224
14736TIP3    H265624   3.403   4.935  13.984 -0.9005  0.9812  1.9917
14737TIP3   OH265625   4.423   2.732   1.665  0.0366  0.6331  0.5519
14737TIP3    H165626   4.380   2.658   1.622 -0.2305  1.5575 -0.7895
14737TIP3    H265627   4.444   2.793   1.595  3.2613  0.4186  1.1374
14738TIP3   OH265628   0.135   5.561   4.073 -0.3270 -0.3065 -0.0223
14738TIP3    H165629   0.109   5.640   4.119 -1.9415 -1.0040  0.3482
14738TIP3    H265630   0.217   5.584   4.029 -0.1810  1.2004  0.9835
14739TIP3   OH265631   4.194   4.727   4.518  0.6886 -0.2577  0.2470
14739TIP3    H165632   4.165   4.653   4.466  0.3757  0.5871 -0.8245
14739TIP3    H265633   4.180   4.700   4.609  2.1062 -2.1196 -0.0179
14740TIP3   OH265634   1.450   1.488   3.519  0.3774 -0.0360 -0.6151
14740TIP3    H165635   1.360   1.465   3.543  0.2966 -0.0484 -0.9156
14740TIP3    H265636   1.462   1.577   3.550  0.5800 -0.3683  0.2689
14741TIP3   OH265637   3.745   4.426  11.389  0.9516 -0.3900 -0.2802
14741TIP3    H165638   3.717   4.455  11.302  0.3199 -1.5359 -0.4811
14741TIP3    H265639   3.840   4.419  11.382  1.3455  2.8352  0.1866
14742TIP3   OH265640   3.783   6.633  15.264 -0.5471  0.1259  0.1412
14742TIP3    H165641   3.773   6.540  15.244 -0.4595  0.4951 -1.7886
14742TIP3    H265642   3.759   6.678  15.183 -0.9409  1.8156  1.1429
14743TIP3   OH265643   4.587   5.435  14.486  0.3156  0.0144  0.3672
14743TIP3    H165644   4.648   5.379  14.535  0.2057 -0.0935  0.3828
14743TIP3    H265645   4.609   5.420  14.394 -1.0544 -1.6433  0.2499
14744TIP3   OH265646   1.580   0.329   3.324  0.2917 -0.2461 -0.0419
14744TIP3    H165647   1.492   0.290   3.328 -0.2399  0.9705  0.9301
14744TIP3    H265648   1.594   0.347   3.231 -1.4326  1.5168 -0.0242
14745TIP3   OH265649   2.893   1.007   4.630 -0.0997  0.3849 -0.4496
14745TIP3    H165650   2.925   1.049   4.550  0.0570  1.3353  0.0880
14745TIP3    H265651   2.937   1.055   4.701 -1.4440  0.6160  0.2518
14746TIP3   OH265652   6.119   1.294   3.174  0.0589 -0.4648 -0.0200
14746TIP3    H165653   6.213   1.301   3.164  0.2703 -2.0095  0.6644
14746TIP3    H265654   6.084   1.322   3.089  1.1210  0.0195 -0.3156
14747TIP3   OH265655   1.138   2.075   6.496 -0.1773  0.5861 -0.9149
14747TIP3    H165656   1.161   1.984   6.517 -1.2337  0.3877 -0.5515
14747TIP3    H265657   1.042   2.075   6.492 -0.1679  1.5553 -1.5286
14748TIP3   OH265658   3.211   1.230  14.350 -0.6238 -0.7295  0.3584
14748TIP3    H165659   3.279   1.226  14.282 -0.8528 -1.1736  0.1514
14748TIP3    H265660   3.136   1.271  14.308 -0.2362  0.4790  0.8106
14749TIP3   OH265661   1.640   5.500   0.892 -0.1701 -0.5337  0.3207
14749TIP3    H165662   1.622   5.410   0.918 -1.3098 -0.8067 -1.2474
14749TIP3    H265663   1.608   5.553   0.965  0.8291 -1.3824  1.4145
14750TIP3   OH265664   5.811   3.292   5.174 -0.4594  0.0837  0.1119
14750TIP3    H165665   5.828   3.380   5.207 -1.3206  0.1947  0.2892
14750TIP3    H265666   5.739   3.260   5.228 -3.4223  1.0604 -2.8704
14751TIP3   OH265667   5.173   5.438  13.078  0.4346  0.0711  0.2688
14751TIP3    H165668   5.146   5.465  13.166 -1.3581 -1.0480  0.1217
14751TIP3    H265669   5.252   5.489  13.060 -0.5911  2.2429  1.5042
14752TIP3   OH265670   4.711   6.237  13.876 -0.0901 -0.2350  0.4665
14752TIP3    H165671   4.686   6.151  13.911  0.9500 -0.9233 -0.4167
14752TIP3    H265672   4.778   6.269  13.936  1.3778 -1.2206 -0.5721
14753TIP3   OH265673   1.389   4.843  11.174  0.0078 -0.3446 -0.0058
14753TIP3    H165674   1.445   4.890  11.112 -1.0458  1.6421  0.4624
14753TIP3    H265675   1.339   4.783  11.119  1.9111 -1.5307 -0.5327
14754TIP3   OH265676   1.685   2.230   4.143 -0.3378 -0.2741  0.2258
14754TIP3    H165677   1.731   2.294   4.089  0.1294 -0.5792  0.2550
14754TIP3    H265678   1.749   2.160   4.158 -0.2510  0.0969  1.7178
14755TIP3   OH265679   0.485   3.635   4.260 -0.3433 -0.5211 -0.3858
14755TIP3    H165680   0.390   3.625   4.259 -0.4988  0.5059  1.3643
14755TIP3    H265681   0.501   3.723   4.226  0.1214 -1.2235 -2.1180
14756TIP3   OH265682   5.235   2.052   3.140  0.2703 -0.2737  0.3076
14756TIP3    H165683   5.291   2.109   3.088 -0.0375 -0.1321  0.1297
14756TIP3    H265684   5.235   1.969   3.093 -1.4712  0.3852 -0.9362
14757TIP3   OH265685   0.100   2.714  14.736  0.3090 -0.2535  0.2654
14757TIP3    H165686   0.045   2.707  14.658 -0.3780 -0.0653  0.7243
14757TIP3    H265687   0.143   2.628  14.742  1.7446  0.2898 -1.2971
14758TIP3   OH265688   1.403   4.592  13.049  0.2669  0.1356  1.2192
14758TIP3    H165689   1.438   4.527  13.111 -0.0517  0.1593  1.4249
14758TIP3    H265690   1.309   4.575  13.047  0.6501 -3.1743 -2.9384
14759TIP3   OH265691   4.134   4.928   3.326 -0.5406  0.0549  0.4002
14759TIP3    H165692   4.132   4.989   3.253  1.3605  0.0920  0.3412
14759TIP3    H265693   4.111   4.843   3.288 -0.0474  0.1625 -0.1405
14760TIP3   OH265694   2.872   5.549  11.340  0.5673  0.4407 -0.2151
14760TIP3    H165695   2.936   5.495  11.385 -0.7940  0.1617  1.4952
14760TIP3    H265696   2.791   5.499  11.344 -0.9603  2.8295  2.2084
14761TIP3   OH265697   2.471   4.929   3.089  0.2089  0.4312 -0.0908
14761TIP3    H165698   2.428   4.977   3.159 -0.3070  0.4749 -0.4326
14761TIP3    H265699   2.545   4.985   3.064  0.0827  0.6677  0.0584
14762TIP3   OH265700   0.624   1.582   1.624 -0.3682 -0.1456 -0.1819
14762TIP3    H165701   0.593   1.492   1.618  2.6205 -1.1870 -2.0740
14762TIP3    H265702   0.671   1.585   1.708  2.9782 -1.7240 -1.8188
14763TIP3   OH265703   4.047   2.813  11.451 -0.0071  0.4907  0.1190
14763TIP3    H165704   3.987   2.782  11.383 -0.0620  0.5765  0.1282
14763TIP3    H265705   4.102   2.737  11.472 -1.7453 -0.3640  1.9016
14764TIP3   OH265706   2.289   4.499   3.051 -0.4807 -0.6558 -0.2586
14764TIP3    H165707   2.290   4.492   3.147  0.9062  0.7727 -0.1230
14764TIP3    H265708   2.206   4.543   3.032 -0.0149  0.6033  0.4670
14765TIP3   OH265709   6.545   5.871   4.509  0.0910 -0.0144  0.1587
14765TIP3    H165710   6.533   5.965   4.494  1.5989  0.1136 -0.3989
14765TIP3    H265711   6.634   5.863   4.543  0.2024 -1.3007 -0.3694
14766TIP3   OH265712   3.318   1.394  16.933 -0.2407 -0.5639  0.1042
14766TIP3    H165713   3.257   1.327  16.964  0.1992 -0.6452  0.8261
14766TIP3    H265714   3.327   1.376  16.839 -0.0671 -1.5705  0.3005
14767TIP3   OH265715   5.003   5.995  13.824  0.2006  0.1159  0.3182
14767TIP3    H165716   4.958   6.016  13.742  0.8795 -1.4031 -0.4891
14767TIP3    H265717   5.031   6.079  13.859  0.2515  0.7610 -1.2118
14768TIP3   OH265718   4.881   5.531  14.691  0.1549 -0.4848  0.1107
14768TIP3    H165719   4.908   5.604  14.635  1.3066 -0.9509  0.0302
14768TIP3    H265720   4.791   5.551  14.715 -0.0704  0.1693 -1.2027
14769TIP3   OH265721   3.034   5.533  14.824 -0.2695  0.1205 -0.0090
14769TIP3    H165722   3.071   5.600  14.881  0.2650  0.7314 -1.0417
14769TIP3    H265723   2.968   5.580  14.771  0.1480 -0.1411 -0.7785
14770TIP3   OH265724   6.462   0.659  13.191 -0.1280  0.0709 -0.5672
14770TIP3    H165725   6.424   0.628  13.274  0.5647 -1.2139 -0.7034
14770TIP3    H265726   6.465   0.581  13.135  0.4901  0.6662 -1.3938
14771TIP3   OH265727   6.283   4.759  13.623 -0.0064  0.0249  0.1539
14771TIP3    H165728   6.310   4.668  13.634  1.0092 -0.0657 -2.4776
14771TIP3    H265729   6.219   4.757  13.552  0.6262  1.4507 -0.4892
14772TIP3   OH265730   0.124   4.621  15.690  0.1763  0.0699  0.1112
14772TIP3    H165731   0.101   4.528  15.687  4.2533 -1.1586 -0.2011
14772TIP3    H265732   0.142   4.638  15.783  0.7699  0.1288 -0.0112
14773TIP3   OH265733   6.185   2.877  11.445 -0.1536  0.3968 -0.1349
14773TIP3    H165734   6.275   2.909  11.443  0.0252  0.0786  1.4961
14773TIP3    H265735   6.136   2.939  11.392  0.5622  2.1700  1.1735
14774TIP3   OH265736   1.491   2.596   5.761  0.4128 -0.4708  0.2495
14774TIP3    H165737   1.450   2.522   5.807 -0.4276 -1.2539 -1.6668
14774TIP3    H265738   1.513   2.658   5.831 -1.1995 -1.4142  1.6817
14775TIP3   OH265739   6.390   6.198   2.132  0.0435  0.1672 -0.9059
14775TIP3    H165740   6.440   6.154   2.202 -1.4064  0.3186  0.2729
14775TIP3    H265741   6.412   6.291   2.142 -1.7741  0.4686  0.7836
14776TIP3   OH265742   3.993   2.290   5.797  0.8780  0.5349 -0.8148
14776TIP3    H165743   3.990   2.386   5.795  0.4426  0.7142  2.8475
14776TIP3    H265744   4.064   2.269   5.858  1.7716 -1.5961 -2.4265
14777TIP3   OH265745   5.946   4.145  12.142  0.3746  0.2501  0.5432
14777TIP3    H165746   5.874   4.207  12.152 -0.1471 -0.2792  0.1342
14777TIP3    H265747   5.990   4.144  12.227  0.3989  1.1896  0.5485
14778TIP3   OH265748   3.279   6.420   4.417  0.2545  0.0765  0.2862
14778TIP3    H165749   3.231   6.374   4.486  0.4064  0.4222  0.6266
14778TIP3    H265750   3.214   6.479   4.378  0.5775  1.1313  1.2806
14779TIP3   OH265751   1.971   3.241   3.498  0.3180 -0.3198  0.1801
14779TIP3    H165752   2.062   3.254   3.470 -0.2134 -0.8439 -1.9716
14779TIP3    H265753   1.956   3.147   3.484 -0.8175 -0.0674 -0.3434
14780TIP3   OH265754   2.948   3.020  13.759 -0.5931  0.7303 -0.0525
14780TIP3    H165755   2.898   2.958  13.706  0.0838 -0.0471  0.1994
14780TIP3    H265756   2.985   3.082  13.696 -0.7125  0.4791 -0.3700
14781TIP3   OH265757   5.719   4.791   3.271 -0.3054 -0.1971  0.3048
14781TIP3    H165758   5.750   4.860   3.330 -1.3109 -0.2296  0.8971
14781TIP3    H265759   5.747   4.819   3.184  1.2681 -0.1828  0.7870
14782TIP3   OH265760   1.170   5.167  10.807  0.6869  0.4176 -0.1123
14782TIP3    H165761   1.226   5.244  10.800 -0.0967  1.1083  1.0170
14782TIP3    H265762   1.083   5.202  10.823  0.4803 -0.7104  1.4769
14783TIP3   OH265763   3.301   1.344   4.812 -0.8224 -0.1565  0.4858
14783TIP3    H165764   3.220   1.302   4.841 -1.1967  0.8706  0.9900
14783TIP3    H265765   3.314   1.314   4.722 -0.8321 -1.6797  0.9738
14784TIP3   OH265766   0.969   6.582  15.592  0.1705 -0.3493  0.3495
14784TIP3    H165767   0.970   6.651  15.525 -2.5231  0.5226  1.0807
14784TIP3    H265768   0.938   6.504  15.545 -0.4537 -0.0721  0.2900
14785TIP3   OH265769   1.611   6.043   2.387 -0.2775 -0.4173 -0.0499
14785TIP3    H165770   1.541   6.106   2.402 -0.5951 -0.7252 -0.2188
14785TIP3    H265771   1.692   6.094   2.394 -0.5661  0.2391 -1.3612
14786TIP3   OH265772   5.897   4.142  11.157 -0.4007  0.2352  0.2871
14786TIP3    H165773   5.930   4.052  11.166 -0.0038  0.5776  3.2514
14786TIP3    H265774   5.951   4.181  11.089  0.8533 -1.1644  0.4326
14787TIP3   OH265775   0.466   3.324  14.820 -0.0960 -0.2177 -0.0238
14787TIP3    H165776   0.441   3.241  14.860  0.6204  0.3860  1.8048
14787TIP3    H265777   0.404   3.336  14.749 -1.7760 -1.1555  1.2050
14788TIP3   OH265778   0.538   5.212  12.378  0.0228  0.0593  0.3483
14788TIP3    H165779   0.450   5.228  12.344 -0.1576  0.7947  1.1327
14788TIP3    H265780   0.584   5.295  12.364  0.8277 -0.5474 -0.7313
14789TIP3   OH265781   6.162   6.703  16.124 -0.6273 -0.6047  0.8602
14789TIP3    H165782   6.150   6.677  16.215 -1.1250 -0.7807  0.7496
14789TIP3    H265783   6.120   6.788  16.118  0.9228  0.2150  1.1992
14790TIP3   OH265784   1.054   4.862   3.939 -0.0473  1.0091 -0.4244
14790TIP3    H165785   1.032   4.949   3.907 -1.6200  0.5294 -0.7826
14790TIP3    H265786   0.973   4.812   3.927  0.4723 -0.1923  0.8515
14791TIP3   OH265787   0.945   0.534   6.752 -0.6241 -0.2879  0.5037
14791TIP3    H165788   0.854   0.520   6.725 -0.4608  0.8883 -0.7812
14791TIP3    H265789   0.967   0.621   6.718  1.2370 -0.8969  0.0490
14792TIP3   OH265790   1.644   2.112  13.349  0.0997  0.0960  0.1549
14792TIP3    H165791   1.637   2.028  13.302  1.3198 -0.3157  0.6800
14792TIP3    H265792   1.677   2.089  13.435  0.9411  1.1630  0.1414
14793TIP3   OH265793   5.456   2.575   4.368 -0.1058 -0.6623  0.0251
14793TIP3    H165794   5.382   2.514   4.371 -2.4887  1.9243 -1.2518
14793TIP3    H265795   5.415   2.661   4.355  2.9426  1.4531  2.7661
14794TIP3   OH265796   0.161   5.974   2.668  0.3000 -0.2116  0.2713
14794TIP3    H165797   0.219   5.908   2.706  0.4916 -0.8219 -1.0230
14794TIP3    H265798   0.212   6.013   2.597 -0.5773 -0.1722 -0.3541
14795TIP3   OH265799   6.654   1.005   4.151 -0.1118  0.1938 -0.3606
14795TIP3    H165800   6.739   1.028   4.112 -0.7257  0.7926 -1.4003
14795TIP3    H265801   6.594   1.071   4.116 -1.2561 -0.9871 -0.6669
14796TIP3   OH265802   2.770   5.970   1.819  0.2528  0.0798 -0.2804
14796TIP3    H165803   2.804   5.882   1.801 -1.6216 -0.7771  0.1447
14796TIP3    H265804   2.731   5.998   1.736 -0.7179 -0.2489  0.0548
14797TIP3   OH265805   4.405   0.430  10.638 -0.6675 -0.0196 -0.0745
14797TIP3    H165806   4.313   0.404  10.624 -0.9901  1.5727 -1.0723
14797TIP3    H265807   4.421   0.499  10.574  1.1053  0.0648  0.4102
14798TIP3   OH265808   6.169   6.721   6.080 -0.4352 -0.9117 -0.3171
14798TIP3    H165809   6.193   6.734   5.988 -2.0337  0.2907 -0.6073
14798TIP3    H265810   6.164   6.626   6.090 -2.0576 -1.0542 -2.0049
14799TIP3   OH265811   4.577   2.769   0.894  0.3627 -0.1258 -0.3172
14799TIP3    H165812   4.496   2.813   0.868 -0.0529 -1.0603 -0.6215
14799TIP3    H265813   4.556   2.676   0.893  1.3835 -0.3734 -0.1938
14800TIP3   OH265814   2.983   3.748   3.462  0.1313 -0.2495  0.3471
14800TIP3    H165815   3.012   3.769   3.550  0.6866  0.4021  0.0254
14800TIP3    H265816   2.896   3.787   3.455  0.6307  0.8683  0.1811
14801TIP3   OH265817   1.511   1.812   3.822  0.2380 -0.0556  0.1195
14801TIP3    H165818   1.494   1.807   3.728  0.1495  0.0698  0.1290
14801TIP3    H265819   1.557   1.730   3.842 -0.4910 -0.4717  0.1250
14802TIP3   OH265820   2.068   0.387   5.826  0.1491 -0.6236  0.6148
14802TIP3    H165821   2.112   0.420   5.904  1.2802 -0.8307  0.0912
14802TIP3    H265822   2.040   0.465   5.778  2.7603 -0.3231 -0.5962
14803TIP3   OH265823   0.659   6.726   1.129 -0.3026  0.0503  0.2295
14803TIP3    H165824   0.581   6.760   1.085  0.4636  0.0920 -1.1647
14803TIP3    H265825   0.695   6.662   1.067  2.0711  1.7464 -0.2604
14804TIP3   OH265826   0.137   3.793   3.253  0.2041  0.0894  0.1928
14804TIP3    H165827   0.221   3.793   3.299  0.3307 -1.6425  0.0392
14804TIP3    H265828   0.160   3.780   3.161 -0.1686  1.3242 -0.0951
14805TIP3   OH265829   3.637   2.085  13.099  0.0410  0.4094 -0.3726
14805TIP3    H165830   3.575   2.100  13.171 -1.7001  0.3351 -1.7667
14805TIP3    H265831   3.717   2.130  13.125  0.8694 -2.6723  3.2862
14806TIP3   OH265832   4.642   0.857   1.838 -0.1847 -0.1771  0.1036
14806TIP3    H165833   4.649   0.874   1.744 -0.3647 -0.1915  0.0887
14806TIP3    H265834   4.651   0.762   1.846 -1.7467 -0.3682 -0.0446
14807TIP3   OH265835   0.449   5.467   2.555 -0.1372 -0.1131  0.2894
14807TIP3    H165836   0.460   5.561   2.543 -0.8474 -0.0414  0.1187
14807TIP3    H265837   0.516   5.427   2.499 -0.9642  0.2780 -1.0348
14808TIP3   OH265838   6.341   3.009  12.626  0.0222  0.2923  0.4428
14808TIP3    H165839   6.317   2.919  12.605  0.6305 -0.3199  2.1944
14808TIP3    H265840   6.276   3.038  12.689  0.0104  0.9875  0.1231
14809TIP3   OH265841   3.404   5.788  15.572  0.0382 -0.3821 -0.0995
14809TIP3    H165842   3.355   5.852  15.520  0.0192  0.0105  0.4021
14809TIP3    H265843   3.474   5.758  15.514  0.4259  0.5503 -0.1243
14810TIP3   OH265844   6.396   2.814   4.800 -0.4738 -0.4888  0.2370
14810TIP3    H165845   6.349   2.731   4.802 -0.5810 -0.4286  0.2470
14810TIP3    H265846   6.456   2.811   4.874  0.0934 -0.8907 -0.2285
14811TIP3   OH265847   4.150   5.073  14.300 -0.5610  0.5603 -0.6087
14811TIP3    H165848   4.146   4.988  14.256 -1.2915  0.1722  0.1818
14811TIP3    H265849   4.224   5.065  14.361 -1.6658 -0.1284  0.6838
14812TIP3   OH265850   4.742   1.893   0.528  0.1000 -0.1312  0.3302
14812TIP3    H165851   4.784   1.857   0.449 -0.2128  1.0610 -0.4006
14812TIP3    H265852   4.815   1.918   0.584  0.3633  0.3231 -0.1995
14813TIP3   OH265853   2.038   2.894   6.499  0.0073  0.9464 -0.1191
14813TIP3    H165854   2.025   2.988   6.486  0.8040  0.9525 -1.0054
14813TIP3    H265855   2.032   2.857   6.411 -2.4689 -0.1625  0.4272
14814TIP3   OH265856   2.104   2.744   4.775  0.2984  0.8788  0.6093
14814TIP3    H165857   2.122   2.770   4.684  0.6880 -0.5002  0.2699
14814TIP3    H265858   2.188   2.712   4.807 -0.7581 -3.0674 -0.1019
14815TIP3   OH265859   5.357   3.298   4.234 -0.3531 -0.1139  0.3598
14815TIP3    H165860   5.351   3.274   4.326 -3.4871  1.0170  0.5570
14815TIP3    H265861   5.349   3.216   4.186 -0.8977 -0.4782  1.0737
14816TIP3   OH265862   4.131   0.845   1.082 -0.4565 -0.3022 -0.5183
14816TIP3    H165863   4.202   0.873   1.140  0.0995  0.2539 -1.4555
14816TIP3    H265864   4.163   0.764   1.042 -1.1994 -1.1747  0.5806
14817TIP3   OH265865   1.900   1.119  14.070  0.0157  0.0495 -0.0776
14817TIP3    H165866   1.973   1.113  14.131 -1.2465 -0.0128  1.4889
14817TIP3    H265867   1.928   1.184  14.006  0.6298  1.5925  1.6793
14818TIP3   OH265868   5.355   4.351  16.578  0.1463  0.0826  0.7051
14818TIP3    H165869   5.334   4.407  16.653 -1.4033 -0.1889  0.5019
14818TIP3    H265870   5.450   4.359  16.569  0.3617  0.2565  2.5955
14819TIP3   OH265871   5.571   5.331   0.529 -0.6971  0.3545 -0.0814
14819TIP3    H165872   5.616   5.416   0.529 -0.2063  0.1259 -1.5415
14819TIP3    H265873   5.585   5.296   0.616 -0.5772  1.6044  0.4234
14820TIP3   OH265874   3.893   0.931  11.534  0.6496 -0.4664  0.0811
14820TIP3    H165875   3.811   0.936  11.485  0.7621 -0.7043 -0.1351
14820TIP3    H265876   3.899   0.840  11.562  0.6835 -0.3747  0.3683
14821TIP3   OH265877   5.700   2.660   1.127  0.1213 -0.0242  0.0460
14821TIP3    H165878   5.795   2.655   1.128  0.1194 -1.4830  2.5809
14821TIP3    H265879   5.671   2.568   1.131 -1.2761  0.4240  1.7729
14822TIP3   OH265880   1.049   0.176  12.999 -0.2091 -0.0423  0.0897
14822TIP3    H165881   1.062   0.263  13.037  0.7935 -1.1354  2.4709
14822TIP3    H265882   1.134   0.133  13.010 -0.5116 -1.1522 -1.5973
14823TIP3   OH265883   2.594   0.970  12.100  0.4540 -0.4085  0.3138
14823TIP3    H165884   2.500   0.969  12.082  0.4287 -0.0089  0.4179
14823TIP3    H265885   2.602   0.929  12.186  0.3276 -0.0374  0.5064
14824TIP3   OH265886   2.107   3.921   2.469 -0.4811 -0.0437  0.8150
14824TIP3    H165887   2.018   3.885   2.470 -0.7461  0.5278 -0.3407
14824TIP3    H265888   2.124   3.944   2.560 -1.4431 -0.3534  1.0900
14825TIP3   OH265889   1.668   0.098   5.614 -0.6226  0.3962  0.1706
14825TIP3    H165890   1.613   0.176   5.618 -1.2423  0.0499 -1.0071
14825TIP3    H265891   1.623   0.034   5.669 -1.0839  0.3126 -0.2941
14826TIP3   OH265892   0.030   2.845   2.226  0.2056  0.1389  0.2228
14826TIP3    H165893   0.028   2.805   2.313 -0.5215 -1.0817 -0.3157
14826TIP3    H265894   0.123   2.852   2.205  0.4349  1.4464  1.5070
14827TIP3   OH265895   1.236   5.122  16.337 -0.0105  0.0247  0.1451
14827TIP3    H165896   1.297   5.089  16.402 -1.3773 -0.7635  1.0707
14827TIP3    H265897   1.278   5.104  16.253  1.5146  0.5279  0.7536
14828TIP3   OH265898   1.925   4.723   2.316 -0.6999  0.3670 -0.5101
14828TIP3    H165899   1.834   4.755   2.320 -0.3676  1.2951  0.0752
14828TIP3    H265900   1.973   4.785   2.371  0.6597  1.1113 -2.4414
14829TIP3   OH265901   3.347   2.292   3.982 -0.0883  0.1880 -0.5079
14829TIP3    H165902   3.325   2.346   3.907 -1.6729  0.7243  0.2979
14829TIP3    H265903   3.264   2.253   4.009  0.5872 -0.6280  0.4828
14830TIP3   OH265904   4.636   3.559  15.894  0.0756 -0.3385 -0.0170
14830TIP3    H165905   4.643   3.465  15.911 -2.7305 -0.8005 -0.8997
14830TIP3    H265906   4.605   3.596  15.976  0.0306 -0.3743 -0.0173
14831TIP3   OH265907   4.054   4.267  13.330 -0.0958  0.0200  0.7292
14831TIP3    H165908   4.119   4.310  13.385 -0.2035  0.5944  0.4216
14831TIP3    H265909   4.017   4.338  13.278 -0.2771 -0.4498  0.2077
14832TIP3   OH265910   3.268   4.361  14.644 -0.3823 -0.0201 -0.1116
14832TIP3    H165911   3.245   4.422  14.574 -0.7584  0.9519  0.8415
14832TIP3    H265912   3.345   4.315  14.611  1.2158  2.4313 -0.0196
14833TIP3   OH265913   1.812   2.069  15.975 -0.5550  0.2051 -0.3568
14833TIP3    H165914   1.820   2.150  15.925 -0.2576  0.8191  0.6692
14833TIP3    H265915   1.816   2.096  16.066 -1.0756 -0.9020  0.0151
14834TIP3   OH265916   5.042   3.182   1.165 -0.1873 -0.0436  0.2135
14834TIP3    H165917   5.123   3.143   1.134 -1.3962 -0.9812 -2.0510
14834TIP3    H265918   5.066   3.272   1.189  1.8153 -0.8362  1.3919
14835TIP3   OH265919   5.525   1.398  11.608  0.3683  0.0564 -0.2752
14835TIP3    H165920   5.593   1.333  11.626  0.6266 -0.2216 -2.0354
14835TIP3    H265921   5.489   1.371  11.523  1.0532  2.6615 -1.4860
14836TIP3   OH265922   3.268   5.660   6.228 -0.4092 -0.1003  0.6770
14836TIP3    H165923   3.232   5.657   6.139 -1.2566 -0.0968  1.0118
14836TIP3    H265924   3.215   5.597   6.277  0.2483 -0.3205  1.1124
14837TIP3   OH265925   2.444   4.508  14.461  0.5613 -0.2622  0.6591
14837TIP3    H165926   2.537   4.487  14.454  0.5685  0.0023 -0.0912
14837TIP3    H265927   2.400   4.435  14.417  0.4376 -0.1168  0.5461
14838TIP3   OH265928   4.154   2.404   2.270 -0.1106 -0.2617  0.0753
14838TIP3    H165929   4.084   2.421   2.334 -0.3389 -0.2436 -0.1792
14838TIP3    H265930   4.155   2.482   2.215  1.1465  0.4347  1.0201
14839TIP3   OH265931   1.314   3.919  15.057  0.2119  0.3007  0.0085
14839TIP3    H165932   1.349   3.856  15.119 -0.5867  0.6159  0.7989
14839TIP3    H265933   1.246   3.966  15.105  0.0449  1.0266 -0.8909
14840TIP3   OH265934   2.732   1.029   5.328  0.2976 -0.2627 -0.0414
14840TIP3    H165935   2.814   0.987   5.304  0.6401  1.4164 -2.1065
14840TIP3    H265936   2.703   1.073   5.248 -1.4667  1.0445  1.2311
14841TIP3   OH265937   1.221   4.708   1.327  0.5435  0.3095 -0.4160
14841TIP3    H165938   1.207   4.625   1.372 -2.1739  0.5637 -0.6118
14841TIP3    H265939   1.243   4.771   1.396  0.5963 -0.1557 -0.0108
14842TIP3   OH265940   5.208   4.846   3.833 -0.2989 -0.0236  0.3485
14842TIP3    H165941   5.185   4.775   3.893 -1.7941  1.0410  1.0797
14842TIP3    H265942   5.125   4.886   3.810  0.2592 -0.1330 -2.1675
14843TIP3   OH265943   6.807   2.511  16.931  0.8206  0.4594  0.3483
14843TIP3    H165944   6.755   2.492  16.853  0.5418  0.3613  0.5578
14843TIP3    H265945   6.827   2.604  16.925  0.8667  0.4356  0.1196
14844TIP3   OH265946   3.934   5.500   4.638  0.4765  0.4595  0.3891
14844TIP3    H165947   3.890   5.448   4.705  1.3124 -0.5275  0.1881
14844TIP3    H265948   3.948   5.440   4.566  1.7306  0.8719  0.2659
14845TIP3   OH265949   3.649   0.752   2.945  0.3096  0.5142 -0.0453
14845TIP3    H165950   3.698   0.723   2.868 -0.5882  0.3052 -0.5568
14845TIP3    H265951   3.584   0.683   2.959  1.7101 -0.4813  2.1259
14846TIP3   OH265952   1.935   6.145  16.683 -0.3106 -0.0032  0.0204
14846TIP3    H165953   1.899   6.145  16.595 -1.5331  0.1694  0.4984
14846TIP3    H265954   1.886   6.076  16.729 -2.1481  2.1186  1.4682
14847TIP3   OH265955   1.286   6.179  15.204 -0.1170 -0.2552 -0.0121
14847TIP3    H165956   1.330   6.094  15.212  0.6133 -0.0965 -1.8177
14847TIP3    H265957   1.194   6.157  15.193  0.2956 -1.0227 -2.6594
14848TIP3   OH265958   6.354   3.815  16.708 -0.5221 -0.5354  0.5886
14848TIP3    H165959   6.416   3.816  16.782  0.2206  0.5858 -0.0129
14848TIP3    H265960   6.281   3.869  16.738 -0.1497  0.0519  0.4599
14849TIP3   OH265961   6.171   4.994   6.580  0.4844 -0.3658 -0.1088
14849TIP3    H165962   6.219   5.074   6.561  1.5735 -0.8956  0.3047
14849TIP3    H265963   6.087   5.005   6.535  1.1901  0.3553 -1.3070
14850TIP3   OH265964   1.669   1.131   3.755 -0.3298 -0.2598  0.1399
14850TIP3    H165965   1.597   1.125   3.818 -0.0405 -3.7732  0.3289
14850TIP3    H265966   1.637   1.192   3.688 -1.9624  1.0545  1.9761
14851TIP3   OH265967   3.095   6.245  12.523  0.0047 -0.5573 -0.8361
14851TIP3    H165968   3.083   6.335  12.492 -1.5931 -0.7374 -0.8290
14851TIP3    H265969   3.069   6.191  12.448 -1.4108 -0.9946 -0.0586
14852TIP3   OH265970   4.862   6.276  16.401 -0.0363 -0.2984  0.4070
14852TIP3    H165971   4.775   6.313  16.417 -0.5233 -0.9607 -0.6122
14852TIP3    H265972   4.850   6.215  16.328  1.3337 -0.2113  0.0635
14853TIP3   OH265973   2.206   1.086  14.862 -0.3510 -0.3644  0.4631
14853TIP3    H165974   2.151   1.161  14.883 -1.8406 -0.5390 -2.2852
14853TIP3    H265975   2.273   1.120  14.803  0.5897 -0.7426  1.2902
14854TIP3   OH265976   6.196   5.248   4.723 -0.3071  0.1591 -0.6693
14854TIP3    H165977   6.181   5.343   4.722  0.3505  0.2950 -2.4485
14854TIP3    H265978   6.282   5.238   4.762 -0.1356  0.3490 -0.9942
14855TIP3   OH265979   5.225   5.537  11.365  0.1007  0.3190 -0.3263
14855TIP3    H165980   5.235   5.457  11.313  0.2245  0.2828 -0.2480
14855TIP3    H265981   5.249   5.608  11.306  0.2807  0.2750 -0.3064
14856TIP3   OH265982   4.177   6.460   3.261  0.3689  0.0664 -0.0260
14856TIP3    H165983   4.264   6.423   3.244  1.1503  1.7389  0.0686
14856TIP3    H265984   4.185   6.551   3.234 -1.9096 -0.1432 -1.6690
14857TIP3   OH265985   3.290   0.683   2.303  0.0892 -0.4112  0.5045
14857TIP3    H165986   3.195   0.677   2.307  0.0406  0.6710  1.3834
14857TIP3    H265987   3.318   0.596   2.275 -1.2288 -0.2682 -1.4405
14858TIP3   OH265988   6.002   0.337   5.401  0.0135  0.0510 -0.1656
14858TIP3    H165989   5.915   0.377   5.394  0.0234 -0.0148 -0.7508
14858TIP3    H265990   6.036   0.366   5.485 -1.1279 -1.0142  0.6930
14859TIP3   OH265991   5.531   1.139   0.206  0.1804 -0.3782 -0.3944
14859TIP3    H165992   5.471   1.211   0.190  0.0491 -0.7918 -1.9671
14859TIP3    H265993   5.613   1.167   0.166  0.6625 -0.3693  0.5719
14860TIP3   OH265994   6.539   3.651  10.750  0.3128  0.4194  0.0011
14860TIP3    H165995   6.448   3.644  10.778  0.7376  0.0088  1.3403
14860TIP3    H265996   6.535   3.696  10.666 -1.3230 -1.7458 -1.1918
14861TIP3   OH265997   4.241   3.187   2.558  0.3678  0.0777  0.1416
14861TIP3    H165998   4.208   3.228   2.638 -0.2269  0.7969 -0.4532
14861TIP3    H265999   4.209   3.097   2.563  1.1690 -0.1664  1.1717
14862TIP3   OH266000   2.377   5.921  15.509 -0.6082  0.2488 -0.3796
14862TIP3    H166001   2.425   5.934  15.591 -1.8296  0.7174  0.2880
14862TIP3    H266002   2.355   5.828  15.509  1.8660 -0.4016 -1.6108
14863TIP3   OH266003   1.172   3.655   3.381  0.1171 -0.3029 -0.2585
14863TIP3    H166004   1.153   3.729   3.324 -2.1438 -0.5570  0.0754
14863TIP3    H266005   1.107   3.661   3.451  1.3427 -1.3189  1.0338
14864TIP3   OH266006   3.202   1.568   1.340  0.2315  0.4602 -0.1023
14864TIP3    H166007   3.298   1.568   1.346  0.2132 -0.5334  0.3055
14864TIP3    H266008   3.176   1.481   1.371 -0.6774 -0.1706 -2.4607
14865TIP3   OH266009   6.064   2.451   2.232  0.0073  0.4916 -0.3705
14865TIP3    H166010   6.080   2.431   2.324 -0.4732  1.1166 -0.1435
14865TIP3    H266011   5.973   2.480   2.229 -0.1654 -0.1069 -1.1454
14866TIP3   OH266012   5.046   5.242   4.895  0.3554  0.5167  0.3407
14866TIP3    H166013   4.968   5.284   4.860  0.0215 -0.1631  0.2532
14866TIP3    H266014   5.078   5.188   4.823  0.2558 -0.0900  0.7447
14867TIP3   OH266015   0.792   1.014  11.167 -0.9936 -0.2466 -0.7403
14867TIP3    H166016   0.832   0.929  11.187 -0.0172  0.4872  0.5524
14867TIP3    H266017   0.778   1.011  11.072  0.0554 -1.4233 -0.8947
14868TIP3   OH266018   1.564   1.133   5.754  0.2810  0.3547  0.3202
14868TIP3    H166019   1.642   1.121   5.809 -1.6779 -2.4322  2.7926
14868TIP3    H266020   1.576   1.071   5.682  0.4312  0.0586  0.5972
14869TIP3   OH266021   0.815   6.267   2.431  0.4729  0.3587 -0.4552
14869TIP3    H166022   0.742   6.328   2.436  0.1093  0.0226 -1.5312
14869TIP3    H266023   0.888   6.314   2.473 -0.3140  0.7262  0.5481
14870TIP3   OH266024   1.445   3.366   3.631 -0.2574  0.8642  0.2510
14870TIP3    H166025   1.468   3.309   3.705 -1.0935  0.9022  0.5544
14870TIP3    H266026   1.527   3.381   3.586 -0.2100 -1.9742 -0.8254
14871TIP3   OH266027   2.762   2.290  16.985  0.1091 -0.1303  0.0816
14871TIP3    H166028   2.792   2.379  17.004 -2.4320  0.9793 -0.7476
14871TIP3    H266029   2.808   2.236  17.050  0.0076  2.0676  2.1426
14872TIP3   OH266030   5.986   4.383   4.541 -0.3230 -0.4099 -0.0581
14872TIP3    H166031   6.019   4.355   4.456 -0.0997 -1.1808  0.2766
14872TIP3    H266032   5.931   4.459   4.522 -0.1194 -0.4594 -0.8637
14873TIP3   OH266033   4.789   6.622   1.229  0.0090 -0.2485 -0.0201
14873TIP3    H166034   4.800   6.676   1.307  1.2391  0.2595 -0.5212
14873TIP3    H266035   4.813   6.534   1.258 -1.0551 -0.3730  0.5485
14874TIP3   OH266036   2.451   6.210   4.718 -0.2241  0.0263  0.1021
14874TIP3    H166037   2.525   6.270   4.712 -0.5579  0.5585  1.0045
14874TIP3    H266038   2.383   6.251   4.663 -0.0624 -0.1271 -0.2103
14875TIP3   OH266039   3.200   5.017  15.864  0.5518 -0.1512  0.0697
14875TIP3    H166040   3.110   4.987  15.845 -0.1674  0.7855  1.7921
14875TIP3    H266041   3.189   5.085  15.930  2.4196  1.3060 -1.0183
14876TIP3   OH266042   0.090   2.529  16.120 -0.4051 -0.4437 -0.5297
14876TIP3    H166043   0.105   2.612  16.165  1.7517 -0.0150 -1.8695
14876TIP3    H266044   0.178   2.492  16.108 -0.7520 -0.4543 -4.4031
14877TIP3   OH266045   5.839   0.795   2.889  0.6285 -0.0355  0.6903
14877TIP3    H166046   5.829   0.882   2.851  1.1518 -0.2961 -0.0693
14877TIP3    H266047   5.873   0.741   2.818  0.0249 -0.9373  1.0696
14878TIP3   OH266048   3.395   0.556  10.700  0.0019  0.0954 -0.5478
14878TIP3    H166049   3.418   0.643  10.667 -1.3404  1.3786  1.5662
14878TIP3    H266050   3.310   0.537  10.660 -0.1335  0.2074 -0.3218
14879TIP3   OH266051   0.481   5.261   2.294 -0.6091 -0.1388  0.2756
14879TIP3    H166052   0.408   5.216   2.335 -0.5253 -0.8800 -0.3654
14879TIP3    H266053   0.458   5.263   2.201  1.6929 -3.4927 -0.5407
14880TIP3   OH266054   5.537   3.852   0.358  0.3732  0.3980 -0.4722
14880TIP3    H166055   5.485   3.861   0.278  1.8006  0.1435 -1.4696
14880TIP3    H266056   5.533   3.759   0.379 -1.7011  0.7727  0.9733
14881TIP3   OH266057   2.546   2.954  15.044  0.8627  0.3293  0.1631
14881TIP3    H166058   2.552   3.046  15.070 -0.1230  0.1311  1.1982
14881TIP3    H266059   2.629   2.916  15.072 -0.3454 -0.0062  3.8952
14882TIP3   OH266060   2.050   3.161  12.215 -0.6282 -0.1367  0.4344
14882TIP3    H166061   1.976   3.208  12.177 -0.3321 -0.3903 -0.4890
14882TIP3    H266062   2.123   3.222  12.206 -0.5295 -0.2518  0.4588
14883TIP3   OH266063   0.252   4.506   5.916  0.0141  0.4284  0.2055
14883TIP3    H166064   0.253   4.509   6.012 -0.6731 -0.7676  0.2690
14883TIP3    H266065   0.309   4.579   5.889  1.1956  0.0305  1.5170
14884TIP3   OH266066   4.577   1.587  12.530 -0.3477  0.4922  0.4574
14884TIP3    H166067   4.589   1.681  12.544 -0.7380  0.3714  1.8009
14884TIP3    H266068   4.496   1.567  12.577 -1.0679 -0.2610 -1.0483
14885TIP3   OH266069   1.418   0.013  16.009  0.1843 -0.3445  0.0491
14885TIP3    H166070   1.469   0.032  15.930  4.2023  0.0860  2.4515
14885TIP3    H266071   1.404   0.099  16.049  0.7598 -0.7519  1.1670
14886TIP3   OH266072   4.306   1.053  11.211  0.5606 -0.1295 -0.3041
14886TIP3    H166073   4.265   1.071  11.127  1.6220 -0.2212 -0.8490
14886TIP3    H266074   4.362   1.129  11.228  0.3474 -0.1033  0.3261
14887TIP3   OH266075   2.405   4.613  12.173 -0.2460 -0.6988 -0.2800
14887TIP3    H166076   2.353   4.615  12.253  0.5587 -1.0246  0.2542
14887TIP3    H266077   2.467   4.685  12.183  2.1784 -2.8299  0.9925
14888TIP3   OH266078   3.510   0.457   5.775  0.1037  0.5504 -0.2864
14888TIP3    H166079   3.522   0.470   5.869  0.0419  0.3500 -0.2522
14888TIP3    H266080   3.435   0.398   5.768 -0.8535  1.7271 -0.4923
14889TIP3   OH266081   0.335   4.035   1.758  0.3831 -0.1330 -0.4359
14889TIP3    H166082   0.281   4.104   1.719  0.6714 -0.6216 -1.7574
14889TIP3    H266083   0.312   3.957   1.708  1.2354 -0.6550 -0.0254
14890TIP3   OH266084   0.081   3.342  13.862  0.1226  0.1745 -0.1909
14890TIP3    H166085   0.023   3.403  13.907 -0.4061  1.2283 -2.1920
14890TIP3    H266086   0.055   3.255  13.894 -0.4572  0.8384  1.2195
14891TIP3   OH266087   4.038   5.829   1.035  0.2062  0.2570  0.1385
14891TIP3    H166088   3.950   5.825   1.073 -0.0142  0.9052 -0.2941
14891TIP3    H266089   4.025   5.812   0.942  0.4756  0.8311 -0.0077
14892TIP3   OH266090   4.744   2.407   0.760  0.3047 -0.0807  0.2952
14892TIP3    H166091   4.654   2.436   0.777  1.2708  2.1298  2.2190
14892TIP3    H266092   4.738   2.312   0.756 -2.1956  0.0266 -0.3072
14893TIP3   OH266093   2.439   5.625   6.153 -0.1749 -0.5004 -0.1292
14893TIP3    H166094   2.390   5.707   6.144 -1.3535 -1.2841 -1.1160
14893TIP3    H266095   2.504   5.629   6.083 -0.9426 -0.8682 -0.8843
14894TIP3   OH266096   0.301   3.706  13.740  0.1455 -0.0221 -0.0690
14894TIP3    H166097   0.356   3.777  13.706  0.1645 -0.0359 -0.0673
14894TIP3    H266098   0.263   3.665  13.663  0.1503 -0.0228 -0.0705
14895TIP3   OH266099   1.209   4.388   0.003 -0.1252 -0.3576  0.0953
14895TIP3    H166100   1.275   4.373   0.070  1.7393  0.5793 -1.4436
14895TIP3    H266101   1.157   4.461   0.037  0.9911  0.3151  0.4211
14896TIP3   OH266102   5.703   2.848   2.493  0.4159  0.3181 -0.2495
14896TIP3    H166103   5.690   2.762   2.454 -2.2595  0.5152  0.0139
14896TIP3    H266104   5.797   2.861   2.491  0.7108 -1.3702 -2.9599
14897TIP3   OH266105   4.005   4.064   2.183 -0.2221  0.5413  0.4614
14897TIP3    H166106   3.952   3.985   2.186 -2.1278  1.7106 -0.5626
14897TIP3    H266107   4.048   4.062   2.098  0.3752  0.2493  0.7584
14898TIP3   OH266108   5.939   3.879   2.228  0.4280  0.5351 -0.3037
14898TIP3    H166109   5.871   3.814   2.247  0.2683  1.3598  2.2752
14898TIP3    H266110   5.917   3.911   2.140 -2.5422  0.7563  0.3957
14899TIP3   OH266111   0.375   6.321  12.325  0.0151 -0.3847 -0.3383
14899TIP3    H166112   0.462   6.348  12.352  0.1786 -1.1323 -0.0867
14899TIP3    H266113   0.316   6.358  12.391  0.0676  0.6751 -0.8710
14900TIP3   OH266114   3.186   6.048  13.511  0.1646  0.7218 -0.1309
14900TIP3    H166115   3.174   6.140  13.490  1.3386  1.2769  1.5017
14900TIP3    H266116   3.261   6.021  13.459 -0.2958  0.6127 -0.7541
14901TIP3   OH266117   0.914   1.394  13.282  0.0690  0.8633 -0.4858
14901TIP3    H166118   0.878   1.326  13.340 -1.8662  0.1889 -2.3494
14901TIP3    H266119   0.865   1.473  13.305 -0.8870  0.5349 -1.3100
14902TIP3   OH266120   1.675   6.099   0.966 -0.3337 -0.0157 -0.4005
14902TIP3    H166121   1.674   6.043   1.043 -1.1581  0.5736  0.0304
14902TIP3    H266122   1.656   6.041   0.893 -2.5002 -0.1193  0.1842
14903TIP3   OH266123   0.077   3.461  14.212 -0.1428 -0.0489  0.1659
14903TIP3    H166124   0.072   3.539  14.267 -1.9493  0.1323 -0.1840
14903TIP3    H266125   0.128   3.398  14.263 -0.4668  0.6472  1.3799
14904TIP3   OH266126   5.932   0.003  15.306 -0.2413 -0.7746 -0.2175
14904TIP3    H166127   5.945  -0.091  15.312 -0.5573 -0.8050 -0.0063
14904TIP3    H266128   6.008   0.035  15.258  1.5114 -0.7648  2.3358
14905TIP3   OH266129   3.571   1.103  12.245  0.2583  0.1165 -0.1327
14905TIP3    H166130   3.476   1.099  12.252  0.3213 -1.0844  0.3066
14905TIP3    H266131   3.598   1.169  12.308 -0.2714  0.3262 -0.1272
14906TIP3   OH266132   3.931   6.356   4.846 -0.0018 -0.0361  0.5574
14906TIP3    H166133   4.013   6.404   4.858 -0.1215  0.1237  0.7399
14906TIP3    H266134   3.929   6.336   4.753 -0.7974  1.8815  0.1159
14907TIP3   OH266135   2.755   6.313  16.120  0.7603 -0.1194 -0.4445
14907TIP3    H166136   2.771   6.350  16.033 -0.0588  0.9365 -0.1654
14907TIP3    H266137   2.696   6.375  16.162  0.5568 -0.9949  0.6081
14908TIP3   OH266138   0.203   1.237  14.953 -0.2789  0.9346  0.0838
14908TIP3    H166139   0.141   1.306  14.927 -1.0176  0.3705  0.3285
14908TIP3    H266140   0.275   1.244  14.890 -1.4090  0.4682 -1.2921
14909TIP3   OH266141   6.260   1.334  10.876 -0.7071  0.0437 -0.0890
14909TIP3    H166142   6.289   1.261  10.822  0.1704  1.0178 -0.9896
14909TIP3    H266143   6.272   1.411  10.820  0.0168  1.0721  1.4079
14910TIP3   OH266144   0.088   0.796  13.582 -0.0305  0.4051 -0.0057
14910TIP3    H166145   0.050   0.843  13.508 -1.9926 -1.2642 -0.1391
14910TIP3    H266146   0.034   0.819  13.657 -0.2087 -0.5758  0.1882
14911TIP3   OH266147   5.259   6.354  11.101 -0.2196 -0.0312  0.0278
14911TIP3    H166148   5.271   6.263  11.072 -0.3420 -0.4360  1.1758
14911TIP3    H266149   5.178   6.352  11.151 -0.2555  0.7372  0.0043
14912TIP3   OH266150   4.116   3.263   3.646 -0.1529  0.2479 -0.4215
14912TIP3    H166151   4.044   3.319   3.616  0.6086  0.2008 -2.5120
14912TIP3    H266152   4.134   3.206   3.571 -0.3777 -2.2936  1.3519
14913TIP3   OH266153   1.376   4.434  10.998 -0.0850 -0.0656 -0.1762
14913TIP3    H166154   1.442   4.413  10.931 -1.6799  1.3074 -2.3396
14913TIP3    H266155   1.355   4.526  10.982 -0.6950  0.2457  2.1466
14914TIP3   OH266156   1.008   2.913   5.751  0.2659 -0.1986 -0.1805
14914TIP3    H166157   1.092   2.919   5.795  0.3928  2.7867 -0.6502
14914TIP3    H266158   1.025   2.946   5.663 -1.4705  0.9684 -0.1184
14915TIP3   OH266159   2.576   0.352   1.355 -0.8871  0.0732  1.1113
14915TIP3    H166160   2.552   0.418   1.289 -2.4324 -0.1877  1.3811
14915TIP3    H266161   2.669   0.367   1.370 -0.2992 -0.2919 -1.6022
14916TIP3   OH266162   2.675   4.192  12.379 -0.0118 -0.2338  0.2279
14916TIP3    H166163   2.706   4.283  12.381  0.9705 -0.5702  0.5630
14916TIP3    H266164   2.643   4.176  12.468  1.1532 -0.6615  0.5844
14917TIP3   OH266165   2.702   6.733   4.677 -0.2731 -0.5033 -0.5362
14917TIP3    H166166   2.694   6.737   4.581  0.7897  1.4074 -0.5830
14917TIP3    H266167   2.612   6.740   4.709 -0.4211  3.1490 -1.3619
14918TIP3   OH266168   3.967   4.150   4.187  0.1682 -0.1633  0.2557
14918TIP3    H166169   4.037   4.214   4.204  0.9894 -1.2425  1.1343
14918TIP3    H266170   3.977   4.126   4.095  2.2129 -1.6938  0.8154
14919TIP3   OH266171   1.513   4.428  15.431 -0.4178  0.0495  0.0037
14919TIP3    H166172   1.477   4.340  15.439 -0.2200  0.0908  1.7151
14919TIP3    H266173   1.592   4.426  15.485  0.0805  1.0335 -0.6606
14920TIP3   OH266174   5.039   0.807   5.898 -0.0849  0.6218 -0.2117
14920TIP3    H166175   5.070   0.874   5.959 -0.9911  0.7419  0.1301
14920TIP3    H266176   5.100   0.811   5.824 -0.3019  2.0231 -0.3345
14921TIP3   OH266177   0.008   1.590   0.239 -0.3044 -0.0586 -0.1683
14921TIP3    H166178  -0.032   1.510   0.271  1.6018 -1.0219 -0.0272
14921TIP3    H266179   0.099   1.585   0.269 -0.1577  2.2377 -0.0318
14922TIP3   OH266180   3.798   4.169  14.040  0.2195  0.1164 -0.6257
14922TIP3    H166181   3.806   4.259  14.070 -0.3023  0.0251 -0.1862
14922TIP3    H266182   3.743   4.126  14.106  1.8120 -0.9562  0.0778
14923TIP3   OH266183   2.221   1.389   1.422  0.5238  0.2009  0.2312
14923TIP3    H166184   2.224   1.431   1.508 -0.0475 -2.4782  1.6808
14923TIP3    H266185   2.309   1.403   1.386  0.7521  1.4543  1.1808
14924TIP3   OH266186   5.542   3.644   3.740 -0.6272 -0.1145 -0.6649
14924TIP3    H166187   5.626   3.611   3.770 -0.5636  1.5925  1.2243
14924TIP3    H266188   5.496   3.669   3.820 -2.1729  0.7559 -1.7683
14925TIP3   OH266189   1.832   3.171   1.671  0.4383 -0.3100 -0.2307
14925TIP3    H166190   1.862   3.194   1.759  2.3415 -1.2411 -0.5967
14925TIP3    H266191   1.737   3.169   1.678  0.5515 -0.3754  1.8043
14926TIP3   OH266192   5.533   6.670  10.444 -0.2911  0.3396  0.5205
14926TIP3    H166193   5.564   6.755  10.474 -1.6831  0.4313  1.8156
14926TIP3    H266194   5.446   6.687  10.406  0.0134 -0.3061 -0.5281
14927TIP3   OH266195   1.875   1.756  17.073 -0.2883  0.2663  0.6254
14927TIP3    H166196   1.867   1.661  17.074 -2.1301  0.3666  0.5022
14927TIP3    H266197   1.788   1.787  17.098  0.5650  1.9235  1.7117
14928TIP3   OH266198   6.246   6.485   0.529 -0.1433 -0.0330  0.2557
14928TIP3    H166199   6.163   6.529   0.511 -1.3696 -2.5161 -0.6434
14928TIP3    H266200   6.230   6.393   0.508  3.4001 -0.3661 -1.8555
14929TIP3   OH266201   2.930   2.170  12.864  0.1863 -0.3740 -0.5432
14929TIP3    H166202   2.929   2.108  12.937  0.0811 -0.5956 -0.7303
14929TIP3    H266203   2.934   2.114  12.786 -0.2396 -0.1562 -0.7250
14930TIP3   OH266204   1.302   1.490  11.468 -0.2649 -0.2192  0.0333
14930TIP3    H166205   1.255   1.439  11.534 -0.1493 -0.4789 -0.0836
14930TIP3    H266206   1.274   1.452  11.384 -0.7964  0.4283 -0.1003
14931TIP3   OH266207   1.019   2.332  12.793 -0.0823  0.0119 -0.0992
14931TIP3    H166208   0.958   2.381  12.849  0.1661  0.6466 -0.3650
14931TIP3    H266209   1.020   2.381  12.710  0.3688 -0.2990 -0.2812
14932TIP3   OH266210   6.663   2.832  11.360 -0.7496 -0.7593 -0.7432
14932TIP3    H166211   6.660   2.741  11.331  0.8383 -1.0171 -0.2345
14932TIP3    H266212   6.652   2.883  11.280  0.6143 -1.4317 -1.3950
14933TIP3   OH266213   2.308   3.278  11.850  0.3335  0.1281 -0.6250
14933TIP3    H166214   2.303   3.257  11.944  0.5601 -1.4389 -0.9494
14933TIP3    H266215   2.238   3.343  11.837  0.6138  0.7390  0.7109
14934TIP3   OH266216   2.267   0.656   0.550 -0.3025  0.4008  0.0897
14934TIP3    H166217   2.261   0.594   0.623 -1.4010  0.8774  0.4249
14934TIP3    H266218   2.357   0.686   0.551 -0.7914  2.0071  2.6106
14935TIP3   OH266219   4.131   3.187  16.953 -0.1184 -0.2769  0.3744
14935TIP3    H166220   4.115   3.111  16.897  2.9840  1.3485 -3.0996
14935TIP3    H266221   4.064   3.251  16.926  0.3186 -0.0906 -0.2808
14936TIP3   OH266222   2.127   6.211   1.465  0.0108 -0.8229  0.3288
14936TIP3    H166223   2.115   6.296   1.424 -1.0451 -0.2355  1.7618
14936TIP3    H266224   2.215   6.214   1.503  0.8755 -1.2614 -1.5225
14937TIP3   OH266225   5.471   1.406   0.362 -0.0196 -0.2091  0.5348
14937TIP3    H166226   5.485   1.380   0.271 -2.3398  0.5684 -0.1306
14937TIP3    H266227   5.447   1.499   0.356  0.1334 -0.0558  1.9942
14938TIP3   OH266228   1.875   2.345   3.399 -0.1501 -0.2037 -0.3224
14938TIP3    H166229   1.854   2.401   3.323 -0.3917  0.5429  0.2807
14938TIP3    H266230   1.880   2.257   3.363 -1.7971 -0.0828 -0.9437
14939TIP3   OH266231   3.874   4.528   2.957  0.4856 -0.5394 -0.0609
14939TIP3    H166232   3.868   4.520   3.052  2.3846 -1.0614  0.0732
14939TIP3    H266233   3.928   4.453   2.931  1.7320  0.7261 -1.2769
14940TIP3   OH266234   0.776   3.077   4.335  0.1662  0.3711  0.4808
14940TIP3    H166235   0.809   3.113   4.418  3.2350 -1.3329  0.1446
14940TIP3    H266236   0.795   2.983   4.341 -1.3644 -0.1131 -1.3958
14941TIP3   OH266237   0.266   3.831   2.256  0.4712  0.6225  0.4047
14941TIP3    H166238   0.300   3.751   2.297  0.8024  0.4611 -0.1769
14941TIP3    H266239   0.239   3.803   2.169 -0.3568  0.9381  0.5453
14942TIP3   OH266240   3.560   3.934   3.389  0.1001 -0.0290  0.2119
14942TIP3    H166241   3.512   3.951   3.308 -1.0278 -0.6165  0.7317
14942TIP3    H266242   3.621   4.007   3.397  0.1134  0.1212 -1.0773
14943TIP3   OH266243   4.767   5.348  11.336 -0.3516 -0.4182  0.0730
14943TIP3    H166244   4.744   5.440  11.349 -0.6359 -0.6229  1.1396
14943TIP3    H266245   4.752   5.332  11.243  0.3304  0.7809 -0.2537
14944TIP3   OH266246   3.256   1.100   2.510 -0.3260  0.0662 -0.1800
14944TIP3    H166247   3.287   1.101   2.600  0.3894  3.0808 -0.3577
14944TIP3    H266248   3.294   1.021   2.472 -0.4995 -1.1723  2.0729
14945TIP3   OH266249   3.428   6.727   3.040 -0.1487 -0.2375 -0.9180
14945TIP3    H166250   3.346   6.776   3.046  0.7794  1.3228 -0.4145
14945TIP3    H266251   3.448   6.725   2.946 -0.3323  0.1063 -0.9649
14946TIP3   OH266252   6.748   5.013   3.516 -0.2482  0.2952 -0.2200
14946TIP3    H166253   6.713   5.095   3.481  1.1174  1.2585  0.5335
14946TIP3    H266254   6.703   4.944   3.468 -1.0970  1.5023 -1.2097
14947TIP3   OH266255   3.665   4.031  15.650 -0.1449 -0.0540 -0.1667
14947TIP3    H166256   3.615   4.056  15.571 -0.5659  0.5202  0.2729
14947TIP3    H266257   3.734   3.973  15.617 -1.2911 -1.1377 -0.7573
14948TIP3   OH266258   4.083   2.491  16.799 -0.1222 -0.4776  0.4228
14948TIP3    H166259   4.120   2.477  16.886  0.4382 -2.8349 -0.1304
14948TIP3    H266260   4.088   2.586  16.786  2.1360 -0.2967  1.9509
14949TIP3   OH266261   0.090   5.890  15.757  0.8021 -0.1855  0.2835
14949TIP3    H166262   0.015   5.832  15.747 -0.1281  1.2167 -1.5104
14949TIP3    H266263   0.164   5.838  15.724  0.3938 -1.0720  0.7108
14950TIP3   OH266264   3.731   3.852   0.016 -0.4340  0.4332  0.2475
14950TIP3    H166265   3.653   3.817  -0.028 -1.1608  1.6968  0.5056
14950TIP3    H266266   3.729   3.811   0.102  0.4219 -1.2379 -0.4756
14951TIP3   OH266267   1.261   3.947  11.448 -0.3550  0.1415  0.6309
14951TIP3    H166268   1.192   3.900  11.402 -1.1843 -0.1509  2.1258
14951TIP3    H266269   1.338   3.940  11.390 -1.8707  1.6893 -1.7582
14952TIP3   OH266270   1.451   0.914  10.236  0.6448  0.3047  0.0377
14952TIP3    H166271   1.397   0.915  10.315 -0.2640 -1.0477 -0.5342
14952TIP3    H266272   1.540   0.932  10.267  0.2013  0.4295  1.2714
14953TIP3   OH266273   3.654   4.134  13.764  0.4532  0.4476  0.0955
14953TIP3    H166274   3.675   4.219  13.727  0.6962  0.9844  1.4255
14953TIP3    H266275   3.692   4.135  13.852  1.5803 -1.5006 -0.2868
14954TIP3   OH266276   0.426   1.751  11.131  0.2906 -0.1543  0.2311
14954TIP3    H166277   0.359   1.691  11.098  0.7053 -0.3173 -0.3269
14954TIP3    H266278   0.483   1.695  11.184  1.0720 -0.4080 -0.8465
14955TIP3   OH266279   4.166   0.272   0.281 -0.1653 -0.3198 -0.4826
14955TIP3    H166280   4.239   0.263   0.221  0.0660 -1.7789 -0.0101
14955TIP3    H266281   4.204   0.262   0.368 -0.7606  0.0243 -0.1715
14956TIP3   OH266282   5.028   4.018   2.090  0.0923  0.6795  0.6836
14956TIP3    H166283   5.033   4.043   2.182  2.2983  1.9860  0.2923
14956TIP3    H266284   5.112   3.975   2.072 -0.1426  0.7723 -0.7945
14957TIP3   OH266285   5.289   0.463   2.705 -0.0314  0.8332 -0.2007
14957TIP3    H166286   5.246   0.547   2.719  0.5845  1.3731 -1.4660
14957TIP3    H266287   5.382   0.483   2.709  0.1284  0.0252  0.4454
14958TIP3   OH266288   5.500   0.726  16.288 -0.1430 -0.3060 -0.3848
14958TIP3    H166289   5.554   0.650  16.265 -0.3651 -1.1543  1.7384
14958TIP3    H266290   5.524   0.792  16.223  0.2859 -2.0541 -2.1051
14959TIP3   OH266291   3.752   0.364  11.287 -0.0277  0.5376  0.0930
14959TIP3    H166292   3.690   0.339  11.218  0.8841 -0.4291 -0.4243
14959TIP3    H266293   3.758   0.459  11.281 -1.7816  0.7123  0.4673
14960TIP3   OH266294   0.400   3.133   1.117 -0.4516  0.0292  0.2351
14960TIP3    H166295   0.436   3.220   1.100  2.5877 -1.1658 -0.0602
14960TIP3    H266296   0.425   3.115   1.208  1.1227 -1.4348 -0.4513
14961TIP3   OH266297   1.132   6.365  11.671 -0.1916 -0.4767  0.2787
14961TIP3    H166298   1.134   6.273  11.697 -1.6227 -0.4940  0.4028
14961TIP3    H266299   1.039   6.387  11.669  0.0799  0.6484 -0.8988
14962TIP3   OH266300   0.650   2.706  11.953  0.1291 -0.7775 -0.2343
14962TIP3    H166301   0.564   2.725  11.992  0.8665  0.9402  0.6825
14962TIP3    H266302   0.707   2.693  12.029  1.5856  2.5479 -0.5721
14963TIP3   OH266303   1.002   1.533  11.104  0.2001 -0.7855  0.1177
14963TIP3    H166304   0.907   1.549  11.111  0.5369  1.3615  0.7385
14963TIP3    H266305   1.015   1.510  11.012 -0.7345  0.8378 -0.4839
14964TIP3   OH266306   2.229   4.052  14.804 -0.7479  0.1433  0.2313
14964TIP3    H166307   2.175   4.130  14.790 -0.3099  0.6180  1.0756
14964TIP3    H266308   2.165   3.981  14.819 -1.1701  0.0729 -1.6970
14965TIP3   OH266309   1.175   6.065  12.496 -0.1098 -0.4073  0.0673
14965TIP3    H166310   1.132   6.026  12.572 -0.7542 -1.9600 -1.0423
14965TIP3    H266311   1.104   6.084  12.434  0.3662  1.1230 -0.0686
14966TIP3   OH266312   5.622   6.595   4.668 -0.1331 -0.3557 -0.0406
14966TIP3    H166313   5.613   6.516   4.721  0.2582  0.2003  0.8876
14966TIP3    H266314   5.677   6.569   4.595  0.5735 -0.7891  0.6242
14967TIP3   OH266315   2.636   3.150  12.032  0.3661  0.1046 -0.9517
14967TIP3    H166316   2.722   3.110  12.018  0.0776 -0.8000 -0.2690
14967TIP3    H266317   2.655   3.242  12.051  1.3202 -0.3719  0.6071
14968TIP3   OH266318   6.453   3.351   1.634  0.9014  0.1873 -0.1138
14968TIP3    H166319   6.427   3.397   1.555 -0.8134 -0.9479 -0.2655
14968TIP3    H266320   6.444   3.258   1.612  0.7157 -0.1506  1.2938
14969TIP3   OH266321   0.458   3.828   0.205  0.1525 -0.3222 -0.6852
14969TIP3    H166322   0.501   3.911   0.227 -0.3350 -0.2627  0.0797
14969TIP3    H266323   0.506   3.796   0.129 -1.0462  1.7772 -2.4578
14970TIP3   OH266324   2.393   2.168  16.573  0.0280  0.5688 -0.3141
14970TIP3    H166325   2.365   2.216  16.495 -0.7912 -1.1548 -1.1477
14970TIP3    H266326   2.312   2.148  16.619  0.1096 -1.5755 -0.9895
14971TIP3   OH266327   1.379   2.912  15.613  0.0774 -0.7834  0.3553
14971TIP3    H166328   1.406   2.979  15.676 -2.4912  1.3825 -0.6493
14971TIP3    H266329   1.324   2.852  15.664 -1.1683  0.3979  0.4695
14972TIP3   OH266330   2.871   5.237  13.152  0.3485  0.3299  0.1073
14972TIP3    H166331   2.954   5.195  13.128  0.0041 -0.8111  0.8504
14972TIP3    H266332   2.833   5.262  13.068  1.3704  0.7463 -0.2547
14973TIP3   OH266333   6.072   5.403  14.678  0.1351 -0.2580 -0.6501
14973TIP3    H166334   6.146   5.459  14.655 -0.0205  0.1707 -0.1523
14973TIP3    H266335   5.995   5.459  14.664 -0.3007 -1.3558 -3.2571
14974TIP3   OH266336   1.537   3.677  11.220  0.2658  0.4750  0.4985
14974TIP3    H166337   1.547   3.753  11.277 -0.7890  0.6095  0.5363
14974TIP3    H266338   1.484   3.710  11.147  1.0848  0.1542 -0.2509
14975TIP3   OH266339   0.403   0.599   0.628 -0.3720  0.0593 -0.0427
14975TIP3    H166340   0.370   0.534   0.690  0.8998 -1.5326 -0.9678
14975TIP3    H266341   0.350   0.586   0.550  1.3752 -1.5136 -1.0298
14976TIP3   OH266342   1.393   4.855   5.941 -0.4339  0.3069 -0.1813
14976TIP3    H166343   1.319   4.909   5.968 -1.3315 -0.1652 -1.5713
14976TIP3    H266344   1.389   4.778   5.999 -0.3262  0.8103  0.5056
14977TIP3   OH266345   4.656   0.257  14.533 -0.4933  0.0450 -0.0936
14977TIP3    H166346   4.606   0.211  14.601  1.5649  0.1448  1.6006
14977TIP3    H266347   4.684   0.339  14.575  0.6363  0.2244 -1.1385
14978TIP3   OH266348   2.780   3.655   4.958 -0.5521  0.0596 -0.3449
14978TIP3    H166349   2.778   3.651   4.863  1.6683 -1.4590 -0.4069
14978TIP3    H266350   2.688   3.649   4.984 -1.3452  2.1108 -2.3790
14979TIP3   OH266351   1.348   2.501   4.695 -0.6042 -0.2561  0.2604
14979TIP3    H166352   1.414   2.558   4.736 -0.9429 -0.6709  1.4091
14979TIP3    H266353   1.365   2.415   4.731  0.2288 -1.0571 -1.8482
14980TIP3   OH266354   4.121   2.097  12.317 -0.1975  0.4104  0.1382
14980TIP3    H166355   4.203   2.138  12.343 -0.6674  0.9514  0.8117
14980TIP3    H266356   4.063   2.171  12.297 -0.8527  0.0629  0.7156
14981TIP3   OH266357   2.821   2.324  11.984  0.0826 -0.2900  0.3085
14981TIP3    H166358   2.882   2.376  12.037 -0.9439  0.1657  1.0881
14981TIP3    H266359   2.846   2.234  12.001 -0.1367 -0.1462  1.5014
14982TIP3   OH266360   6.392   3.578   0.038 -0.0990 -0.3184 -0.8076
14982TIP3    H166361   6.302   3.567   0.070 -0.2875 -1.4913 -1.6584
14982TIP3    H266362   6.444   3.521   0.095  0.3699  1.4859  0.6474
14983TIP3   OH266363   3.730   4.139   3.867 -0.3464  0.3557 -0.2622
14983TIP3    H166364   3.793   4.067   3.878 -0.1655  0.4091 -0.8819
14983TIP3    H266365   3.783   4.218   3.876 -0.2374  0.4021 -1.1365
14984TIP3   OH266366   0.573   3.079  16.822 -0.0858  0.2380  0.0480
14984TIP3    H166367   0.527   3.157  16.791  1.0264  0.1253 -2.1701
14984TIP3    H266368   0.620   3.108  16.900  0.7473  2.0159 -1.0350
14985TIP3   OH266369   6.321   4.870   0.678  0.5115  0.5856  0.7440
14985TIP3    H166370   6.357   4.851   0.592 -0.9451  0.0262  0.2223
14985TIP3    H266371   6.388   4.839   0.739  1.6519  1.1734 -0.1692
14986TIP3   OH266372   4.913   0.600   1.614  0.5615  0.9386 -0.1856
14986TIP3    H166373   4.850   0.533   1.587  0.6085  1.8620 -2.9044
14986TIP3    H266374   4.880   0.681   1.577  2.6623  1.6734 -0.5916
14987TIP3   OH266375   5.113   6.444  14.090  0.3195 -0.0262  0.3900
14987TIP3    H166376   5.149   6.515  14.036  1.0333 -0.7774 -0.1486
14987TIP3    H266377   5.141   6.364  14.046 -0.7417 -0.6538  0.8161
14988TIP3   OH266378   4.993   2.285   4.445  0.2543 -0.0573 -0.3035
14988TIP3    H166379   4.899   2.301   4.453  0.2411 -0.3104  0.0473
14988TIP3    H266380   5.021   2.260   4.533  0.4022 -1.2581 -0.6661
14989TIP3   OH266381   0.937   6.289   4.153 -0.2230  0.2176  0.5003
14989TIP3    H166382   0.995   6.240   4.094  0.5107  2.3993 -0.6936
14989TIP3    H266383   0.996   6.348   4.201 -1.3734  2.7492 -0.9965
14990TIP3   OH266384   0.819   4.285   3.260 -0.1563  0.3325 -0.0606
14990TIP3    H166385   0.824   4.234   3.341  1.2035  1.1961  0.4492
14990TIP3    H266386   0.766   4.362   3.283 -2.6272 -0.9967 -0.9634
14991TIP3   OH266387   6.701   0.281   0.168 -0.1846 -0.2059  0.0726
14991TIP3    H166388   6.758   0.209   0.142 -0.6140 -1.2328  1.7958
14991TIP3    H266389   6.696   0.337   0.091  0.6048 -1.7340 -1.1492
14992TIP3   OH266390   3.772   4.246  15.761  0.3847  0.3146 -0.3597
14992TIP3    H166391   3.780   4.233  15.855  0.1772  0.6563 -0.2931
14992TIP3    H266392   3.749   4.160  15.726  2.3585 -0.2745 -0.3337
14993TIP3   OH266393   3.576   6.461  15.148  0.0632  0.4783 -0.6060
14993TIP3    H166394   3.567   6.473  15.243  1.2376  3.5412 -0.7725
14993TIP3    H266395   3.499   6.506  15.112  0.3103  0.4731 -1.1336
14994TIP3   OH266396   6.583   1.523  14.942 -0.1733  0.2719 -0.2464
14994TIP3    H166397   6.513   1.573  14.900 -2.0338 -0.7978  1.3576
14994TIP3    H266398   6.537   1.456  14.992  2.0353 -0.5165  0.8715
14995TIP3   OH266399   5.139   1.422   3.089 -0.0767 -0.4572 -0.5395
14995TIP3    H166400   5.160   1.330   3.102  0.7472 -0.0892  0.8509
14995TIP3    H266401   5.171   1.442   3.000  0.1889 -1.3706 -0.6534
14996TIP3   OH266402   1.487   0.721  10.572  0.2730 -0.0084  0.5942
14996TIP3    H166403   1.403   0.724  10.525  0.8895 -0.6877 -0.5921
14996TIP3    H266404   1.551   0.754  10.509  0.8999  0.6107  1.5272
14997TIP3   OH266405   0.111   0.125  14.923 -0.7098  0.1759 -0.5375
14997TIP3    H166406   0.202   0.102  14.901 -0.9491 -1.8049  0.3007
14997TIP3    H266407   0.117   0.163  15.011 -0.7263 -0.3367 -0.3118
14998TIP3   OH266408   0.843   4.721  13.795 -0.2519 -0.2061 -0.0464
14998TIP3    H166409   0.866   4.669  13.718  0.1040 -0.8148  0.4633
14998TIP3    H266410   0.845   4.812  13.764  0.8756 -0.3751 -0.5202
14999TIP3   OH266411   5.012   2.242  13.878  0.6145 -0.1772  0.1095
14999TIP3    H166412   5.031   2.317  13.934  0.9978 -0.2126  0.0295
14999TIP3    H266413   5.089   2.233  13.822  0.1172  0.0225 -0.6193
15000TIP3   OH266414   4.508   3.254   5.448 -0.1865  0.1854 -0.2448
15000TIP3    H166415   4.467   3.287   5.529 -1.7161  1.5799 -1.4961
15000TIP3    H266416   4.527   3.333   5.398 -1.0247 -0.6907 -2.0353
15001TIP3   OH266417   3.077   3.739   0.904  0.0200 -0.6363 -0.2836
15001TIP3    H166418   3.166   3.759   0.877  2.2804 -2.2457  4.7474
15001TIP3    H266419   3.078   3.645   0.922 -2.3006 -0.4914  1.0788
15002TIP3   OH266420   5.944   1.430   1.534  0.5537  0.0721 -0.3039
15002TIP3    H166421   5.967   1.465   1.621 -0.2701 -0.9823  0.3595
15002TIP3    H266422   6.025   1.436   1.484  0.8560  1.3993  0.2869
15003TIP3   OH266423   4.742   2.124  12.382  0.0657 -0.6182  0.0707
15003TIP3    H166424   4.746   2.062  12.455  0.3007 -1.8703 -0.9668
15003TIP3    H266425   4.712   2.071  12.308  0.6177  0.4399 -0.9370
15004TIP3   OH266426   3.904   0.667   0.461 -0.2285  0.6910 -0.3997
15004TIP3    H166427   3.941   0.578   0.458  0.5506  0.9741  0.2491
15004TIP3    H266428   3.868   0.682   0.374  1.9082  0.6807 -1.3432
15005TIP3   OH266429   4.920   5.452   0.867  0.1023  0.3784 -0.3303
15005TIP3    H166430   4.928   5.367   0.909  1.4170 -0.4553 -2.1260
15005TIP3    H266431   4.914   5.514   0.939 -2.2884 -1.2733  1.0715
15006TIP3   OH266432   3.562   1.920   1.547  0.1451 -0.2576  0.2001
15006TIP3    H166433   3.633   1.857   1.534  0.4078 -0.4724  2.3107
15006TIP3    H266434   3.607   2.003   1.562 -0.0563 -0.2312  0.6944
15007TIP3   OH266435   0.770   1.648  15.554 -0.6511  0.4433  0.1251
15007TIP3    H166436   0.864   1.663  15.551 -0.7548  1.3550  0.9715
15007TIP3    H266437   0.734   1.726  15.596 -1.9560  0.8308 -1.5709
15008TIP3   OH266438   3.008   6.445  12.340 -0.0369 -0.3036 -0.5247
15008TIP3    H166439   2.943   6.377  12.327 -0.7076  0.5656 -1.9383
15008TIP3    H266440   2.986   6.513  12.276  1.6398  0.4806 -0.3406
15009TIP3   OH266441   0.330   4.918   6.127 -0.3920  0.0350 -0.3904
15009TIP3    H166442   0.339   4.861   6.203  2.9348  1.9969  0.9261
15009TIP3    H266443   0.264   4.982   6.154 -0.5954 -0.3614  0.0878
15010TIP3   OH266444   1.787   5.766  12.392 -0.3090 -0.1955  0.2967
15010TIP3    H166445   1.764   5.705  12.322 -1.3359 -1.7800  1.9203
15010TIP3    H266446   1.709   5.771  12.446  0.6507  0.4698  1.6769
15011TIP3   OH266447   6.396   5.951  12.777 -0.2955  0.4058  0.2045
15011TIP3    H166448   6.361   5.928  12.690 -1.8506  2.9938  0.0297
15011TIP3    H266449   6.456   6.024  12.760  2.0901 -1.2420  1.0219
15012TIP3   OH266450   0.903   2.207   0.717 -0.1140  0.0188  0.0378
15012TIP3    H166451   0.820   2.188   0.761 -0.7731 -0.9517 -1.5299
15012TIP3    H266452   0.881   2.274   0.653 -0.2586 -1.8486 -1.9646
15013TIP3   OH266453   0.025   4.340   0.708 -0.7076 -0.2513 -0.1495
15013TIP3    H166454  -0.014   4.292   0.781  0.2874  0.1996  0.7084
15013TIP3    H266455   0.108   4.373   0.743 -0.3869  0.2924 -1.3756
15014TIP3   OH266456   4.869   6.364  16.826 -0.2134  0.3070  0.3936
15014TIP3    H166457   4.880   6.324  16.740 -2.6204  0.8292 -0.2250
15014TIP3    H266458   4.933   6.435  16.828  0.7643 -0.5325 -0.4224
15015TIP3   OH266459   3.700   4.771  16.567 -0.3877  1.4330 -0.5033
15015TIP3    H166460   3.734   4.815  16.490 -0.5120 -0.1230 -1.4897
15015TIP3    H266461   3.614   4.739  16.542 -1.0856  2.2103  0.7915
15016TIP3   OH266462   4.088   5.566   0.141 -0.1473  0.4814  0.3278
15016TIP3    H166463   4.003   5.593   0.176 -1.0171  2.3041 -2.7931
15016TIP3    H266464   4.133   5.648   0.122  2.0022 -0.4578  1.0978
15017TIP3   OH266465   2.192   1.796  10.895  0.4925  0.2807 -0.6705
15017TIP3    H166466   2.189   1.758  10.808 -0.8168 -0.8750 -0.1549
15017TIP3    H266467   2.180   1.722  10.954  1.3924  1.0302  0.5042
15018TIP3   OH266468   5.637   1.809   6.178  0.2924 -0.0298 -0.4529
15018TIP3    H166469   5.664   1.718   6.186  0.7366  0.1926  1.0243
15018TIP3    H266470   5.670   1.838   6.093  0.7236 -1.0547 -0.6439
15019TIP3   OH266471   1.747   1.925  15.313 -0.3885 -0.6785  0.2939
15019TIP3    H166472   1.818   1.929  15.377 -1.5671 -0.9529  1.6599
15019TIP3    H266473   1.729   2.016  15.290  0.7536 -0.6296 -0.4977
15020TIP3   OH266474   3.431   0.070  15.190  0.2369 -0.0452  0.1602
15020TIP3    H166475   3.400   0.149  15.234  0.5308  0.2045 -0.0785
15020TIP3    H266476   3.505   0.099  15.137  0.2845 -0.4627 -0.0075
15021TIP3   OH266477   1.907   2.439   5.218 -0.9054 -0.2117  0.0421
15021TIP3    H166478   1.994   2.419   5.252  0.3867 -0.7500 -3.2240
15021TIP3    H266479   1.859   2.357   5.225 -0.0976 -0.7895 -0.9191
15022TIP3   OH266480   6.527   4.554  15.438  0.3243  0.0171 -0.9894
15022TIP3    H166481   6.485   4.509  15.365  0.3239 -0.6785 -0.5649
15022TIP3    H266482   6.462   4.619  15.466 -0.7405 -1.4298  0.0319
15023TIP3   OH266483   5.658   3.177  13.913  0.1134  0.7639 -0.0791
15023TIP3    H166484   5.630   3.104  13.968  1.0769 -0.3517 -1.0094
15023TIP3    H266485   5.578   3.225  13.893 -0.8452 -1.1574 -1.0402
15024TIP3   OH266486   0.297   4.442  16.925 -0.0975  0.1221  0.3495
15024TIP3    H166487   0.317   4.536  16.916 -3.0796  0.8136 -0.4282
15024TIP3    H266488   0.365   4.408  16.983  0.8246  2.8665  1.0478
15025TIP3   OH266489   0.791   2.876  15.033  0.0500 -0.1136 -0.5712
15025TIP3    H166490   0.768   2.788  15.064 -0.4469 -0.2629 -1.3456
15025TIP3    H266491   0.752   2.882  14.946  1.6632  0.1844 -1.3244
15026TIP3   OH266492   0.850   3.130   4.064  0.0343 -0.2497 -0.1627
15026TIP3    H166493   0.837   3.107   4.156  0.8808 -1.2422 -0.2775
15026TIP3    H266494   0.762   3.131   4.027 -0.2784 -0.2379  0.5598
15027TIP3   OH266495   3.013   2.364  15.227  0.4745 -0.7006 -0.4208
15027TIP3    H166496   3.090   2.318  15.193  0.4495 -1.2238  0.1976
15027TIP3    H266497   2.999   2.437  15.167  2.0434 -0.0075  0.0130
15028TIP3   OH266498   4.733   3.189   5.655  0.3029  0.3173  0.4399
15028TIP3    H166499   4.643   3.211   5.633  0.1234  1.1801  1.8766
15028TIP3    H266500   4.779   3.273   5.653  0.7292  0.1094  1.1967
15029TIP3   OH266501   1.358   6.307   2.051 -0.7918 -0.0704 -0.4413
15029TIP3    H166502   1.271   6.345   2.060 -1.6765 -2.1896  0.6488
15029TIP3    H266503   1.343   6.213   2.041  1.2537 -0.2038 -3.6922
15030TIP3   OH266504   0.075   6.062   4.479 -0.0562 -0.9151  0.3760
15030TIP3    H166505   0.109   6.117   4.550 -0.2414  0.8537 -0.8397
15030TIP3    H266506  -0.017   6.085   4.472  0.2164 -0.1094 -1.1986
15031TIP3   OH266507   4.059   0.415   2.963  0.2353 -0.3042 -0.4489
15031TIP3    H166508   4.098   0.331   2.938 -0.3129 -0.1722 -1.8721
15031TIP3    H266509   4.099   0.479   2.903  0.7284  0.4875  0.6822
15032TIP3   OH266510   0.118   0.444  16.082  0.1386 -0.4552  0.2912
15032TIP3    H166511   0.049   0.383  16.057  0.6230 -0.3358 -1.4867
15032TIP3    H266512   0.196   0.410  16.037  0.3804  1.5531 -0.8880
15033TIP3   OH266513   0.357   1.101   1.348  0.1884 -0.4193 -0.4217
15033TIP3    H166514   0.261   1.092   1.347 -0.2852  2.1539  2.6764
15033TIP3    H266515   0.384   1.058   1.430  1.6398 -0.6928 -1.0192
15034TIP3   OH266516   5.724   0.713  16.025 -0.2837  0.7766 -0.3256
15034TIP3    H166517   5.778   0.704  15.946  0.1137 -0.2096  0.0447
15034TIP3    H266518   5.640   0.674  16.001 -1.1059  2.8405 -1.1001
15035TIP3   OH266519   2.872   1.884  14.719  0.3799 -0.0710  0.3078
15035TIP3    H166520   2.876   1.814  14.784  1.9776 -1.3550 -1.0783
15035TIP3    H266521   2.963   1.903  14.698 -0.0590  1.5584 -0.3052
15036TIP3   OH266522   5.074   5.545  13.333  0.2815  0.2356  0.2936
15036TIP3    H166523   4.989   5.511  13.303  0.4511  1.4466 -1.7615
15036TIP3    H266524   5.066   5.548  13.428 -1.5978 -0.6363  0.2144
15037TIP3   OH266525   2.779   4.555   3.324 -0.0865 -0.4305 -0.6474
15037TIP3    H166526   2.702   4.506   3.352 -0.6217  1.3877  1.2879
15037TIP3    H266527   2.837   4.489   3.286 -1.4073 -2.3013  0.4319
15038TIP3   OH266528   5.821   2.571   4.341 -0.3396  0.0232  0.1049
15038TIP3    H166529   5.823   2.477   4.325 -1.0432  0.2130 -1.2479
15038TIP3    H266530   5.912   2.596   4.354 -0.0389 -0.6663 -0.6378
15039TIP3   OH266531   1.921   5.222   1.784  0.5688 -0.6485 -0.2785
15039TIP3    H166532   1.945   5.215   1.877  0.1984 -0.1308 -0.1368
15039TIP3    H266533   1.966   5.301   1.754  0.1082 -0.4041 -0.3443
15040TIP3   OH266534   2.526   1.327   2.766  0.1888  0.6081 -0.1077
15040TIP3    H166535   2.551   1.236   2.749 -2.1234  0.1189 -1.3978
15040TIP3    H266536   2.564   1.347   2.851  1.3354 -1.3243 -0.1046
15041TIP3   OH266537   6.312   1.970  16.603 -0.3753  0.0218  0.0444
15041TIP3    H166538   6.378   1.948  16.669  0.0174 -1.2460 -0.7458
15041TIP3    H266539   6.228   1.959  16.648 -0.2217 -3.3238 -0.3035
15042TIP3   OH266540   3.382   6.308  16.272 -0.7636 -0.1197  0.0956
15042TIP3    H166541   3.467   6.347  16.253 -1.5696  1.2331 -0.9190
15042TIP3    H266542   3.320   6.381  16.264 -2.3947 -1.6295 -2.2423
15043TIP3   OH266543   5.053   5.181  16.305 -0.3521 -0.1968  0.4001
15043TIP3    H166544   5.084   5.206  16.392 -1.3105 -2.0031  1.3194
15043TIP3    H266545   4.994   5.251  16.280  0.3834  0.6359  0.9522
15044TIP3   OH266546   4.075   5.733  14.550 -0.4392  0.4374  0.5990
15044TIP3    H166547   4.104   5.803  14.609  2.0207  1.5361 -1.7176
15044TIP3    H266548   4.143   5.728  14.483 -0.6476 -4.0052  0.4320
15045TIP3   OH266549   1.262   3.492   2.816 -0.5279 -0.5861  0.1424
15045TIP3    H166550   1.357   3.498   2.808 -0.6332  1.1439 -0.1564
15045TIP3    H266551   1.245   3.512   2.908 -0.6503 -0.2355  0.0425
15046TIP3   OH266552   4.518   5.020   3.690 -0.4759 -0.2908  0.1757
15046TIP3    H166553   4.602   4.978   3.671  0.4180  0.4815  2.0826
15046TIP3    H266554   4.538   5.081   3.761 -3.0544 -1.7264  2.3267
15047TIP3   OH266555   2.937   1.668  14.138 -0.5136 -0.3561 -0.3349
15047TIP3    H166556   2.864   1.628  14.186  0.2652 -3.1913 -1.3315
15047TIP3    H266557   3.001   1.689  14.206 -0.7867 -1.2274  0.2165
15048TIP3   OH266558   4.828   2.950   6.127  0.4407 -0.7140  0.0490
15048TIP3    H166559   4.793   2.870   6.164  1.1828 -1.8097 -1.4945
15048TIP3    H266560   4.810   3.018   6.192 -1.3854 -1.8735  0.7995
15049TIP3   OH266561   1.782   3.369  11.630 -0.2420  0.8074  0.1964
15049TIP3    H166562   1.767   3.377  11.536 -0.7272 -0.2028  0.1760
15049TIP3    H266563   1.703   3.404  11.670 -0.1816  0.9134  0.2249
15050TIP3   OH266564   1.458   5.844  15.627 -0.6033 -0.3172 -0.3486
15050TIP3    H166565   1.427   5.904  15.694  0.7363 -0.1831  0.1771
15050TIP3    H266566   1.514   5.782  15.674  2.3911  1.2193 -1.6190
15051TIP3   OH266567   3.215   1.393  15.373 -0.0955 -0.2012  0.0302
15051TIP3    H166568   3.228   1.467  15.432  1.3142 -0.2339 -0.2028
15051TIP3    H266569   3.187   1.433  15.290  1.8028  0.2250 -0.4591
15052TIP3   OH266570   1.992   5.995  11.574 -0.6383 -0.1050 -0.2974
15052TIP3    H166571   1.929   6.061  11.545  0.2339  0.6671 -0.4717
15052TIP3    H266572   2.000   5.936  11.499  1.5587  1.8455 -1.7476
15053TIP3   OH266573   2.009   1.287   3.121 -0.4187  0.2747 -0.4730
15053TIP3    H166574   2.049   1.353   3.064  1.9812 -0.7254 -0.0416
15053TIP3    H266575   2.019   1.205   3.073  1.2383 -0.5150  1.0948
15054TIP3   OH266576   2.796   6.612   5.812 -0.0785  0.1848 -0.8113
15054TIP3    H166577   2.834   6.697   5.835 -1.5650  0.8079 -0.5457
15054TIP3    H266578   2.717   6.633   5.763 -1.2365 -1.0045  0.4572
15055TIP3   OH266579   2.565   4.202   5.061  0.0261  0.2070 -0.0391
15055TIP3    H166580   2.612   4.128   5.023 -0.3988 -0.2594  0.3235
15055TIP3    H266581   2.631   4.271   5.070  0.9887 -0.8645  1.6923
15056TIP3   OH266582   3.640   3.323   3.657  0.5209 -0.3903 -0.1001
15056TIP3    H166583   3.598   3.298   3.739  0.5565  0.3561  0.1569
15056TIP3    H266584   3.571   3.364   3.605  0.7497  0.1779  0.0298
15057TIP3   OH266585   1.308   0.546  16.859  0.3334  0.0730 -0.0862
15057TIP3    H166586   1.217   0.537  16.889 -0.8938 -2.6989 -3.8519
15057TIP3    H266587   1.303   0.610  16.788  1.5166  0.4490  0.1563
15058TIP3   OH266588   1.367   4.254  15.051  0.5454 -0.3485 -0.4153
15058TIP3    H166589   1.333   4.315  14.986  0.5481  1.1110  0.8836
15058TIP3    H266590   1.462   4.256  15.040  0.6311  0.7813  0.3353
15059TIP3   OH266591   6.301   0.881   5.382  0.2395 -0.7079 -0.0558
15059TIP3    H166592   6.209   0.866   5.403  0.1785  0.8676  0.9898
15059TIP3    H266593   6.344   0.888   5.467  0.7987  1.3817 -0.4508
15060TIP3   OH266594   6.797   2.017   3.650 -0.4261  0.0659  0.0914
15060TIP3    H166595   6.706   2.013   3.678  0.1461  0.6796  2.1677
15060TIP3    H266596   6.847   1.983   3.724  1.0114 -0.7940 -1.2240
15061TIP3   OH266597   6.771   5.752   4.691 -0.5339  0.1740 -0.5547
15061TIP3    H166598   6.805   5.812   4.757  0.2563 -1.7378  0.8413
15061TIP3    H266599   6.849   5.709   4.655 -0.9828  0.8042 -2.4326
15062TIP3   OH266600   5.544   0.164   4.820  0.2653 -0.5143  0.1224
15062TIP3    H166601   5.565   0.214   4.899 -0.9274  1.8332 -0.9426
15062TIP3    H266602   5.609   0.194   4.756 -1.7672  1.4314 -1.1527
15063TIP3   OH266603   2.018   5.716   3.350 -0.1845 -1.4061  0.1099
15063TIP3    H166604   2.054   5.797   3.314 -2.2984 -0.1906  0.5678
15063TIP3    H266605   2.095   5.667   3.379  1.1334  0.8353  0.6729
15064TIP3   OH266606   1.635   1.113   1.249 -0.2984  0.3104 -0.4989
15064TIP3    H166607   1.658   1.182   1.187 -0.3283 -0.1796 -1.0572
15064TIP3    H266608   1.677   1.140   1.331 -0.0501  0.8299 -0.7932
15065TIP3   OH266609   5.503   6.740   1.672  0.3231  0.1013 -0.0473
15065TIP3    H166610   5.587   6.772   1.639 -1.0695  1.6408 -2.3170
15065TIP3    H266611   5.475   6.806   1.735  1.4917 -1.2648  2.0597
15066TIP3   OH266612   2.332   5.325   3.739 -0.0855  0.1265 -0.5897
15066TIP3    H166613   2.342   5.231   3.750  0.8692  0.2146 -0.5612
15066TIP3    H266614   2.283   5.354   3.816 -0.8059 -0.4004 -0.8404
15067TIP3   OH266615   4.760   3.396   2.029  0.2033 -0.1719  0.5847
15067TIP3    H166616   4.701   3.447   1.974  0.9765  0.5279  0.3837
15067TIP3    H266617   4.741   3.305   2.007  0.4318  0.0935 -0.7791
15068TIP3   OH266618   4.890   0.311  13.479 -0.2156  0.8504 -0.0001
15068TIP3    H166619   4.813   0.270  13.517  0.6793 -1.6732 -0.6843
15068TIP3    H266620   4.902   0.393  13.528 -2.4436  0.5958  1.0625
15069TIP3   OH266621   1.522   3.493   5.393 -0.1260 -0.5199 -0.0857
15069TIP3    H166622   1.516   3.504   5.488  2.9921 -0.7438  0.2413
15069TIP3    H266623   1.615   3.506   5.374 -0.8139  0.4706 -3.2600
15070TIP3   OH266624   5.884   6.347  15.895  0.8311 -0.6301  0.1096
15070TIP3    H166625   5.968   6.304  15.878  1.5468  0.5525  0.5127
15070TIP3    H266626   5.897   6.393  15.978 -0.0066  0.0956 -0.1387
15071TIP3   OH266627   2.408   4.804   5.368  0.0265 -0.3310 -0.6147
15071TIP3    H166628   2.444   4.753   5.295 -1.1135  0.2593 -1.6226
15071TIP3    H266629   2.316   4.778   5.373  0.2271 -0.8350  1.0655
15072TIP3   OH266630   4.313   6.451  11.767  0.0941 -0.1953  0.2902
15072TIP3    H166631   4.335   6.544  11.776  0.4790 -0.0936 -1.3354
15072TIP3    H266632   4.225   6.452  11.728 -0.3646 -0.5374  1.2964
15073TIP3   OH266633   2.162   1.314   5.482  0.2753 -0.1920  0.6439
15073TIP3    H166634   2.087   1.257   5.462  1.1511 -0.7949 -1.0860
15073TIP3    H266635   2.127   1.379   5.543 -2.1318  0.5958 -1.4188
15074TIP3   OH266636   3.855   5.867  13.506 -0.4610 -0.3591  0.0716
15074TIP3    H166637   3.867   5.890  13.598 -1.3138 -0.2368  0.1577
15074TIP3    H266638   3.833   5.773  13.508 -0.1267 -0.4390 -0.0335
15075TIP3   OH266639   4.184   0.979  16.359 -0.4237  0.4932  0.4328
15075TIP3    H166640   4.113   1.033  16.323 -0.7818  0.1559  0.6205
15075TIP3    H266641   4.264   1.023  16.332 -0.6903  0.4750 -0.4249
15076TIP3   OH266642   3.380   5.253   3.080  0.5902  0.1576 -0.2902
15076TIP3    H166643   3.432   5.264   3.000 -0.5408  0.4775 -1.0134
15076TIP3    H266644   3.351   5.342   3.101 -1.1274 -0.2114 -0.9485
15077TIP3   OH266645   2.777   2.861   3.226  0.3865  0.2296 -0.2493
15077TIP3    H166646   2.801   2.782   3.176 -0.4274 -0.5600  0.5565
15077TIP3    H266647   2.685   2.876   3.203  0.3093  0.4719  0.2174
15078TIP3   OH266648   3.973   4.191  11.656  0.2295 -0.6444  0.1671
15078TIP3    H166649   4.038   4.259  11.673 -0.0139 -0.2105 -0.5694
15078TIP3    H266650   3.889   4.237  11.655 -0.1467 -1.2498  1.4339
15079TIP3   OH266651   5.441   2.547   1.867  0.2119  0.0188  0.1602
15079TIP3    H166652   5.472   2.589   1.786  0.8607 -0.4843  0.1403
15079TIP3    H266653   5.481   2.460   1.865 -2.8178 -1.5006 -0.8999
15080TIP3   OH266654   5.729   4.570   0.673 -0.3434 -0.1721  0.5059
15080TIP3    H166655   5.696   4.481   0.667  1.3961 -0.7952 -0.6096
15080TIP3    H266656   5.738   4.598   0.582 -1.9338  1.5997  0.8349
15081TIP3   OH266657   2.343   3.541  13.042  0.0453  0.2098  0.4864
15081TIP3    H166658   2.335   3.448  13.021 -0.2959 -0.0051  1.5209
15081TIP3    H266659   2.253   3.575  13.037  0.0365  0.2737  1.0387
15082TIP3   OH266660   2.559   4.927   1.561  0.3894  0.1051  0.6979
15082TIP3    H166661   2.637   4.892   1.519  0.8372  0.8220  0.9260
15082TIP3    H266662   2.580   5.018   1.580 -1.0560  0.7827 -0.6780
15083TIP3   OH266663   6.380   3.098   1.545 -0.2805  0.4900  0.0889
15083TIP3    H166664   6.384   3.009   1.579 -1.8500  0.7514  1.1111
15083TIP3    H266665   6.331   3.091   1.463  2.1300  0.0770 -1.4254
15084TIP3   OH266666   1.442   2.861  13.411 -0.4813 -0.4556 -0.7295
15084TIP3    H166667   1.370   2.822  13.460 -0.9757  0.9623 -0.2740
15084TIP3    H266668   1.410   2.866  13.321 -0.8576 -0.0621 -0.5752
15085TIP3   OH266669   2.986   5.054   0.359 -0.1739 -0.5317  0.4874
15085TIP3    H166670   2.917   5.101   0.407 -1.2683 -0.0724 -1.4297
15085TIP3    H266671   2.969   5.073   0.267  3.8004  1.3875 -0.0620
15086TIP3   OH266672   1.945   0.723  14.182 -0.4498  0.4258 -0.3167
15086TIP3    H166673   1.877   0.731  14.115 -0.4275  1.3665 -0.2491
15086TIP3    H266674   1.997   0.803  14.173 -1.6613  1.6016  2.1069
15087TIP3   OH266675   5.005   4.040  14.796 -0.4114  0.2977  0.0430
15087TIP3    H166676   4.914   4.011  14.795 -0.1371 -0.5869  0.2518
15087TIP3    H266677   5.049   3.978  14.853  0.2059  1.0967  0.4520
15088TIP3   OH266678   5.687   5.510  14.862  0.1153 -0.0987 -0.3786
15088TIP3    H166679   5.658   5.546  14.946  1.3031 -0.8726  0.3926
15088TIP3    H266680   5.632   5.433  14.849  0.4095 -0.3884  0.0572
15089TIP3   OH266681   4.407   0.038  13.041 -0.3141 -0.4197  0.1860
15089TIP3    H166682   4.339   0.105  13.030  0.8604  0.8281  0.2606
15089TIP3    H266683   4.445   0.028  12.954  1.8688  1.6664  0.7857
15090TIP3   OH266684   6.513   5.580   2.680 -0.1431  0.0549  0.6993
15090TIP3    H166685   6.590   5.523   2.677  0.1911  0.5427 -1.1800
15090TIP3    H266686   6.440   5.522   2.659  0.0157  0.0110  0.2392
15091TIP3   OH266687   3.853   5.821   0.207  0.2105  0.1248  0.1889
15091TIP3    H166688   3.845   5.743   0.261  1.2032  0.5704  1.0191
15091TIP3    H266689   3.783   5.879   0.237  0.5033  0.2056  0.7274
15092TIP3   OH266690   1.207   6.463  12.192  0.1489  0.3383  0.0392
15092TIP3    H166691   1.270   6.393  12.205 -1.8975 -1.3311  1.6431
15092TIP3    H266692   1.217   6.488  12.100  1.3843 -1.6255 -0.4014
15093TIP3   OH266693   0.082   2.731  12.069 -0.1894 -0.1872 -0.0438
15093TIP3    H166694   0.023   2.783  12.124  0.8420  1.4958 -0.4617
15093TIP3    H266695   0.072   2.769  11.981  0.9776 -0.3342 -0.2528
15094TIP3   OH266696   0.960   1.870  10.913  0.6392  0.2941 -0.1274
15094TIP3    H166697   0.981   1.807  10.981 -1.1407  1.5715  1.7369
15094TIP3    H266698   0.954   1.818  10.833  4.3613 -1.0183  0.2549
15095TIP3   OH266699   4.098   2.344  12.601  0.3239 -0.0056 -0.0094
15095TIP3    H166700   4.061   2.312  12.519  1.3305  1.1234 -0.9550
15095TIP3    H266701   4.035   2.318  12.668  0.6445 -3.1366 -0.7638
15096TIP3   OH266702   6.510   6.468   2.193 -0.2953 -0.1509 -0.4603
15096TIP3    H166703   6.423   6.505   2.181 -1.0740 -1.2243  1.4892
15096TIP3    H266704   6.557   6.534   2.244 -0.1194  0.2063 -1.0772
15097TIP3   OH266705   0.744   3.589   4.698  0.2939 -0.0628  0.0153
15097TIP3    H166706   0.757   3.505   4.655  0.5815 -0.4805  0.8853
15097TIP3    H266707   0.672   3.630   4.650  0.8672 -0.3201 -1.1058
15098TIP3   OH266708   4.695   2.363   4.612  0.1238 -0.1442 -0.0042
15098TIP3    H166709   4.687   2.280   4.660 -2.5605  0.3261  0.5158
15098TIP3    H266710   4.738   2.422   4.674 -0.3258 -0.4479  0.6074
15099TIP3   OH266711   2.334   5.058  14.874  0.2871 -0.1417  0.1929
15099TIP3    H166712   2.305   5.030  14.788 -1.9347 -0.0889  0.8796
15099TIP3    H266713   2.430   5.060  14.867  0.1653 -0.0705 -2.2613
15100TIP3   OH266714   5.456   4.912  11.673  0.4228  0.1808 -0.4559
15100TIP3    H166715   5.446   4.848  11.743 -0.7771  0.4237 -0.3819
15100TIP3    H266716   5.484   4.861  11.597 -0.8637 -0.5035 -0.4917
15101TIP3   OH266717   0.429   2.985   5.727  0.4012 -0.0920  0.3766
15101TIP3    H166718   0.417   3.008   5.819 -1.8807  0.4178  0.0136
15101TIP3    H266719   0.356   3.027   5.682  1.9890  0.4792 -1.8461
15102TIP3   OH266720   4.889   5.987   2.699  0.3238  0.4061  0.2764
15102TIP3    H166721   4.977   5.949   2.698  1.6499  3.2146  1.3344
15102TIP3    H266722   4.846   5.950   2.621  2.3894 -1.0819 -0.2321
15103TIP3   OH266723   3.983   2.755  13.379 -0.3609  0.1166  0.5499
15103TIP3    H166724   3.945   2.841  13.397  0.0879  0.0169  2.1054
15103TIP3    H266725   4.077   2.773  13.368 -0.3570 -0.0984  0.2028
15104TIP3   OH266726   2.786   2.535  13.700 -0.0538 -0.5511 -0.0082
15104TIP3    H166727   2.691   2.526  13.714  0.2378 -2.7503  1.1534
15104TIP3    H266728   2.798   2.518  13.607 -0.7859 -0.4566 -0.1269
15105TIP3   OH266729   1.260   0.567   4.666  0.2776 -0.4487  0.0590
15105TIP3    H166730   1.266   0.474   4.645 -1.5666 -0.3087 -1.3362
15105TIP3    H266731   1.210   0.605   4.594 -0.5031  1.3246  1.4535
15106TIP3   OH266732   2.407   3.444  14.868  0.3640 -0.3476 -0.3875
15106TIP3    H166733   2.392   3.351  14.849  2.7665 -1.0843  0.9502
15106TIP3    H266734   2.484   3.467  14.818 -1.0492  1.4385 -1.8917
15107TIP3   OH266735   3.266   1.777  11.666 -0.3751 -0.0240  0.5443
15107TIP3    H166736   3.285   1.705  11.725 -1.5309 -1.4251 -0.7120
15107TIP3    H266737   3.293   1.745  11.580  1.3745  1.9907  0.2355
15108TIP3   OH266738   0.089   3.601  16.254 -0.0036  0.4206 -0.2470
15108TIP3    H166739   0.014   3.636  16.205 -0.2656  1.1986  0.6787
15108TIP3    H266740   0.065   3.613  16.346  1.9085  2.1801  0.0974
15109TIP3   OH266741   2.907   2.999  11.578 -0.3413 -0.1748 -0.6584
15109TIP3    H166742   2.816   3.005  11.548 -0.4950 -2.3754 -0.7407
15109TIP3    H266743   2.932   2.908  11.562  0.7177 -0.5874  2.6775
15110TIP3   OH266744   1.256   3.131  12.894 -0.6756 -0.1511  0.0796
15110TIP3    H166745   1.297   3.211  12.863 -1.7499  0.0067 -1.0040
15110TIP3    H266746   1.326   3.066  12.892 -0.4439  0.0958 -1.7621
15111TIP3   OH266747   4.900   4.249  12.566  0.2099 -0.4829  0.1640
15111TIP3    H166748   4.834   4.275  12.630  0.0097  1.6886 -0.8074
15111TIP3    H266749   4.850   4.235  12.485  0.3106 -4.2365  0.5993
15112TIP3   OH266750   4.830   1.347  12.064 -0.0523 -0.6123 -0.7065
15112TIP3    H166751   4.814   1.312  12.151  2.8636 -1.3167 -0.3370
15112TIP3    H266752   4.800   1.438  12.069 -2.0747 -1.2681  0.2369
15113TIP3   OH266753   5.795   6.208   4.877  0.5210 -0.0372  0.5971
15113TIP3    H166754   5.717   6.262   4.877  0.4643 -0.0974 -0.5531
15113TIP3    H266755   5.862   6.262   4.835  0.2691 -1.0795 -1.2534
15114TIP3   OH266756   6.294   5.522   2.355 -0.1485 -0.4241 -0.8663
15114TIP3    H166757   6.318   5.614   2.360 -1.5605 -0.1044  1.6641
15114TIP3    H266758   6.322   5.484   2.438 -0.7124 -1.9801 -1.3332
15115TIP3   OH266759   2.648   1.963  16.214  0.4866 -0.3884  0.3128
15115TIP3    H166760   2.724   1.905  16.223  0.6896 -0.1640  0.0251
15115TIP3    H266761   2.576   1.913  16.254  0.6110 -0.9424 -0.1358
15116TIP3   OH266762   6.188   4.820  17.061 -0.0983  0.0929 -0.6885
15116TIP3    H166763   6.203   4.859  17.147  1.2488  2.1103 -1.7623
15116TIP3    H266764   6.209   4.727  17.073  0.3340  0.3700  1.0611
15117TIP3   OH266765   2.878   3.734  15.430  0.1558  0.3010 -0.4351
15117TIP3    H166766   2.913   3.746  15.341  1.1404  0.7751 -0.0016
15117TIP3    H266767   2.886   3.821  15.470 -0.0985  0.0411  0.1791
15118TIP3   OH266768   1.764   3.468  12.601 -0.1588  0.0146 -0.3498
15118TIP3    H166769   1.760   3.493  12.693 -0.2396 -2.4166  0.3927
15118TIP3    H266770   1.856   3.450  12.585 -0.3397 -1.0561 -0.2667
15119TIP3   OH266771   6.354   4.586  11.086  0.2630 -0.0310 -0.1384
15119TIP3    H166772   6.434   4.557  11.043  0.9700 -0.7491  1.5777
15119TIP3    H266773   6.373   4.676  11.113 -0.5418  0.7840 -2.0973
15120TIP3   OH266774   3.535   6.281  12.538 -0.0685  0.7615 -0.0227
15120TIP3    H166775   3.472   6.268  12.467 -1.2006 -1.0684  1.2294
15120TIP3    H266776   3.511   6.365  12.576 -2.4962 -0.2891  1.0285
15121TIP3   OH266777   2.264   0.968  13.569  0.0946  0.5279  1.0291
15121TIP3    H166778   2.252   1.034  13.637  2.4060  1.9844  0.1167
15121TIP3    H266779   2.334   0.911  13.602 -0.9747 -0.7309  1.2249
15122TIP3   OH266780   6.255   3.757  14.935 -0.3072 -0.0371  0.1489
15122TIP3    H166781   6.166   3.722  14.924  0.3737 -1.6718 -0.4347
15122TIP3    H266782   6.268   3.813  14.858 -1.3006  1.3475  0.9382
15123TIP3   OH266783   5.627   6.639   2.562 -0.4877  0.0463 -0.2211
15123TIP3    H166784   5.693   6.686   2.613  2.5108 -1.4023 -2.4532
15123TIP3    H266785   5.603   6.700   2.492  0.0279 -0.1075 -0.5406
15124TIP3   OH266786   3.662   0.950   3.382 -0.1766  0.5398  0.5151
15124TIP3    H166787   3.639   0.859   3.364  1.1542  0.2477  0.2164
15124TIP3    H266788   3.578   0.997   3.379 -0.8665 -0.6462  0.5858
15125TIP3   OH266789   3.543   4.102   1.161 -0.2557  1.0428 -0.1573
15125TIP3    H166790   3.540   4.155   1.241 -2.4476 -1.4441  1.5661
15125TIP3    H266791   3.456   4.112   1.122 -1.2737 -2.2304  0.9980
15126TIP3   OH266792   3.675   4.167  11.708  0.0085  0.5527  0.0200
15126TIP3    H166793   3.651   4.222  11.783 -3.1056  0.5204 -0.7903
15126TIP3    H266794   3.638   4.081  11.728  0.5588  0.0943 -0.8526
15127TIP3   OH266795   1.294   0.357  14.960  0.2547 -0.4432 -0.0246
15127TIP3    H166796   1.289   0.308  14.878 -0.4135 -1.7560  0.7551
15127TIP3    H266797   1.384   0.390  14.963  0.6214 -1.3393 -0.7536
15128TIP3   OH266798   1.940   1.486   4.882 -0.0396  0.5033  0.8596
15128TIP3    H166799   2.025   1.465   4.844 -0.7506 -4.2729  1.2012
15128TIP3    H266800   1.877   1.466   4.812 -0.9814 -0.1162  1.8501
15129TIP3   OH266801   4.745   4.256   1.155 -0.0501  0.2545  0.2690
15129TIP3    H166802   4.817   4.204   1.191 -1.9943 -1.9464  1.2280
15129TIP3    H266803   4.671   4.238   1.212 -1.8336  1.0728 -1.6544
15130TIP3   OH266804   0.872   5.601  13.811  0.4427  0.0415 -0.0847
15130TIP3    H166805   0.777   5.607  13.802  0.6152  0.7312 -1.7339
15130TIP3    H266806   0.886   5.580  13.904 -1.3565 -1.4380 -0.0864
15131TIP3   OH266807   4.758   3.160   5.952 -0.2539  0.1782 -0.4681
15131TIP3    H166808   4.811   3.101   6.006  0.2663  0.6353 -0.4705
15131TIP3    H266809   4.780   3.138   5.862 -1.1904 -0.6475 -0.5145
15132TIP3   OH266810   0.055   2.463   1.121  0.2138  0.2728 -0.1930
15132TIP3    H166811   0.096   2.460   1.034  1.2520  0.4298  0.2729
15132TIP3    H266812   0.032   2.555   1.134  2.2632  0.7404  0.6438
15133TIP3   OH266813   0.121   6.596  14.585 -0.3740 -0.2554  0.3529
15133TIP3    H166814   0.133   6.605  14.680  0.5941 -0.6922  0.2878
15133TIP3    H266815   0.176   6.664  14.547 -0.7573 -0.0851  0.1023
15134TIP3   OH266816   4.664   3.411   6.181  0.0632  0.8015  0.1617
15134TIP3    H166817   4.745   3.414   6.232 -1.1185  1.9349  2.1266
15134TIP3    H266818   4.626   3.326   6.202 -0.0070  0.9193  0.5299
15135TIP3   OH266819   1.783   0.120   4.022  0.3291  0.0148  0.5165
15135TIP3    H166820   1.746   0.148   4.106  0.6512 -0.0416  0.6795
15135TIP3    H266821   1.878   0.129   4.034  0.3153  2.5049 -0.6999
15136TIP3   OH266822   0.335   2.307   4.783  0.2267  0.2121  0.1322
15136TIP3    H166823   0.419   2.353   4.778  0.3189  0.1943  1.3268
15136TIP3    H266824   0.293   2.342   4.861 -1.2316  0.7663 -0.8746
15137TIP3   OH266825   3.243   6.258   0.060  0.4383 -0.6406 -0.5172
15137TIP3    H166826   3.160   6.295   0.089  0.0648 -1.1867 -0.8740
15137TIP3    H266827   3.289   6.330   0.018 -1.0753 -0.9899 -2.9464
15138TIP3   OH266828   1.035   0.609  16.860  0.4527 -0.2130  0.2051
15138TIP3    H166829   0.951   0.563  16.862  0.1404  0.3760  0.6532
15138TIP3    H266830   1.029   0.667  16.785  0.7738 -0.7450 -0.2437
15139TIP3   OH266831   3.484   2.972   4.774  0.0212  0.2793 -0.1985
15139TIP3    H166832   3.413   2.993   4.834  0.1406  0.5416 -0.1511
15139TIP3    H266833   3.493   2.877   4.782 -2.4339 -0.2658 -2.5367
15140TIP3   OH266834   6.011   2.898   0.267 -0.2510  0.3589  0.0169
15140TIP3    H166835   5.947   2.891   0.195  0.6520 -2.0470 -0.6425
15140TIP3    H266836   6.008   2.813   0.310  1.5807  0.6524  0.8007
15141TIP3   OH266837   5.226   3.533  14.794 -0.3291 -0.2366 -0.2358
15141TIP3    H166838   5.309   3.504  14.833 -0.6954 -1.8940 -0.5859
15141TIP3    H266839   5.177   3.571  14.866  0.8848  1.1478 -0.1057
15142TIP3   OH266840   3.258   6.466  15.332  0.1346  0.0412  0.3830
15142TIP3    H166841   3.320   6.499  15.267  1.2128 -0.0715  1.3357
15142TIP3    H266842   3.300   6.388  15.369 -0.7249 -0.2375  0.8054
15143TIP3   OH266843   0.281   3.871  15.792 -0.2953  0.3519  0.0427
15143TIP3    H166844   0.302   3.888  15.884 -0.1900 -0.1928  0.1246
15143TIP3    H266845   0.301   3.778  15.780 -0.0549  0.4800 -0.5996
15144TIP3   OH266846   1.889   4.151  10.903  0.0094  0.5233  0.2188
15144TIP3    H166847   1.910   4.238  10.868 -0.0146 -0.4537 -2.4074
15144TIP3    H266848   1.821   4.118  10.845 -0.6781 -0.8984  1.7706
15145TIP3   OH266849   6.393   3.335  14.436  0.5773 -0.2396 -0.0255
15145TIP3    H166850   6.365   3.330  14.527 -2.3992  0.2750 -0.7816
15145TIP3    H266851   6.421   3.246  14.414  1.8326 -0.2400  1.4939
15146TIP3   OH266852   0.784   5.714  13.344 -0.1613 -0.2063 -0.1799
15146TIP3    H166853   0.848   5.728  13.414  0.2618  1.3966 -0.8383
15146TIP3    H266854   0.803   5.783  13.281 -0.6103 -1.5293 -1.8368
15147TIP3   OH266855   1.627   2.650   1.488  0.7542 -0.3159  0.2093
15147TIP3    H166856   1.597   2.662   1.578 -1.8380 -0.8708 -0.4989
15147TIP3    H266857   1.699   2.712   1.478 -1.5189  2.7551  1.4652
15148TIP3   OH266858   6.203   4.810   6.363 -0.1085 -0.4765 -0.0477
15148TIP3    H166859   6.181   4.728   6.319 -1.2737 -0.4079  0.3666
15148TIP3    H266860   6.157   4.877   6.313 -0.4692 -0.2656  0.5468
15149TIP3   OH266861   0.721   0.882   4.415 -0.0323  0.0436  0.1083
15149TIP3    H166862   0.688   0.950   4.474 -1.6642 -0.2785 -0.3947
15149TIP3    H266863   0.651   0.817   4.410  0.8833 -0.9336 -0.6192
15150TIP3   OH266864   5.435   1.690  13.971 -0.1433  0.2357  0.2815
15150TIP3    H166865   5.525   1.660  13.983 -0.4702 -0.7653  0.3787
15150TIP3    H266866   5.382   1.612  13.987 -0.8912  0.0932 -2.4234
15151TIP3   OH266867   3.209   1.826   1.979 -0.2063 -0.2766 -0.0066
15151TIP3    H166868   3.185   1.753   1.922 -0.0552 -0.8684  0.6804
15151TIP3    H266869   3.275   1.875   1.929 -1.5611  0.3946 -1.1902
15152TIP3   OH266870   4.829   0.198   0.479  0.1997 -0.2995 -0.1175
15152TIP3    H166871   4.848   0.104   0.470  0.2860 -0.1860 -1.1811
15152TIP3    H266872   4.749   0.211   0.429 -0.2360  0.0668  0.6534
15153TIP3   OH266873   4.841   1.437   5.658 -0.4049 -0.1035  0.1926
15153TIP3    H166874   4.781   1.504   5.692 -0.6975  0.6647 -1.6954
15153TIP3    H266875   4.795   1.354   5.673 -1.4652  0.3813 -0.2131
15154TIP3   OH266876   4.454   4.932  13.486  0.1935 -0.4118  0.3741
15154TIP3    H166877   4.411   5.016  13.475 -0.4802 -0.7516  0.3641
15154TIP3    H266878   4.406   4.872  13.428  1.1179 -0.6502 -0.1750
15155TIP3   OH266879   0.842   4.578   0.233  0.4585  0.3427  0.1355
15155TIP3    H166880   0.856   4.592   0.326  0.9099 -0.7937  0.2618
15155TIP3    H266881   0.929   4.584   0.194  0.4918 -0.6730  0.0230
15156TIP3   OH266882   3.844   5.125   0.809 -0.3236  0.3334 -0.6020
15156TIP3    H166883   3.806   5.113   0.896  1.5938 -2.5752 -0.0230
15156TIP3    H266884   3.901   5.202   0.819 -1.3249  0.9861  0.2424
15157TIP3   OH266885   3.635   4.433   3.623 -0.0136 -0.4637 -0.0682
15157TIP3    H166886   3.726   4.422   3.595  0.2187 -0.7110  0.7510
15157TIP3    H266887   3.628   4.526   3.643  0.1071 -0.4714  0.0158
15158TIP3   OH266888   5.363   5.507  12.037 -0.2031  0.0844 -0.1217
15158TIP3    H166889   5.346   5.465  11.953  0.9888  0.4417 -0.5736
15158TIP3    H266890   5.415   5.585  12.015 -0.8783  0.8369  0.8465
15159TIP3   OH266891   5.705   0.226   1.103 -1.2798 -1.1087 -0.3703
15159TIP3    H166892   5.713   0.306   1.053  0.9241 -1.1003 -0.1084
15159TIP3    H266893   5.747   0.159   1.049  0.6172 -1.2161  1.1049
15160TIP3   OH266894   2.321   4.148  13.793  0.5087  0.3572  0.2695
15160TIP3    H166895   2.383   4.207  13.749  1.3696  1.3986  2.7369
15160TIP3    H266896   2.240   4.157  13.743  0.4918  3.9611  0.7513
15161TIP3   OH266897   1.568   3.968  14.951  0.6126  0.2801 -0.6739
15161TIP3    H166898   1.587   4.054  14.989 -0.8748  0.3810 -0.0857
15161TIP3    H266899   1.491   3.937  14.999  1.5026 -1.6856 -0.4143
15162TIP3   OH266900   6.421   2.702   6.844 -0.4577  0.1118 -0.1706
15162TIP3    H166901   6.493   2.746   6.890  0.1376 -0.6140 -0.3995
15162TIP3    H266902   6.441   2.714   6.751 -0.7235  0.0470 -0.2365
15163TIP3   OH266903   2.539   4.602   0.449 -0.3357 -0.5229  0.1104
15163TIP3    H166904   2.542   4.698   0.445 -0.1640 -0.4194  1.9500
15163TIP3    H266905   2.630   4.574   0.440  0.0635 -0.2957  2.7711
15164TIP3   OH266906   6.464   3.726  15.184 -0.2238 -0.2967  0.0588
15164TIP3    H166907   6.413   3.806  15.196 -0.1452 -0.3196  0.5599
15164TIP3    H266908   6.548   3.744  15.226  0.1880 -0.2597 -0.7584
15165TIP3   OH266909   3.148   0.300  15.598  0.8404  0.0259 -0.1688
15165TIP3    H166910   3.192   0.359  15.660  1.4543 -1.1056  0.5024
15165TIP3    H266911   3.142   0.217  15.644  3.6798 -1.6438 -2.4623
15166TIP3   OH266912   3.057   2.644  12.785  0.2190 -0.2000  0.2563
15166TIP3    H166913   3.057   2.560  12.832 -0.3687 -0.5279 -0.3141
15166TIP3    H266914   2.973   2.684  12.809 -0.5033 -0.7746 -1.1965
15167TIP3   OH266915   2.074   5.845  16.255  0.2861 -0.6601  0.1139
15167TIP3    H166916   2.135   5.858  16.183  0.5994 -1.2928  0.2610
15167TIP3    H266917   2.119   5.882  16.331  0.5872 -1.3350  0.2659
15168TIP3   OH266918   4.933   6.326  12.102  0.4019  0.0128  0.7651
15168TIP3    H166919   5.014   6.322  12.154  1.1884  2.4549 -0.0837
15168TIP3    H266920   4.895   6.239  12.108  2.7852 -1.0366  1.7259
15169TIP3   OH266921   4.540   0.172   5.561 -0.1274  0.1603 -0.0074
15169TIP3    H166922   4.541   0.139   5.471  0.2491 -0.1909  0.1259
15169TIP3    H266923   4.608   0.240   5.562  0.4132 -0.3770  0.2136
15170TIP3   OH266924   0.563   1.036   0.242 -0.0629 -0.2962  0.1423
15170TIP3    H166925   0.549   0.978   0.168  0.1433  1.2463 -1.1764
15170TIP3    H266926   0.602   1.115   0.203  1.0833  0.1399  2.0478
15171TIP3   OH266927   1.992   2.406   2.482  0.2084  0.0046 -0.3667
15171TIP3    H166928   2.068   2.353   2.460  0.7656 -0.2328  1.8539
15171TIP3    H266929   2.025   2.496   2.482 -0.0559  0.1099 -1.4630
15172TIP3   OH266930   2.785   3.816   2.966  0.1474 -0.3337 -0.3228
15172TIP3    H166931   2.694   3.845   2.970  0.4639  0.5909  1.2837
15172TIP3    H266932   2.812   3.833   2.876 -1.0493  0.1000 -0.6169
15173TIP3   OH266933   3.146   2.540   3.342  0.7832 -0.3399  0.1977
15173TIP3    H166934   3.174   2.448   3.332  0.5560 -0.2338 -1.7605
15173TIP3    H266935   3.183   2.584   3.266 -1.8109  0.5204 -0.6381
15174TIP3   OH266936   4.728   1.487  14.175  0.0467  0.9089 -0.2636
15174TIP3    H166937   4.794   1.545  14.137  1.2140 -0.6893 -0.7977
15174TIP3    H266938   4.779   1.417  14.216 -1.3068  0.3177  0.4859
15175TIP3   OH266939   3.985   2.374   0.777 -0.4042  0.6090 -0.1210
15175TIP3    H166940   4.014   2.286   0.753  0.5363  0.5908  1.0108
15175TIP3    H266941   3.916   2.395   0.714 -0.0219 -0.5803 -0.9503
15176TIP3   OH266942   3.317   5.756   5.440  0.4718 -0.0155  0.0419
15176TIP3    H166943   3.404   5.770   5.402  0.4134 -0.7620 -0.3926
15176TIP3    H266944   3.257   5.801   5.381  0.4899 -0.2088 -0.1262
15177TIP3   OH266945   0.253   0.213   0.227 -0.4429 -0.0257 -0.3461
15177TIP3    H166946   0.344   0.219   0.199 -0.9330  1.7076 -1.7509
15177TIP3    H266947   0.210   0.161   0.159 -0.6720 -0.0563 -0.1806
15178TIP3   OH266948   2.210   2.230  12.973  0.3983 -0.3836  0.3343
15178TIP3    H166949   2.196   2.170  13.046 -0.1386 -2.1547 -1.1513
15178TIP3    H266950   2.305   2.242  12.969  0.3834  0.5202  1.8730
15179TIP3   OH266951   5.462   5.977   1.896  0.1880 -0.4229 -0.4301
15179TIP3    H166952   5.455   5.987   1.801 -0.5605 -1.4917 -0.5091
15179TIP3    H266953   5.438   5.885   1.912  0.9229 -0.4359  0.7294
15180TIP3   OH266954   1.094   4.190   2.689  0.3908  0.4324  0.2250
15180TIP3    H166955   1.017   4.146   2.725  0.6549 -0.6457 -0.4946
15180TIP3    H266956   1.169   4.144   2.728  0.7075  1.8838  1.4215
15181TIP3   OH266957   4.853   6.659   3.793  0.0921 -0.6502  0.8003
15181TIP3    H166958   4.877   6.634   3.704 -0.5359 -0.8772  0.6911
15181TIP3    H266959   4.793   6.591   3.822 -0.0775 -0.3240  1.2273
15182TIP3   OH266960   6.637   2.714   6.376  0.4834  0.2034  0.0568
15182TIP3    H166961   6.655   2.797   6.332 -0.6626  1.7106  2.2888
15182TIP3    H266962   6.724   2.678   6.395  1.0206 -0.1544 -2.6221
15183TIP3   OH266963   0.577   0.110  15.043 -0.0628 -0.0467  0.3200
15183TIP3    H166964   0.548   0.180  15.102  1.4141  0.5593  0.3781
15183TIP3    H266965   0.649   0.068  15.089 -0.6983 -1.3946  0.1170
15184TIP3   OH266966   4.093   4.339  14.877  0.2139 -0.7491 -0.2388
15184TIP3    H166967   4.169   4.356  14.822  0.2400 -1.0681 -0.3050
15184TIP3    H266968   4.018   4.341  14.817 -0.4624  3.9421  0.3897
15185TIP3   OH266969   3.920   0.583  14.221 -0.3707 -0.2050  0.3370
15185TIP3    H166970   3.826   0.601  14.212 -0.1056  1.3334  0.4106
15185TIP3    H266971   3.952   0.582  14.131 -0.5117 -1.1233  0.2891
15186TIP3   OH266972   4.108   5.725   4.441 -0.0262 -0.4419  0.7137
15186TIP3    H166973   4.167   5.719   4.516  0.6752 -0.3751  0.1755
15186TIP3    H266974   4.021   5.711   4.478  0.0419  1.8144  1.9276
15187TIP3   OH266975   4.928   3.145   1.800  0.4985  0.6138  0.2529
15187TIP3    H166976   4.857   3.178   1.745  0.6569 -0.0172 -0.3484
15187TIP3    H266977   5.003   3.200   1.778  1.4497 -1.5342 -2.5758
15188TIP3   OH266978   5.559   3.558   2.526  0.2328  0.1230  0.4055
15188TIP3    H166979   5.647   3.589   2.504  0.8518 -1.1904  0.9450
15188TIP3    H266980   5.529   3.618   2.594  0.8131  0.4227  0.4057
15189TIP3   OH266981   1.913   6.237   4.225 -0.2238  0.0896  0.1555
15189TIP3    H166982   1.841   6.186   4.263  1.0570 -0.5703  1.8463
15189TIP3    H266983   1.974   6.250   4.298  2.3705 -1.1423 -1.6511
15190TIP3   OH266984   4.091   2.140   0.670 -0.7015  0.2458 -0.4378
15190TIP3    H166985   4.161   2.120   0.732  0.0512  2.7090 -0.3682
15190TIP3    H266986   4.136   2.157   0.587 -1.2663  1.1852 -0.5652
15191TIP3   OH266987   6.209   3.236  11.644 -0.3392 -0.2465  0.1301
15191TIP3    H166988   6.140   3.170  11.632  0.3039 -0.5713 -2.2938
15191TIP3    H266989   6.200   3.294  11.568  1.4211  0.2724  0.2821
15192TIP3   OH266990   4.922   5.309   0.190  0.2041 -1.0193  1.0577
15192TIP3    H166991   4.881   5.275   0.110  1.3784 -0.8954  0.3726
15192TIP3    H266992   4.923   5.404   0.177 -0.3557 -0.9382  1.6004
15193TIP3   OH266993   0.323   3.464  11.448 -0.0705  0.2124  0.4128
15193TIP3    H166994   0.290   3.388  11.400 -2.5184  0.3288  1.7604
15193TIP3    H266995   0.405   3.434  11.487  1.1657 -0.3756 -2.4212
15194TIP3   OH266996   2.500   6.196  16.352 -0.5511 -0.1447 -0.5234
15194TIP3    H166997   2.590   6.186  16.383 -0.3272 -0.2565 -1.2084
15194TIP3    H266998   2.449   6.213  16.432 -0.0722 -1.0092 -0.0210
15195TIP3   OH266999   4.691   0.215  16.877  0.2265 -0.1510  0.4542
15195TIP3    H167000   4.677   0.128  16.838 -0.0115 -0.1207  0.4689
15195TIP3    H267001   4.765   0.203  16.937  0.5421 -0.2170  0.0556
15196TIP3   OH267002   0.478   5.004   4.215  0.9122 -0.9302  0.2121
15196TIP3    H167003   0.470   5.099   4.220  2.1075 -0.8047 -0.0187
15196TIP3    H267004   0.536   4.981   4.288  1.5108 -1.3576 -0.3941
15197TIP3   OH267005   2.679   6.616   6.436 -0.2197  0.0419 -0.3493
15197TIP3    H167006   2.613   6.580   6.496  0.1917 -1.4655 -0.7619
15197TIP3    H267007   2.628   6.661   6.369 -0.8909 -1.3686 -0.8369
15198TIP3   OH267008   1.655   0.687   6.297  0.3226  0.1925 -0.5937
15198TIP3    H167009   1.720   0.749   6.264  0.1742  0.0715 -1.1261
15198TIP3    H267010   1.705   0.615   6.334  0.4928  0.4706 -0.2716
15199TIP3   OH267011   3.874   4.581   1.491  0.1081 -0.5266  0.0258
15199TIP3    H167012   3.966   4.602   1.509 -0.1247 -0.0544  0.7198
15199TIP3    H267013   3.837   4.663   1.456  0.0824 -0.8762 -0.7746
15200TIP3   OH267014   6.508   3.503   0.285  0.6246 -0.2298 -0.1385
15200TIP3    H167015   6.542   3.575   0.337 -1.1784 -0.5002  1.5250
15200TIP3    H267016   6.567   3.430   0.302  2.0812  0.6224 -1.3263
15201TIP3   OH267017   6.291   4.853   1.413 -0.0480  0.8609  0.0257
15201TIP3    H167018   6.319   4.885   1.327 -0.3905  0.8213 -0.1035
15201TIP3    H267019   6.297   4.757   1.406 -0.6537  0.8325 -0.1591
15202TIP3   OH267020   4.554   4.011  11.408 -0.4013  0.3463  0.0288
15202TIP3    H167021   4.581   3.961  11.484  0.9159  0.3626 -0.4038
15202TIP3    H267022   4.556   3.948  11.336  1.3326  0.9867 -0.5293
15203TIP3   OH267023   0.666   0.300   0.094 -0.1393  0.1220 -0.3757
15203TIP3    H167024   0.747   0.283   0.143 -0.5162 -0.1658  0.1669
15203TIP3    H267025   0.611   0.224   0.114  0.0308 -0.4606 -1.9865
15204TIP3   OH267026   4.221   0.881  14.020  0.7597 -0.1949  0.5179
15204TIP3    H167027   4.258   0.914  13.938  1.1316 -1.3823  0.1855
15204TIP3    H267028   4.132   0.915  14.022 -0.5379 -2.9243 -2.1524
15205TIP3   OH267029   4.333   2.693   3.139  0.1297  0.2327  0.2042
15205TIP3    H167030   4.303   2.672   3.050  2.5911 -2.6360 -0.1232
15205TIP3    H267031   4.334   2.609   3.184  1.3580  1.2264  2.1518
15206TIP3   OH267032   5.339   0.216   2.464 -0.6883  0.3554  0.3100
15206TIP3    H167033   5.290   0.136   2.484 -0.9379  0.4853  0.2189
15206TIP3    H267034   5.410   0.217   2.528 -0.1024 -0.4521 -0.3056
15207TIP3   OH267035   3.607   0.991  15.292 -0.4711  0.5527  0.0193
15207TIP3    H167036   3.555   0.914  15.268  0.9086 -0.2433 -0.5054
15207TIP3    H267037   3.542   1.056  15.319 -1.8416  0.0392 -1.8351
15208TIP3   OH267038   5.718   0.586   2.564  0.1415  0.8649  0.0006
15208TIP3    H167039   5.670   0.511   2.530 -0.4352  1.6689 -1.0285
15208TIP3    H267040   5.799   0.549   2.598  0.3743 -0.1078 -1.4970
15209TIP3   OH267041   5.790   5.089   6.183 -0.1210  0.0128 -0.4992
15209TIP3    H167042   5.830   5.163   6.137 -0.2409  1.0141  0.9568
15209TIP3    H267043   5.696   5.101   6.169 -0.0723 -1.0455 -1.9740
15210TIP3   OH267044   2.662   4.459   5.085 -0.6746  0.3982  0.3151
15210TIP3    H167045   2.712   4.516   5.027  1.1188 -1.1428  0.2281
15210TIP3    H267046   2.724   4.436   5.155 -1.7516 -0.3884  1.0432
15211TIP3   OH267047   0.558   6.637  14.041 -0.3304 -0.0077 -0.1043
15211TIP3    H167048   0.553   6.575  13.968 -1.1008 -0.7167  0.5302
15211TIP3    H267049   0.625   6.600  14.099 -2.2306 -1.4748  1.3235
15212TIP3   OH267050   6.325   0.091   4.153 -0.1880  0.6048 -0.2659
15212TIP3    H167051   6.380   0.165   4.179  0.4828  0.0438 -0.0523
15212TIP3    H267052   6.369   0.054   4.077 -1.3286  1.3087 -1.3003
15213TIP3   OH267053   2.856   0.309   6.137  0.0630 -0.1486  0.0740
15213TIP3    H167054   2.887   0.312   6.046  1.4162 -2.0821  0.4266
15213TIP3    H267055   2.935   0.299   6.189 -0.8765 -2.1472  1.2326
15214TIP3   OH267056   2.751   1.309   2.971  0.7606 -0.1778  0.1061
15214TIP3    H167057   2.816   1.351   2.915 -0.4256  0.9385 -0.4702
15214TIP3    H267058   2.732   1.374   3.039 -1.6713  0.6141 -1.2429
15215TIP3   OH267059   0.390   1.988  16.610 -0.3449 -0.4451 -0.0174
15215TIP3    H167060   0.300   1.966  16.588 -0.3302  0.8272 -1.5153
15215TIP3    H267061   0.384   2.072  16.656 -0.0389 -1.1997  1.4656
15216TIP3   OH267062   4.637   6.087   5.610  0.1470 -0.5470  0.5641
15216TIP3    H167063   4.679   6.096   5.524 -1.3333 -1.3342 -0.2634
15216TIP3    H267064   4.711   6.078   5.671  1.2080 -0.9883 -0.7299
15217TIP3   OH267065   3.139   5.805  15.994  0.6881  0.1053 -0.0329
15217TIP3    H167066   3.221   5.776  15.955 -0.0525 -0.7744 -1.0118
15217TIP3    H267067   3.094   5.853  15.923  0.0370 -0.0814  0.2423
15218TIP3   OH267068   2.431   4.332   6.124 -0.0008 -0.1645 -0.8466
15218TIP3    H167069   2.462   4.305   6.210 -0.8472  1.2066 -0.0870
15218TIP3    H267070   2.505   4.315   6.066  0.9860 -0.0831  0.3383
15219TIP3   OH267071   1.370   2.366  13.128  0.1434  0.2039 -0.0282
15219TIP3    H167072   1.353   2.416  13.208  0.2372 -0.1997  0.2447
15219TIP3    H267073   1.290   2.316  13.113  0.0465  0.4385 -0.3058
15220TIP3   OH267074   3.752   4.314   4.991  0.2226  0.0880  0.4986
15220TIP3    H167075   3.785   4.365   5.065 -2.0572  0.9178  1.0340
15220TIP3    H267076   3.765   4.371   4.915  0.4006  0.2225  0.6274
15221TIP3   OH267077   0.064   2.779   0.534 -0.0513 -0.2073 -0.0397
15221TIP3    H167078   0.006   2.716   0.492 -2.8392  0.6368  2.2413
15221TIP3    H267079   0.099   2.733   0.610  1.2468 -0.2741 -0.6545
15222TIP3   OH267080   4.923   6.672  10.862  0.3076  0.2038  0.3429
15222TIP3    H167081   4.999   6.698  10.915  0.6483  1.4344 -0.6920
15222TIP3    H267082   4.944   6.704  10.774 -0.6863 -0.9113 -0.3269
15223TIP3   OH267083   4.891   2.735  16.596 -0.2370  0.0404  0.0107
15223TIP3    H167084   4.809   2.784  16.600  0.2185  0.7943  0.3320
15223TIP3    H267085   4.933   2.764  16.515 -0.5622 -0.8082 -0.4760
15224TIP3   OH267086   3.132   5.308   1.474 -0.5386 -0.4061  0.2211
15224TIP3    H167087   3.041   5.292   1.498 -1.0345  0.8543 -0.7074
15224TIP3    H267088   3.167   5.222   1.453 -1.1176 -1.0839  1.8363
15225TIP3   OH267089   2.252   2.333   4.785 -0.1493 -0.9540 -0.0290
15225TIP3    H167090   2.302   2.267   4.737  1.3527  0.4929 -0.5623
15225TIP3    H267091   2.267   2.414   4.736 -2.0015 -0.2023  0.5551
15226TIP3   OH267092   1.004   1.735  14.155  0.1990 -0.1292  0.3234
15226TIP3    H167093   0.912   1.739  14.180  0.1119  0.6488 -0.0725
15226TIP3    H267094   1.003   1.729  14.060  0.5336  2.5815  0.0580
15227TIP3   OH267095   0.934   0.600  12.285 -0.2806 -0.0201  0.0243
15227TIP3    H167096   1.018   0.593  12.241  0.2469 -3.2145  1.2805
15227TIP3    H267097   0.955   0.637  12.371 -0.1277 -0.9816  0.4021
15228TIP3   OH267098   2.863   0.061   0.530  0.0760  0.9709 -0.6595
15228TIP3    H167099   2.874   0.145   0.485 -0.4866  1.1332 -0.4967
15228TIP3    H267100   2.785   0.073   0.584 -0.6579 -0.0185 -1.4729
15229TIP3   OH267101   6.105   5.309   4.126  0.5841  0.0903  0.2913
15229TIP3    H167102   6.077   5.285   4.038 -0.4424  2.2073 -0.0227
15229TIP3    H267103   6.069   5.240   4.182 -0.4003 -0.2712 -0.7407
15230TIP3   OH267104   4.152   4.302   1.201 -0.0268 -0.0360 -0.1730
15230TIP3    H167105   4.066   4.307   1.243 -0.0861 -1.2197 -0.1376
15230TIP3    H267106   4.180   4.211   1.213  1.3767  0.4046  0.0916
15231TIP3   OH267107   6.625   6.386  16.858 -0.2872  0.2039  0.1902
15231TIP3    H167108   6.719   6.408  16.863 -0.3556  1.2811 -2.1405
15231TIP3    H267109   6.621   6.316  16.794 -1.1445  0.8906 -0.5332
15232TIP3   OH267110   3.578   2.813  16.976 -0.2676  0.1902  0.4825
15232TIP3    H167111   3.563   2.844  17.065 -1.2681  2.3137 -0.3614
15232TIP3    H267112   3.654   2.756  16.983 -0.8603 -0.3963  2.8181
15233TIP3   OH267113   3.302   0.615  11.816  0.0245  0.6506 -0.0855
15233TIP3    H167114   3.349   0.531  11.812  1.3181  1.2531  1.2621
15233TIP3    H267115   3.210   0.590  11.822  0.1365 -0.5926 -2.3708
15234TIP3   OH267116   5.666   6.253   5.486 -0.1696  0.4346 -0.1593
15234TIP3    H167117   5.678   6.161   5.461  2.9307  0.7553 -0.2028
15234TIP3    H267118   5.571   6.264   5.491 -0.6436 -2.7736 -0.0588
15235TIP3   OH267119   0.771   4.323  12.785  0.4093  0.3650 -0.0747
15235TIP3    H167120   0.687   4.360  12.757  1.0285  0.6225 -1.6512
15235TIP3    H267121   0.811   4.392  12.837 -0.3867  0.1949  0.8079
15236TIP3   OH267122   1.938   1.236   5.325 -0.3075 -0.7361  0.1467
15236TIP3    H167123   1.999   1.166   5.301  0.5622 -0.2924  0.9991
15236TIP3    H267124   1.958   1.306   5.262  0.5547 -0.3353  0.8520
15237TIP3   OH267125   0.163   1.416  12.802  0.0364 -0.0830 -0.0801
15237TIP3    H167126   0.069   1.402  12.789 -0.0176 -0.2535  0.4728
15237TIP3    H267127   0.202   1.400  12.716 -0.5995  1.3947 -0.6883
15238TIP3   OH267128   3.135   1.973  11.237 -0.1418 -0.4823 -0.8493
15238TIP3    H167129   3.069   2.019  11.289 -0.7293 -1.9700 -0.2127
15238TIP3    H267130   3.107   1.881  11.238  1.1923 -0.9373 -1.7344
15239TIP3   OH267131   0.201   4.408  13.958  0.4888  0.8821 -0.4640
15239TIP3    H167132   0.148   4.474  13.913  0.0801  0.6465 -0.3304
15239TIP3    H267133   0.201   4.436  14.050 -0.7972 -0.0154 -0.1641
15240TIP3   OH267134   4.636   2.327   2.520 -0.1568  0.8554  0.3918
15240TIP3    H167135   4.609   2.350   2.431  1.9531  2.4624  0.0603
15240TIP3    H267136   4.557   2.296   2.563 -2.1362  3.6281 -0.9339
15241TIP3   OH267137   3.543   2.098   4.950 -0.7159 -0.1411 -0.1075
15241TIP3    H167138   3.566   2.014   4.990  1.4238  0.1363 -0.6160
15241TIP3    H267139   3.570   2.163   5.015 -2.1555  0.1714  0.1897
15242TIP3   OH267140   1.176   5.144  15.813 -0.2573  0.7922  0.7202
15242TIP3    H167141   1.104   5.189  15.858 -1.0871  1.7736 -1.4750
15242TIP3    H267142   1.228   5.214  15.773 -0.3338 -0.0649 -0.9803
15243TIP3   OH267143   0.967   3.934  15.900 -0.0940  0.1374  0.0029
15243TIP3    H167144   0.944   4.012  15.950 -0.4081 -0.1819  0.3664
15243TIP3    H267145   0.890   3.877  15.909 -0.1133  0.0287 -0.7546
15244TIP3   OH267146   5.874   5.220  11.327 -0.5286  0.2455 -0.1446
15244TIP3    H167147   5.914   5.306  11.316 -2.2319  1.2733  1.1734
15244TIP3    H267148   5.818   5.210  11.249  0.4890 -0.1828 -0.8404
15245TIP3   OH267149   0.344   3.971  16.049 -0.6858  0.0689  0.1145
15245TIP3    H167150   0.397   4.038  16.004 -1.0257 -0.7691 -1.6246
15245TIP3    H267151   0.375   3.974  16.139 -0.3150  2.1935 -0.0173
15246TIP3   OH267152   0.156   6.213  12.845  0.3886 -0.3362  0.2212
15246TIP3    H167153   0.084   6.172  12.893 -1.5075  0.8364 -1.4996
15246TIP3    H267154   0.131   6.206  12.753  1.1963  2.3246 -0.2976
15247TIP3   OH267155   0.479   4.976  13.381  0.1536 -0.6288 -0.0950
15247TIP3    H167156   0.509   5.011  13.297 -0.8272  0.5367  0.0200
15247TIP3    H267157   0.460   4.884  13.362  1.4331 -0.7862 -0.7487
15248TIP3   OH267158   1.896   6.805  16.764 -0.1585 -1.3274  0.1067
15248TIP3    H167159   1.879   6.774  16.853  1.4779  0.1572  0.9855
15248TIP3    H267160   1.857   6.892  16.761  2.4158 -0.0879  0.4376
15249TIP3   OH267161   1.367   6.246   6.053 -0.5580 -0.4151  0.1696
15249TIP3    H167162   1.445   6.300   6.064  0.1491 -1.4650  0.4216
15249TIP3    H267163   1.346   6.216   6.141 -0.5151 -1.1435 -0.0693
15250TIP3   OH267164   0.515   4.129  12.403  0.0434  0.4996 -0.2061
15250TIP3    H167165   0.436   4.108  12.353 -2.2847  1.4958  2.6979
15250TIP3    H267166   0.521   4.225  12.399  1.4546  0.4054 -0.8223
15251TIP3   OH267167   3.804   0.403  13.877 -0.3567  0.2500  0.0142
15251TIP3    H167168   3.859   0.424  13.801  0.0723  0.9042  0.4943
15251TIP3    H267169   3.743   0.476  13.883 -1.0724 -0.3156 -0.3162
15252TIP3   OH267170   3.332   5.791   1.071 -0.2728  0.1853 -0.1768
15252TIP3    H167171   3.339   5.873   1.022 -0.6856 -0.4269 -1.2883
15252TIP3    H267172   3.369   5.725   1.012 -1.6994 -0.7217 -0.0788
15253TIP3   OH267173   3.914   5.794  12.550 -0.4441 -0.1159  0.2129
15253TIP3    H167174   3.883   5.793  12.460  2.3324  0.4249 -0.8530
15253TIP3    H267175   4.009   5.798  12.543 -0.1463  0.6732  3.1843
15254TIP3   OH267176   2.455   0.788   4.213  0.3353 -0.1153  0.5069
15254TIP3    H167177   2.488   0.705   4.248 -0.6473 -0.4852  0.5837
15254TIP3    H267178   2.377   0.806   4.265 -0.2397  0.1441 -0.4344
15255TIP3   OH267179   5.606   4.938  13.413  0.2521  0.3855 -0.1560
15255TIP3    H167180   5.603   4.966  13.505 -0.2613 -1.1403  0.3191
15255TIP3    H267181   5.630   5.017  13.365  1.3195  1.0458  1.3655
15256TIP3   OH267182   0.483   5.819  14.416  0.3523 -0.0496 -0.1536
15256TIP3    H167183   0.458   5.730  14.439 -2.5406  0.9731  1.1071
15256TIP3    H267184   0.412   5.851  14.360  0.1312  2.1372  1.2359
15257TIP3   OH267185   0.271   6.392   1.420 -0.2320  0.9752 -0.3863
15257TIP3    H167186   0.221   6.316   1.389 -1.5652  1.5597  0.2494
15257TIP3    H267187   0.217   6.467   1.395  0.4604  1.6446  0.0990
15258TIP3   OH267188   4.306   3.650   3.943 -0.6639  0.2167  0.3393
15258TIP3    H167189   4.286   3.604   3.862  0.0677  0.2955  0.1049
15258TIP3    H267190   4.278   3.740   3.928  1.6584  0.8257 -0.7523
15259TIP3   OH267191   2.505   0.911  15.043  0.3893  0.6070  0.0814
15259TIP3    H167192   2.446   0.953  15.105 -0.4039  0.1813 -0.3785
15259TIP3    H267193   2.589   0.907  15.089  0.3890  2.2889  0.3104
15260TIP3   OH267194   4.974   1.638   4.433  0.1157 -0.1073  0.1260
15260TIP3    H167195   4.902   1.610   4.376 -0.9144  0.0440  1.3013
15260TIP3    H267196   4.931   1.688   4.502  1.3986  0.2274  0.7039
15261TIP3   OH267197   0.425   0.290  12.190 -0.0713 -0.1103  0.2056
15261TIP3    H167198   0.402   0.308  12.281  0.6723  2.4932 -0.0537
15261TIP3    H267199   0.387   0.204  12.173 -2.5177  0.4489  2.1723
15262TIP3   OH267200   5.985   4.786  14.549  0.0032  0.1066 -0.5060
15262TIP3    H167201   5.925   4.723  14.508  0.6585  0.0063 -1.3417
15262TIP3    H267202   6.053   4.731  14.589 -0.5308  0.2111  0.5934
15263TIP3   OH267203   4.967   4.090  13.753  0.4143  0.1493  0.8104
15263TIP3    H167204   4.954   4.109  13.660  1.4340  1.3513  0.8825
15263TIP3    H267205   4.879   4.086  13.790 -0.0602 -1.3461 -0.3683
15264TIP3   OH267206   2.554   2.868   4.471  0.3497  0.4169  0.4451
15264TIP3    H167207   2.610   2.816   4.414 -1.8246 -1.6162  0.0144
15264TIP3    H267208   2.583   2.959   4.456  1.0683 -0.1869 -2.5117
15265TIP3   OH267209   1.198   5.331  12.106  0.1543 -0.6888 -0.9879
15265TIP3    H167210   1.246   5.379  12.038  0.3615  0.4765 -0.0627
15265TIP3    H267211   1.106   5.356  12.092  0.2597 -0.0054 -0.5192
15266TIP3   OH267212   3.026   1.663   3.601 -0.0854  0.3502 -0.1528
15266TIP3    H167213   3.086   1.672   3.528 -0.0681 -0.0797 -0.1920
15266TIP3    H267214   2.991   1.752   3.614  0.1867  0.5026 -0.4390
15267TIP3   OH267215   1.894   0.199  14.175  0.0825  0.0649  0.1230
15267TIP3    H167216   1.972   0.176  14.124  0.8512  2.1327  0.3073
15267TIP3    H267217   1.833   0.127  14.157  1.5165 -0.9188 -1.1052
15268TIP3   OH267218   3.561   1.299   4.301  0.5116 -0.2899  0.2047
15268TIP3    H167219   3.638   1.354   4.314  1.4742 -1.2344 -1.2057
15268TIP3    H267220   3.582   1.217   4.345 -1.0128  0.4389  2.5076
15269TIP3   OH267221   0.991   1.158  11.848 -1.0425 -0.2755 -0.7280
15269TIP3    H167222   0.952   1.133  11.764 -2.5985  2.1476 -0.8335
15269TIP3    H267223   0.929   1.222  11.885  1.8491  2.3262  0.0468
15270TIP3   OH267224   3.099   5.629   4.444  0.6855  0.2881  0.5242
15270TIP3    H167225   3.033   5.636   4.513  0.5460 -1.4704  0.6045
15270TIP3    H267226   3.049   5.611   4.365  0.9791  0.3483  0.3231
15271TIP3   OH267227   1.212   0.730   0.401  0.2497  0.7552 -0.1718
15271TIP3    H167228   1.167   0.651   0.432 -1.1406  2.4920  2.6108
15271TIP3    H267229   1.141   0.788   0.374  1.0688  1.9381  0.1546
15272TIP3   OH267230   6.006   4.039  10.456 -0.1409 -0.0637 -0.1595
15272TIP3    H167231   5.930   4.057  10.402 -0.8028 -1.1104  0.3816
15272TIP3    H267232   6.008   4.111  10.519 -0.7972 -0.1274 -0.0607
15273TIP3   OH267233   4.785   6.717  12.343  0.3870  0.1990  0.1882
15273TIP3    H167234   4.721   6.697  12.274 -0.1966 -0.1950  0.8263
15273TIP3    H267235   4.868   6.729  12.297 -0.1697  0.8507 -0.6757
15274TIP3   OH267236   5.147   6.024   5.149  0.0830  0.2936  0.3938
15274TIP3    H167237   5.190   5.974   5.080  0.8570  0.2750  0.8760
15274TIP3    H267238   5.098   5.959   5.199 -2.9229  0.6405 -1.8077
15275TIP3   OH267239   1.959   1.957  13.724  0.2170  0.6093  0.1213
15275TIP3    H167240   1.925   1.906  13.797  4.6820  0.1854  2.2599
15275TIP3    H267241   1.983   1.891  13.659  0.8014  0.4774  0.4611
15276TIP3   OH267242   2.573   1.294  14.282 -0.0265  0.8335  0.3228
15276TIP3    H167243   2.614   1.355  14.221  0.6761  0.5135  0.4595
15276TIP3    H267244   2.532   1.349  14.349  0.2047  1.1607  0.1936
15277TIP3   OH267245   1.625   4.512   6.156  0.2941  0.0449  0.0990
15277TIP3    H167246   1.649   4.432   6.202 -1.0857 -1.6416 -1.9018
15277TIP3    H267247   1.697   4.527   6.095  0.8993  0.7992  0.9696
15278TIP3   OH267248   6.306   2.135  10.660  0.3854 -0.5100  0.2699
15278TIP3    H167249   6.377   2.190  10.627  0.1690  0.1981  0.9540
15278TIP3    H267250   6.340   2.046  10.655  1.4908 -0.1465  0.9894
15279TIP3   OH267251   2.337   0.049   0.933  0.2743 -0.2631 -0.0372
15279TIP3    H167252   2.292  -0.031   0.958 -0.3216  0.6711  2.1368
15279TIP3    H267253   2.422   0.044   0.977 -0.4790  1.0596  1.6878
15280TIP3   OH267254   6.023   4.597   0.668  0.0019  0.0823 -0.3035
15280TIP3    H167255   5.932   4.570   0.682  0.2999 -1.2770 -0.8203
15280TIP3    H267256   6.037   4.667   0.731 -0.8708 -0.8969  1.0452
15281TIP3   OH267257   1.812   3.559   4.409  0.2079  0.1727 -0.6256
15281TIP3    H167258   1.731   3.552   4.460 -0.2160  1.1410 -1.1467
15281TIP3    H267259   1.843   3.468   4.403 -1.1423 -0.3042 -0.8993
15282TIP3   OH267260   0.106   3.776  13.226  0.2190  0.1876  0.7942
15282TIP3    H167261   0.174   3.720  13.188 -1.3245 -1.0882 -0.2204
15282TIP3    H267262   0.028   3.757  13.174 -1.6506 -0.5121  3.6298
15283TIP3   OH267263   4.243   3.808   4.825 -0.1739 -0.1136 -0.6954
15283TIP3    H167264   4.194   3.837   4.748 -0.9829 -0.1270 -0.1992
15283TIP3    H267265   4.290   3.886   4.854  0.7589 -0.3018 -1.6492
15284TIP3   OH267266   4.520   6.630   1.086 -0.6885 -0.1181  0.6607
15284TIP3    H167267   4.570   6.630   1.168  0.6890  0.8923 -0.1182
15284TIP3    H267268   4.525   6.540   1.055 -0.3929 -0.2984  1.2198
15285TIP3   OH267269   2.518   4.880  16.323  0.3816 -0.4802 -0.2527
15285TIP3    H167270   2.592   4.848  16.271  1.3922  2.2327 -0.6823
15285TIP3    H267271   2.543   4.969  16.347 -2.4746  0.3059  0.1930
15286TIP3   OH267272   2.495   5.459  16.790  0.3386  0.2867 -0.4329
15286TIP3    H167273   2.458   5.523  16.730 -0.1212  0.3641 -0.0706
15286TIP3    H267274   2.431   5.388  16.794  0.7851 -0.1416 -0.7330
15287TIP3   OH267275   0.462   1.839   2.150  0.8995 -0.0066  0.1553
15287TIP3    H167276   0.367   1.846   2.156  0.8583  0.8739 -1.1966
15287TIP3    H267277   0.493   1.930   2.147  1.5125 -0.2135 -2.8358
15288TIP3   OH267278   3.906   6.453   0.709  0.1440  0.0729 -0.0639
15288TIP3    H167279   3.972   6.522   0.710 -0.6992  0.9825 -1.9448
15288TIP3    H267280   3.947   6.380   0.756  0.8756  1.9455  2.4409
15289TIP3   OH267281   6.414   5.585  16.023 -0.2722  0.0581  0.0823
15289TIP3    H167282   6.493   5.637  16.008  1.6719 -2.3318  1.3316
15289TIP3    H267283   6.400   5.538  15.941 -0.5219  0.6223 -0.2024
15290TIP3   OH267284   3.169   3.134  11.615  0.0701  0.7339  0.2698
15290TIP3    H167285   3.192   3.153  11.706  0.1966 -1.2006  0.6867
15290TIP3    H267286   3.077   3.109  11.618  0.5463 -1.1490  0.2018
15291TIP3   OH267287   5.329   6.113  16.416 -0.1309 -0.1460  0.3118
15291TIP3    H167288   5.308   6.159  16.335 -0.6070 -1.5750 -0.4061
15291TIP3    H267289   5.308   6.175  16.486  0.7976  1.3013 -0.6585
15292TIP3   OH267290   2.677   5.028  11.539  0.2119  0.6161 -0.3745
15292TIP3    H167291   2.630   4.984  11.610 -0.8955  0.3213 -1.2554
15292TIP3    H267292   2.738   5.087  11.583  1.4020 -1.4250  0.8424
15293TIP3   OH267293   4.115   5.060   2.010 -0.2493 -0.4662  0.0705
15293TIP3    H167294   4.110   4.966   1.994 -0.6696 -0.6718  1.2636
15293TIP3    H267295   4.202   5.085   1.978 -0.7323 -0.9403 -1.6914
15294TIP3   OH267296   4.638   5.434   3.493 -0.3048  0.3777  0.8360
15294TIP3    H167297   4.667   5.485   3.568 -1.3515  1.1797  0.7210
15294TIP3    H267298   4.629   5.345   3.526 -2.7373  1.0577  2.2501
15295TIP3   OH267299   5.775   6.744  15.708 -0.0476 -0.2921 -0.4585
15295TIP3    H167300   5.717   6.798  15.654 -0.9414  0.1294  0.8739
15295TIP3    H267301   5.722   6.667  15.730  0.3252 -0.4832 -0.2122
15296TIP3   OH267302   1.410   4.992  13.545  0.1624 -0.1916  0.3670
15296TIP3    H167303   1.417   5.081  13.509 -2.4962  0.1316  0.4047
15296TIP3    H267304   1.459   4.996  13.628 -1.5441  1.9095  1.3873
15297TIP3   OH267305   5.500   2.920  12.609  0.2817  0.4495 -0.0445
15297TIP3    H167306   5.580   2.868  12.595  0.0686  0.1995 -0.3485
15297TIP3    H267307   5.511   2.957  12.697  1.4093  1.6307 -0.6455
15298TIP3   OH267308   0.248   3.189   4.727  0.5381  0.2037 -0.4334
15298TIP3    H167309   0.312   3.253   4.759  0.8674 -0.0349 -0.6158
15298TIP3    H267310   0.293   3.144   4.656  0.4913 -0.5728  0.0183
15299TIP3   OH267311   1.333   4.188   4.090 -0.3339  0.1113 -0.2297
15299TIP3    H167312   1.345   4.283   4.095 -0.3330  0.1767 -1.2049
15299TIP3    H267313   1.244   4.177   4.057 -0.9128 -0.2738  1.3720
15300TIP3   OH267314   5.662   1.671   2.007 -0.3824  0.1759 -0.6485
15300TIP3    H167315   5.623   1.590   1.973 -0.3259  0.3198 -1.0585
15300TIP3    H267316   5.617   1.686   2.090 -1.6032  0.6328 -1.3689
15301TIP3   OH267317   0.241   1.049   5.271  0.3202 -0.0254  0.1056
15301TIP3    H167318   0.215   0.997   5.194  0.2533  0.3951 -0.1614
15301TIP3    H267319   0.203   1.135   5.255  1.7935  0.5799 -0.2474
15302TIP3   OH267320   1.737   1.270   5.048 -0.2428  0.2842 -0.5392
15302TIP3    H167321   1.823   1.300   5.022  0.3045 -1.1240 -0.4672
15302TIP3    H267322   1.709   1.332   5.116  0.5346  0.9702 -0.8347
15303TIP3   OH267323   5.126   0.418   2.201  0.3300  0.0176 -0.1556
15303TIP3    H167324   5.035   0.449   2.202  0.6316  0.9627 -0.3018
15303TIP3    H267325   5.131   0.354   2.272 -0.2216  0.6470  0.4672
15304TIP3   OH267326   3.234   5.717  12.014 -0.5385  0.1362 -0.0981
15304TIP3    H167327   3.204   5.729  11.924 -0.3057 -1.1245 -0.3691
15304TIP3    H267328   3.306   5.654  12.007  1.5214  2.2644  0.6713
15305TIP3   OH267329   4.395   0.683  16.540 -0.4858  0.2897  0.1496
15305TIP3    H167330   4.358   0.748  16.601  1.7110  1.6481  0.1506
15305TIP3    H267331   4.387   0.724  16.454 -0.1940  0.0146 -0.0098
15306TIP3   OH267332   6.691   0.415  17.099 -0.1745  0.1615 -0.4886
15306TIP3    H167333   6.778   0.407  17.060 -0.2127 -2.1735 -0.2331
15306TIP3    H267334   6.667   0.506  17.085  2.2051  0.8123 -0.7655
15307TIP3   OH267335   6.399   1.179   5.422 -0.0214  0.0983  0.4544
15307TIP3    H167336   6.478   1.136   5.388 -0.8207 -1.3035  0.3196
15307TIP3    H267337   6.430   1.226   5.500  0.8654 -0.8428  0.6947
15308TIP3   OH267338   5.752   3.073  11.341  0.2846  0.1156 -0.1489
15308TIP3    H167339   5.721   3.151  11.296  2.2217  3.1247  3.2531
15308TIP3    H267340   5.680   3.050  11.401  0.7490  1.0896  0.8179
15309TIP3   OH267341   2.762   2.481  14.563 -0.1607 -0.5716  0.1560
15309TIP3    H167342   2.791   2.558  14.612 -2.1577  0.0355  0.4684
15309TIP3    H267343   2.744   2.514  14.475 -1.1860 -0.6184  0.3359
15310TIP3   OH267344   1.929   0.708   1.975  0.5494 -0.0558  0.1423
15310TIP3    H167345   1.997   0.693   1.909 -1.0305  1.0439 -1.8814
15310TIP3    H267346   1.976   0.715   2.058  2.7704 -0.3840 -1.0168
15311TIP3   OH267347   4.053   2.180  11.906  0.3435  0.0636 -0.3814
15311TIP3    H167348   4.027   2.267  11.936 -2.0223 -0.8332  0.4715
15311TIP3    H267349   4.149   2.182  11.904  0.3756  2.3476  0.5881
15312TIP3   OH267350   3.632   2.099   0.068 -0.4510 -0.2353 -0.0841
15312TIP3    H167351   3.607   2.078  -0.022  0.3851 -0.4034 -0.2830
15312TIP3    H267352   3.715   2.144   0.061 -1.3954  1.7012  0.4688
15313TIP3   OH267353   2.084   0.343  11.039 -0.4543  0.3550 -0.5519
15313TIP3    H167354   2.071   0.316  10.948 -1.9440 -0.3208 -0.1671
15313TIP3    H267355   2.081   0.261  11.089 -1.0332  0.8395  0.2386
15314TIP3   OH267356   2.486   1.586  10.892  0.2133  0.0823  0.1383
15314TIP3    H167357   2.403   1.634  10.891 -0.7877 -1.5548  1.0311
15314TIP3    H267358   2.466   1.501  10.854  1.4871 -0.3367  0.3461
15315TIP3   OH267359   5.185   5.743   1.347 -0.3186 -0.2702  0.7131
15315TIP3    H167360   5.218   5.830   1.325  0.9345 -0.7279  0.7215
15315TIP3    H267361   5.207   5.732   1.440 -0.3960 -0.6240  0.6921
15316TIP3   OH267362   0.456   2.720   4.231  0.0009 -0.3445 -0.0395
15316TIP3    H167363   0.375   2.770   4.231  1.7296  2.7692  1.5282
15316TIP3    H267364   0.513   2.767   4.169  1.4874 -0.7037  0.9832
15317TIP3   OH267365   1.441   4.046  14.190 -0.1108  0.0532  0.0230
15317TIP3    H167366   1.461   3.994  14.113  1.6518 -2.0186  1.7201
15317TIP3    H267367   1.499   4.011  14.258 -1.0386  2.2476  2.1101
15318TIP3   OH267368   6.621   0.367  13.711  0.6860  0.3797 -0.0293
15318TIP3    H167369   6.643   0.390  13.801  0.5628  1.1449 -0.1786
15318TIP3    H267370   6.525   0.358  13.712  0.9188 -2.9869  0.6309
15319TIP3   OH267371   5.921   4.844  15.845 -0.1682  0.1586  0.2407
15319TIP3    H167372   5.978   4.767  15.847 -0.6946 -0.2206  1.2050
15319TIP3    H267373   5.838   4.814  15.882 -0.4308  1.1553  0.5084
15320TIP3   OH267374   2.332   4.883  11.257 -0.6215 -0.0733 -0.4058
15320TIP3    H167375   2.382   4.905  11.179  0.7089  0.2081  0.4863
15320TIP3    H267376   2.242   4.871  11.226 -0.1180 -0.0081 -1.9644
15321TIP3   OH267377   5.368   1.901   0.188 -0.0331  0.0767 -0.6520
15321TIP3    H167378   5.343   1.984   0.149  0.4837  0.6499  0.2041
15321TIP3    H267379   5.460   1.889   0.163  0.5488  0.8426  0.9967
15322TIP3   OH267380   4.441   4.894   4.532  0.0196  0.0321 -0.0142
15322TIP3    H167381   4.358   4.847   4.530 -0.7018  0.6071  4.6280
15322TIP3    H267382   4.418   4.981   4.566  2.5123 -0.0131  2.0802
15323TIP3   OH267383   2.292   3.042  12.918 -0.1898 -0.0593  0.3131
15323TIP3    H167384   2.297   3.131  12.954  1.0824  0.2181 -0.4909
15323TIP3    H267385   2.318   3.052  12.826 -2.3776 -0.9081 -0.4497
15324TIP3   OH267386   2.269   4.916  15.721  0.1688  0.5475 -0.3884
15324TIP3    H167387   2.205   4.987  15.728  0.1705  0.4076  1.8397
15324TIP3    H267388   2.218   4.837  15.740  0.5516  0.1570 -0.9675
15325TIP3   OH267389   6.141   4.013   3.188  0.1521 -0.4080 -0.1550
15325TIP3    H167390   6.156   3.960   3.110  0.2098 -0.1375 -0.3263
15325TIP3    H267391   6.091   4.088   3.157  0.4211 -0.1567  0.0168
15326TIP3   OH267392   1.100   6.799   3.895  0.2853 -0.0742  0.5695
15326TIP3    H167393   1.008   6.773   3.907  0.0142  0.5322 -0.0847
15326TIP3    H267394   1.115   6.866   3.962 -0.1591  0.7714 -0.1531
15327TIP3   OH267395   3.052   3.098  14.510  0.0229  0.0376 -0.1792
15327TIP3    H167396   3.003   3.175  14.481 -0.3596 -0.3996 -0.7112
15327TIP3    H267397   2.989   3.025  14.503  0.5510 -0.4196 -0.2417
15328TIP3   OH267398   2.958   0.693   3.302 -0.0918 -0.0402 -0.1008
15328TIP3    H167399   2.917   0.737   3.228 -1.6951 -1.3654 -0.0616
15328TIP3    H267400   3.003   0.618   3.264 -0.6303 -0.5317  0.2099
15329TIP3   OH267401   0.385   3.408   6.701  0.1715  0.1763 -0.5258
15329TIP3    H167402   0.481   3.415   6.694  0.3190 -0.8151  0.2002
15329TIP3    H267403   0.368   3.314   6.696 -0.9500  0.4459 -2.5258
15330TIP3   OH267404   1.078   0.569   5.869  0.3555  0.7530 -0.0163
15330TIP3    H167405   1.057   0.480   5.841 -0.6030  0.9883 -0.1099
15330TIP3    H267406   1.125   0.558   5.952 -0.7255  0.1798  0.5438
15331TIP3   OH267407   1.325   1.937  16.670 -0.5469  0.5256 -0.1551
15331TIP3    H167408   1.347   2.005  16.607  3.0824  0.2377  0.6119
15331TIP3    H267409   1.359   1.856  16.631 -0.7162 -0.0993  0.9485
15332TIP3   OH267410   2.885   5.675  11.614 -0.1870  0.4255 -0.1466
15332TIP3    H167411   2.872   5.737  11.542 -2.2223 -0.1137 -0.3046
15332TIP3    H267412   2.870   5.589  11.575 -1.8831  0.1560  0.9850
15333TIP3   OH267413   3.314   0.288  12.034  0.1262  0.0173  0.7729
15333TIP3    H167414   3.288   0.206  11.992  1.7934 -0.8788  1.3828
15333TIP3    H267415   3.374   0.329  11.972  0.0258  0.3108  0.8695
15334TIP3   OH267416   6.713   3.655   5.302  1.6497  0.1927 -0.5557
15334TIP3    H167417   6.752   3.655   5.215 -0.2161 -1.1467 -1.4587
15334TIP3    H267418   6.674   3.568   5.311 -0.3988  1.1536  0.5996
15335TIP3   OH267419   1.990   0.624  13.685 -0.4486 -0.3529  0.3130
15335TIP3    H167420   2.054   0.605  13.617  1.3442 -0.2305  1.8758
15335TIP3    H267421   1.908   0.587  13.652  0.2224  0.0978 -2.0640
15336TIP3   OH267422   2.906   1.791   0.286 -0.5489  0.1454 -0.4463
15336TIP3    H167423   2.985   1.818   0.239  0.1815  0.1490  0.7495
15336TIP3    H267424   2.850   1.868   0.284 -0.2765  0.3415 -0.7895
15337TIP3   OH267425   6.006   0.102  16.071  0.1991  0.1657 -0.0395
15337TIP3    H167426   5.997   0.042  15.997 -0.5848 -1.0584  1.0110
15337TIP3    H267427   5.916   0.116  16.101  0.5432  0.1892  1.0214
15338TIP3   OH267428   6.376   0.359  14.714 -0.1286  0.0711  0.3153
15338TIP3    H167429   6.382   0.315  14.799 -0.5199 -0.3068  0.1499
15338TIP3    H267430   6.335   0.295  14.657 -2.7291  1.3717  0.5835
15339TIP3   OH267431   1.417   3.006   6.136 -0.2208 -0.0482  0.3463
15339TIP3    H167432   1.369   2.925   6.122 -1.0360  0.4601  0.1491
15339TIP3    H267433   1.441   3.035   6.048  1.2551 -0.7491  0.4744
15340TIP3   OH267434   1.524   6.354   1.100  0.2887  0.1748  0.2963
15340TIP3    H167435   1.529   6.319   1.011 -2.2638  1.3974 -0.4104
15340TIP3    H267436   1.551   6.280   1.156  1.4430 -0.7731 -1.4109
15341TIP3   OH267437   2.004   0.251  13.124 -0.4828  0.1554 -0.5253
15341TIP3    H167438   2.080   0.293  13.082 -1.8927  1.5566 -1.8380
15341TIP3    H267439   1.965   0.198  13.054 -1.1608  0.0834 -0.0963
15342TIP3   OH267440   1.460   5.190  15.106  0.0279 -0.1143  0.0473
15342TIP3    H167441   1.366   5.205  15.099 -0.0603 -0.8727 -0.4825
15342TIP3    H267442   1.492   5.261  15.162 -1.0676 -0.6052  1.3414
15343TIP3   OH267443   1.311   0.609  15.741 -0.0122  0.3651  0.3003
15343TIP3    H167444   1.399   0.584  15.771 -0.1232  0.4602  0.7125
15343TIP3    H267445   1.294   0.551  15.666  0.6718  0.7933 -0.2058
15344TIP3   OH267446   2.440   3.597   3.662  0.0356  0.1252  0.1586
15344TIP3    H167447   2.525   3.574   3.623 -0.3166  0.5938 -0.9298
15344TIP3    H267448   2.462   3.635   3.747  1.0595  1.7304 -0.7563
15345TIP3   OH267449   5.768   1.847  11.224 -0.6001 -0.4921  0.3547
15345TIP3    H167450   5.812   1.815  11.303  1.0645 -1.1565 -0.7801
15345TIP3    H267451   5.724   1.769  11.189 -1.2001 -0.2358  0.5290
15346TIP3   OH267452   1.554   1.416  11.552 -0.4137 -0.2719 -0.0260
15346TIP3    H167453   1.493   1.353  11.590 -0.1972 -1.9860 -2.2911
15346TIP3    H267454   1.502   1.464  11.487 -0.0582  0.3675  0.1560
15347TIP3   OH267455   5.977   3.449   2.626  0.3009  0.3357 -0.5013
15347TIP3    H167456   6.004   3.434   2.535 -0.9744  0.3491 -0.9078
15347TIP3    H267457   5.950   3.540   2.628 -0.5080  0.1052 -0.3478
15348TIP3   OH267458   3.978   1.614  12.362  0.4029 -0.5699 -0.1313
15348TIP3    H167459   4.032   1.690  12.385  1.2882 -1.4712  0.9315
15348TIP3    H267460   4.006   1.591  12.274 -0.5848  0.8993 -0.8752
15349TIP3   OH267461   3.062   3.242   1.329 -0.0891  0.0559 -0.2165
15349TIP3    H167462   3.030   3.154   1.346 -0.1989 -0.0760 -1.0682
15349TIP3    H267463   3.116   3.234   1.250 -0.4369  0.8221 -0.5449
15350TIP3   OH267464   4.688   2.704  13.172  0.3073 -0.4346 -0.2736
15350TIP3    H167465   4.646   2.641  13.231  2.7816 -1.1519  0.8794
15350TIP3    H267466   4.735   2.649  13.109  2.4581  0.1428  0.7215
15351TIP3   OH267467   6.558   4.099  16.115 -0.1419  0.5200  0.0461
15351TIP3    H167468   6.590   4.187  16.093 -0.3060  0.3598 -0.8834
15351TIP3    H267469   6.544   4.057  16.030  2.2361 -1.2674  0.4310
15352TIP3   OH267470   3.361   1.651  14.322  0.3306  0.6605 -0.1141
15352TIP3    H167471   3.270   1.672  14.339 -1.0206 -1.9814 -3.0072
15352TIP3    H267472   3.377   1.570  14.370  0.4857  0.0426 -1.1812
15353TIP3   OH267473   0.934   0.958   2.928  0.0777  0.2193 -0.2606
15353TIP3    H167474   0.991   0.887   2.958 -1.3142 -0.7327  0.2378
15353TIP3    H267475   0.904   0.929   2.842  1.0214  1.1422 -0.9264
15354TIP3   OH267476   0.823   0.647  12.699 -0.3918 -0.1467 -0.0632
15354TIP3    H167477   0.750   0.686  12.652  0.3342  1.3891  0.0248
15354TIP3    H267478   0.790   0.634  12.788 -1.4914 -2.2862 -0.7087
15355TIP3   OH267479   3.474   5.809  12.885  0.3034 -0.0067  0.2352
15355TIP3    H167480   3.457   5.902  12.872 -0.5075 -0.3556 -1.5640
15355TIP3    H267481   3.556   5.793  12.838 -0.3078 -0.4441 -0.7202
15356TIP3   OH267482   1.058   3.358   1.021 -0.2289 -0.2365  0.0621
15356TIP3    H167483   1.090   3.446   1.043  1.1248 -0.6965  0.0137
15356TIP3    H267484   0.980   3.346   1.077 -0.0059  0.7116  0.5977
15357TIP3   OH267485   4.191   0.177   5.362 -0.0143 -0.3826  0.1875
15357TIP3    H167486   4.218   0.086   5.373 -0.9640 -0.8670 -1.2273
15357TIP3    H267487   4.176   0.187   5.268 -1.3927  0.7887  0.4882
15358TIP3   OH267488   1.683   0.529  11.429  0.4103 -0.6989 -0.0582
15358TIP3    H167489   1.770   0.558  11.457  0.3215  0.6094 -1.0443
15358TIP3    H267490   1.684   0.536  11.334 -0.7955 -0.5849 -0.0842
15359TIP3   OH267491   2.276   1.085  13.912  0.5790 -0.8664 -0.0089
15359TIP3    H167492   2.225   1.159  13.879  1.0650 -0.3698  0.3336
15359TIP3    H267493   2.359   1.124  13.941  0.6461 -1.4619  0.6348
15360TIP3   OH267494   2.828   4.794  15.189 -0.8803 -0.2060 -0.1664
15360TIP3    H167495   2.763   4.816  15.256  0.4350  0.5330  0.9204
15360TIP3    H267496   2.797   4.838  15.110 -1.4693  0.5085  0.4466
15361TIP3   OH267497   2.048   1.415  12.817  0.1358 -0.0327  0.0290
15361TIP3    H167498   2.105   1.469  12.762  0.1812  0.9859  1.0442
15361TIP3    H267499   2.106   1.380  12.884 -0.2941  0.4610  0.6709
15362TIP3   OH267500   4.131   3.362  14.643 -0.1342  0.3067 -0.3095
15362TIP3    H167501   4.172   3.448  14.655  0.6552  0.0710 -1.2130
15362TIP3    H267502   4.048   3.381  14.598 -1.2029  0.8112  1.7744
15363TIP3   OH267503   2.198   4.310   4.141 -0.1159 -0.3104  0.4216
15363TIP3    H167504   2.147   4.316   4.061  2.4338  1.3920 -1.2476
15363TIP3    H267505   2.232   4.220   4.142  0.5848 -0.0763 -0.9552
15364TIP3   OH267506   2.041   1.763   4.832 -0.0865 -0.5402  0.1934
15364TIP3    H167507   1.991   1.830   4.785  1.5225  1.9853  1.8819
15364TIP3    H267508   1.977   1.693   4.849 -1.7548  0.3681 -1.8904
15365TIP3   OH267509   4.438   5.191   3.463 -0.8656 -0.0374 -0.4769
15365TIP3    H167510   4.398   5.154   3.541  1.9246 -0.4002  0.9337
15365TIP3    H267511   4.474   5.116   3.415 -0.3911  0.3592 -0.7638
15366TIP3   OH267512   5.946   2.256  16.312  0.0781 -0.3065  0.4865
15366TIP3    H167513   5.986   2.340  16.289 -0.7597  0.1130  0.5016
15366TIP3    H267514   5.852   2.275  16.312 -0.2338 -1.6417 -1.1599
15367TIP3   OH267515   0.648   4.418  15.316  0.1044  0.5303 -0.8943
15367TIP3    H167516   0.598   4.387  15.240  1.5952  0.2702 -1.8076
15367TIP3    H267517   0.642   4.514  15.310 -1.9168  0.5380  0.1753
15368TIP3   OH267518   0.170   0.549  11.030  0.6509 -0.2323  0.1321
15368TIP3    H167519   0.252   0.590  11.059  1.0840 -0.9776 -0.0083
15368TIP3    H267520   0.198   0.479  10.970 -0.1451  0.1712 -0.7321
15369TIP3   OH267521   4.816   2.519   2.612 -0.0845  0.3639  0.2186
15369TIP3    H167522   4.736   2.470   2.591  0.0618 -0.5375  1.6452
15369TIP3    H267523   4.886   2.467   2.571 -0.0765  0.2012  0.4339
15370TIP3   OH267524   1.113   3.331  16.210 -0.1823  0.2107 -0.1788
15370TIP3    H167525   1.195   3.291  16.182  0.0453  1.0079 -0.6958
15370TIP3    H267526   1.079   3.272  16.277  0.5936 -0.3568 -0.2690
15371TIP3   OH267527   6.326   3.360  12.011  0.3504  0.5369 -0.1645
15371TIP3    H167528   6.390   3.422  12.046  0.1666  0.0937  0.9877
15371TIP3    H267529   6.379   3.297  11.963  0.7807  0.2379  0.6842
15372TIP3   OH267530   0.249   5.858   2.386 -0.0685  0.2756 -0.3348
15372TIP3    H167531   0.249   5.952   2.402 -0.2439  0.3657 -0.8486
15372TIP3    H267532   0.206   5.821   2.464 -1.1878  0.7316 -0.7118
15373TIP3   OH267533   2.511   6.476  11.697  0.0784  0.1215  0.1604
15373TIP3    H167534   2.551   6.515  11.619 -0.0971 -2.6909 -1.4668
15373TIP3    H267535   2.420   6.503  11.694 -0.0748 -0.4766 -1.0106
15374TIP3   OH267536   4.838   0.988  12.188  0.3230 -0.1704  0.6842
15374TIP3    H167537   4.752   0.983  12.146  0.3117  0.3798  0.6421
15374TIP3    H267538   4.863   1.080  12.182  1.7320 -0.6129 -0.9505
15375TIP3   OH267539   1.660   2.566   1.957  0.4400 -0.4861 -0.0009
15375TIP3    H167540   1.603   2.590   1.884  0.3569  0.2086  0.2768
15375TIP3    H267541   1.721   2.502   1.920  0.4056 -0.1367 -0.6843
15376TIP3   OH267542   2.454   4.649   6.604 -0.0736 -0.3673 -0.2329
15376TIP3    H167543   2.477   4.625   6.515  1.6174 -0.0389  0.0698
15376TIP3    H267544   2.370   4.694   6.596 -0.9127 -2.0382 -1.3863
15377TIP3   OH267545   2.974   1.796   4.967  0.6121  0.2918 -0.2143
15377TIP3    H167546   2.938   1.876   4.928  2.2850  0.3087 -1.8658
15377TIP3    H267547   2.942   1.797   5.057 -3.1608  0.4675 -1.3890
15378TIP3   OH267548   6.334   5.685  15.136  0.4574  1.0663 -0.3153
15378TIP3    H167549   6.265   5.743  15.103 -0.4577 -0.3095 -0.9484
15378TIP3    H267550   6.348   5.622  15.065 -0.0503 -0.6931  1.0619
15379TIP3   OH267551   4.230   5.419  10.337  0.5351  0.2806  0.1805
15379TIP3    H167552   4.197   5.364  10.266  1.3607 -0.1558  0.1200
15379TIP3    H267553   4.287   5.482  10.294 -0.1232  0.9626  0.2937
15380TIP3   OH267554   5.852   3.718  14.408  0.2123 -0.0545 -0.7461
15380TIP3    H167555   5.899   3.800  14.395  0.3188 -0.1108 -0.7229
15380TIP3    H267556   5.783   3.719  14.342  1.0548 -0.5531 -1.6685
15381TIP3   OH267557   6.159   2.212   2.925  0.2252 -0.6131  0.6175
15381TIP3    H167558   6.099   2.232   2.853  1.3086 -1.7938 -0.6787
15381TIP3    H267559   6.127   2.130   2.962  1.1704 -1.4062 -0.2732
15382TIP3   OH267560   1.698   5.730   1.461 -0.5812  0.3254  0.0614
15382TIP3    H167561   1.744   5.777   1.531 -0.2479 -0.5790  0.4661
15382TIP3    H267562   1.626   5.788   1.436  0.6770  1.7163 -0.4814
15383TIP3   OH267563   0.085   3.570   2.741  0.1178 -0.2201 -0.3466
15383TIP3    H167564   0.158   3.552   2.682  1.1802 -1.0232  1.1583
15383TIP3    H267565   0.035   3.488   2.743 -0.0292 -0.1287 -0.2773
15384TIP3   OH267566   5.603   3.903  16.597 -0.5831 -0.2197 -0.0689
15384TIP3    H167567   5.680   3.873  16.548 -2.2642 -1.1231 -2.2893
15384TIP3    H267568   5.537   3.922  16.531 -2.5070 -0.0524  1.7752
15385TIP3   OH267569   5.644   6.556  14.323  0.2363  0.3800 -0.3175
15385TIP3    H167570   5.577   6.500  14.283 -0.3260 -0.9305  2.2462
15385TIP3    H267571   5.712   6.495  14.352 -0.3514  0.9110  2.4823
15386TIP3   OH267572   4.160   6.663  16.734 -0.0015  0.0402  0.1538
15386TIP3    H167573   4.172   6.654  16.639 -3.0964 -1.7662 -0.1924
15386TIP3    H267574   4.107   6.742  16.744 -0.1403 -0.0713  0.3078
15387TIP3   OH267575   1.732   2.756  15.173  0.4241 -0.5425 -0.3215
15387TIP3    H167576   1.734   2.823  15.105  1.2029  1.6621  1.7175
15387TIP3    H267577   1.783   2.794  15.245 -0.7215 -2.5435  1.6599
15388TIP3   OH267578   2.978   5.379  15.622  0.1764  0.1304  0.2944
15388TIP3    H167579   2.988   5.474  15.618 -3.1804  0.6709  1.5699
15388TIP3    H267580   2.927   5.363  15.701 -1.4570 -2.4887 -1.1329
15389TIP3   OH267581   0.394   0.163   4.614 -0.0167  0.3213  0.6427
15389TIP3    H167582   0.326   0.095   4.619 -0.0750  0.3787  0.6280
15389TIP3    H267583   0.348   0.241   4.582  0.4013 -0.1033 -1.0908
15390TIP3   OH267584   5.375   0.670  13.408 -1.1432  0.0505  0.7097
15390TIP3    H167585   5.470   0.658  13.411 -0.9172  0.8040 -1.5503
15390TIP3    H267586   5.355   0.720  13.488  0.0800 -1.4703  2.0422
15391TIP3   OH267587   1.269   5.194   6.393  0.1439 -0.4462  0.0664
15391TIP3    H167588   1.215   5.240   6.328  1.0829 -1.1425 -1.2559
15391TIP3    H267589   1.288   5.261   6.459 -0.2845  0.4742 -0.7099
15392TIP3   OH267590   5.990   4.881  13.238 -0.1275  0.3991 -1.1715
15392TIP3    H167591   5.988   4.806  13.178 -1.8354  0.7365 -1.6024
15392TIP3    H267592   5.999   4.957  13.181  3.4734  0.5467 -0.6398
15393TIP3   OH267593   6.153   4.291   5.070 -0.0307 -0.1975  0.5167
15393TIP3    H167594   6.200   4.211   5.047 -1.8820 -1.6936  1.6542
15393TIP3    H267595   6.152   4.342   4.989  1.6546 -1.0453 -0.0916
15394TIP3   OH267596   4.548   4.618   1.945  0.4860 -0.2682  0.0458
15394TIP3    H167597   4.497   4.685   1.990 -0.0645  0.3011 -1.3703
15394TIP3    H267598   4.639   4.644   1.959  0.2761  0.9794 -0.7476
15395TIP3   OH267599   2.042   1.609   0.156  0.2082  0.2291 -0.0488
15395TIP3    H167600   2.081   1.536   0.204 -1.0293 -0.4898 -0.0883
15395TIP3    H267601   2.115   1.652   0.112  0.7482 -2.2083 -1.6757
15396TIP3   OH267602   5.174   0.325   5.911  0.2589 -0.1352  0.6731
15396TIP3    H167603   5.120   0.266   5.964 -0.0515  1.8709  2.7319
15396TIP3    H267604   5.134   0.411   5.923  0.1920  0.4495 -2.9156
15397TIP3   OH267605   1.313   0.498  12.499 -0.2634  0.0099 -0.0375
15397TIP3    H167606   1.272   0.585  12.494 -0.4348 -0.1151 -0.9385
15397TIP3    H267607   1.386   0.510  12.560 -1.7813  0.1726  1.8695
15398TIP3   OH267608   5.858   5.127   2.813  0.9389 -0.3226  0.9837
15398TIP3    H167609   5.846   5.212   2.771  4.8611 -1.5443 -3.5072
15398TIP3    H267610   5.791   5.071   2.774 -1.4749  0.4249  3.7476
15399TIP3   OH267611   0.796   3.847   3.957  0.0130  0.0398  0.4083
15399TIP3    H167612   0.737   3.888   3.893  0.4006  2.1952  1.3267
15399TIP3    H267613   0.765   3.757   3.964 -1.9820  0.5826 -0.5288
15400TIP3   OH267614   0.845   4.902  11.619 -0.3144 -0.1740 -0.5282
15400TIP3    H167615   0.914   4.945  11.567  1.2132 -1.6151  0.2243
15400TIP3    H267616   0.821   4.825  11.567 -1.7508  0.5606 -1.0098
15401TIP3   OH267617   6.497   0.310   4.226  0.0823 -0.6076 -0.1644
15401TIP3    H167618   6.532   0.396   4.252 -1.3342  0.6508 -2.1208
15401TIP3    H267619   6.574   0.259   4.202  0.9224  0.2813  0.5481
15402TIP3   OH267620   2.931   0.976  12.206 -0.1928  0.3037  0.9288
15402TIP3    H167621   2.986   0.926  12.265 -0.1711  0.9740  1.4916
15402TIP3    H267622   2.965   0.957  12.119 -1.4455 -2.2564  0.8963
15403TIP3   OH267623   6.715   0.246   3.137  0.4852 -0.1462  0.0774
15403TIP3    H167624   6.721   0.338   3.165  1.6610 -0.3403  0.5118
15403TIP3    H267625   6.765   0.198   3.203  0.5296 -1.0092 -0.5761
15404TIP3   OH267626   4.088   1.401  15.963 -0.3463 -0.3613  0.3203
15404TIP3    H167627   4.152   1.391  16.033  0.8401 -1.1749 -0.8444
15404TIP3    H267628   4.024   1.464  15.998 -0.3804 -1.5339  2.5186
15405TIP3   OH267629   5.990   3.590   4.240 -0.0054 -0.0320 -0.2752
15405TIP3    H167630   5.988   3.512   4.186 -0.1056  0.2348 -0.6588
15405TIP3    H267631   5.923   3.647   4.203 -0.3389 -0.0014  0.3641
15406TIP3   OH267632   1.790   5.520  12.198  0.1713 -0.0573  0.9713
15406TIP3    H167633   1.709   5.472  12.184  0.8971 -1.0925  0.1886
15406TIP3    H267634   1.839   5.467  12.261  0.6900 -0.0170  0.6156
15407TIP3   OH267635   6.349   6.165   2.566 -0.4101 -0.3137  0.0953
15407TIP3    H167636   6.401   6.185   2.488 -0.5684  0.8222  0.2694
15407TIP3    H267637   6.265   6.133   2.532 -0.5657  0.4020 -0.1988
15408TIP3   OH267638   0.508   5.216  11.718  0.0494  0.1867 -0.3194
15408TIP3    H167639   0.594   5.239  11.753 -0.2185 -0.5599  0.8763
15408TIP3    H267640   0.525   5.192  11.627  1.1482 -0.2008 -0.0240
15409TIP3   OH267641   1.652   4.690   4.297 -0.2996  1.0592 -0.0576
15409TIP3    H167642   1.681   4.625   4.361 -0.0331 -0.6076 -1.7555
15409TIP3    H267643   1.714   4.681   4.224 -1.4376  1.8357 -1.1612
15410TIP3   OH267644   2.250   5.487  15.824 -0.3139 -0.0376 -0.1076
15410TIP3    H167645   2.275   5.398  15.849  1.5240 -0.1644 -2.0514
15410TIP3    H267646   2.317   5.543  15.864  0.7297  0.0567 -1.8658
15411TIP3   OH267647   0.921   6.009  11.135 -0.3909  0.7108  0.6037
15411TIP3    H167648   0.850   5.957  11.175 -2.1149  0.2538 -2.6763
15411TIP3    H267649   0.999   5.955  11.146 -1.5086 -1.0766  0.2256
15412TIP3   OH267650   6.718   2.109  13.910 -0.2147 -0.4237  0.6706
15412TIP3    H167651   6.706   2.018  13.885  1.2052 -1.1574  2.4158
15412TIP3    H267652   6.713   2.158  13.828 -0.0942 -2.1677 -0.4159
15413TIP3   OH267653   4.072   1.924  15.941  0.3542 -1.2163  0.3664
15413TIP3    H167654   4.043   1.964  15.859 -1.2133 -1.4372  0.7939
15413TIP3    H267655   4.147   1.978  15.968  1.2627 -1.4811 -1.4758
15414TIP3   OH267656   3.195   4.502   0.187  0.5220  0.3365  0.4605
15414TIP3    H167657   3.223   4.417   0.222  0.1693 -0.4321 -1.0513
15414TIP3    H267658   3.219   4.565   0.255  2.3153 -0.7659  0.9062
15415TIP3   OH267659   1.461   3.331   3.931  0.3504 -0.4201  0.4635
15415TIP3    H167660   1.485   3.243   3.962 -0.6419 -0.1861  2.0646
15415TIP3    H267661   1.365   3.331   3.936  0.3332  0.6543  0.1776
15416TIP3   OH267662   5.111   1.561  16.999  0.4239  0.1896 -0.4458
15416TIP3    H167663   5.037   1.516  17.040  0.9127  0.1372  0.3948
15416TIP3    H267664   5.127   1.512  16.918 -0.8797  0.6034 -0.9785
15417TIP3   OH267665   1.847   2.853  16.315 -0.0069  0.5098 -0.3012
15417TIP3    H167666   1.754   2.869  16.331  0.6174  1.9725  2.4253
15417TIP3    H267667   1.869   2.779  16.373  0.5077  0.0075 -1.1117
15418TIP3   OH267668   2.298   1.261   2.978 -0.1178 -0.1304  0.5764
15418TIP3    H167669   2.213   1.305   2.977 -0.2449 -0.3762  0.2094
15418TIP3    H267670   2.362   1.331   2.981 -0.3407  0.0508  1.2804
15419TIP3   OH267671   0.983   1.469  12.147 -0.0884  0.4289 -0.4079
15419TIP3    H167672   0.936   1.387  12.138  0.3929  0.3174 -2.2913
15419TIP3    H267673   0.925   1.525  12.198 -0.8699 -0.7257 -0.0053
15420TIP3   OH267674   1.685   3.598   3.093  0.3909  0.0162  0.3388
15420TIP3    H167675   1.741   3.548   3.152 -2.0339 -1.2585  1.7135
15420TIP3    H267676   1.619   3.639   3.150 -1.1546 -0.0408 -1.3149
15421TIP3   OH267677   5.901   0.326   4.788  0.1273 -0.2389  0.3382
15421TIP3    H167678   5.976   0.346   4.843  0.3159  2.0684 -0.6385
15421TIP3    H267679   5.880   0.409   4.745 -1.9085 -1.2295 -0.7288
15422TIP3   OH267680   5.716   1.783   3.646 -0.4852 -0.2353  0.5269
15422TIP3    H167681   5.767   1.858   3.678  0.1714 -0.7012  0.6006
15422TIP3    H267682   5.636   1.821   3.612  1.0655  0.8580 -2.2311
15423TIP3   OH267683   6.612   0.825  12.734  0.2233 -0.4660 -0.0048
15423TIP3    H167684   6.643   0.908  12.769 -1.7106  1.7155 -2.9364
15423TIP3    H267685   6.690   0.783  12.697  1.1455  0.2283  1.0961
15424TIP3   OH267686   1.142   4.935   4.278 -0.1750 -0.0226 -0.2673
15424TIP3    H167687   1.226   4.981   4.273  0.7045 -1.4477  0.6211
15424TIP3    H267688   1.147   4.870   4.208 -0.6392  0.0533 -0.3706
15425TIP3   OH267689   4.930   2.868   1.783 -0.1531  0.7046 -0.0280
15425TIP3    H167690   5.022   2.845   1.786 -0.3794 -0.6730 -1.8213
15425TIP3    H267691   4.928   2.963   1.791  1.3773  0.7093  0.4485
15426TIP3   OH267692   5.736   4.160  16.591 -0.6812 -0.1593 -0.2235
15426TIP3    H167693   5.805   4.125  16.535 -1.0411  0.9328 -1.3855
15426TIP3    H267694   5.688   4.082  16.620  0.7102 -0.8907  0.2099
15427TIP3   OH267695   4.333   2.788   5.329  0.0907  0.1557  0.1611
15427TIP3    H167696   4.260   2.847   5.350  0.7869  1.7557 -1.6358
15427TIP3    H267697   4.312   2.706   5.374 -1.9568  1.1199  1.0593
15428TIP3   OH267698   3.086   5.169  11.896 -0.1334  0.2067  0.3977
15428TIP3    H167699   3.050   5.153  11.984  1.6249  0.0413  1.1271
15428TIP3    H267700   3.175   5.199  11.912  0.4288 -0.4204 -1.3653
15429TIP3   OH267701   1.731   2.969   2.020  0.3689 -0.1526  0.0067
15429TIP3    H167702   1.692   3.004   2.100  1.1406  1.8865 -0.4453
15429TIP3    H267703   1.686   3.015   1.949 -0.7671 -2.3985 -0.8312
15430TIP3   OH267704   1.384   4.274   4.750  0.2052 -0.0284  0.0431
15430TIP3    H167705   1.428   4.309   4.672 -1.7788 -0.4640 -1.3447
15430TIP3    H267706   1.396   4.342   4.817 -0.0682  1.4596 -1.3634
15431TIP3   OH267707   2.767   4.852  11.854  0.0881 -0.2864 -0.0878
15431TIP3    H167708   2.687   4.807  11.829  0.1407 -1.0014  0.9699
15431TIP3    H267709   2.819   4.854  11.774  0.4127 -2.8312 -0.0311
15432TIP3   OH267710   5.978   5.950  13.192 -0.1948 -0.0607 -0.1376
15432TIP3    H167711   5.935   6.030  13.164  1.6950  0.9392 -0.3757
15432TIP3    H267712   6.009   5.910  13.110 -3.1019 -2.3262 -0.2694
15433TIP3   OH267713   2.455   0.369  12.880 -0.1876  0.0278  0.2687
15433TIP3    H167714   2.496   0.293  12.921 -0.3544  0.9058  2.1912
15433TIP3    H267715   2.522   0.437  12.884  0.6418 -0.4094 -3.1099
15434TIP3   OH267716   6.581   6.221  15.396 -0.3008  0.9046  0.4818
15434TIP3    H167717   6.504   6.166  15.381  0.4329 -0.6751  2.1085
15434TIP3    H267718   6.555   6.279  15.468  0.3388 -0.4391  1.8580
15435TIP3   OH267719   1.791   5.827   3.445  0.6962  0.3005 -0.0808
15435TIP3    H167720   1.824   5.915   3.467  0.6504  0.0685  0.9431
15435TIP3    H267721   1.869   5.775   3.430  0.7359  0.3652 -0.0980
15436TIP3   OH267722   3.497   3.576  15.046  0.0277 -0.2842 -0.2084
15436TIP3    H167723   3.571   3.630  15.021 -0.0416 -0.5818 -1.1114
15436TIP3    H267724   3.472   3.531  14.965 -0.3908 -1.0823  0.3455
15437TIP3   OH267725   0.210   2.279  10.955  0.2607 -0.1982 -0.0367
15437TIP3    H167726   0.178   2.235  10.876 -2.3184  0.6825  0.4445
15437TIP3    H267727   0.246   2.362  10.923  1.9634 -1.0780 -0.5489
15438TIP3   OH267728   4.170   0.433   2.547 -0.1290  0.6741 -0.3357
15438TIP3    H167729   4.218   0.354   2.522  0.3345  0.8700 -0.0759
15438TIP3    H267730   4.144   0.473   2.465 -3.2930 -1.4753 -0.5646
15439TIP3   OH267731   2.921   0.423  14.519 -0.0721 -1.0284  0.0988
15439TIP3    H167732   2.949   0.435  14.610  1.0606 -0.9143 -0.2470
15439TIP3    H267733   2.971   0.348  14.488 -2.2419 -2.6296  0.2636
15440TIP3   OH267734   0.854   4.426  13.564  0.6915  0.0844  0.0791
15440TIP3    H167735   0.767   4.439  13.602  0.2483 -1.8854 -0.1142
15440TIP3    H267736   0.906   4.389  13.636  1.2806  0.9177  0.0925
15441TIP3   OH267737   1.023   0.925  15.676 -0.2378  0.1375  0.4446
15441TIP3    H167738   0.978   0.855  15.724  0.7783 -0.7380  0.1633
15441TIP3    H267739   1.115   0.899  15.678  0.1236  1.3523  0.1155
15442TIP3   OH267740   0.466   3.987  11.226 -0.3612  0.4101 -0.6394
15442TIP3    H167741   0.472   4.071  11.180 -1.0331  1.3405  0.8874
15442TIP3    H267742   0.425   3.928  11.163  1.5384  0.7384 -2.3184
15443TIP3   OH267743   2.579   5.245  14.320  0.4447 -0.2295  0.0337
15443TIP3    H167744   2.603   5.156  14.296 -0.7595 -0.5323 -0.1072
15443TIP3    H267745   2.568   5.242  14.415  1.8676  0.1518  0.2390
15444TIP3   OH267746   3.949   6.277   2.381  0.0895  0.3338 -0.5887
15444TIP3    H167747   3.905   6.358   2.407  1.1633  0.3927  1.2057
15444TIP3    H267748   4.015   6.262   2.449  0.0551 -1.9483 -0.9598
15445TIP3   OH267749   6.423   6.411   3.204 -0.0090 -0.3921 -0.4006
15445TIP3    H167750   6.453   6.404   3.113  0.4249 -1.4774 -0.1893
15445TIP3    H267751   6.412   6.321   3.232  1.6139 -0.1529  1.1813
15446TIP3   OH267752   3.812   4.819  12.719  0.4689 -0.4587 -0.1060
15446TIP3    H167753   3.816   4.757  12.646  2.5996 -1.9751  1.1737
15446TIP3    H267754   3.880   4.884  12.700 -0.6002  0.5551 -0.6003
15447TIP3   OH267755   1.766   1.434   5.403  0.1620  0.2957  0.5530
15447TIP3    H167756   1.828   1.369   5.367  1.0188  1.6940 -0.6368
15447TIP3    H267757   1.764   1.416   5.497  1.2837 -0.7052  0.4100
15448TIP3   OH267758   3.814   4.253   2.747  0.1703  0.3921  0.4988
15448TIP3    H167759   3.770   4.337   2.734 -0.1625  0.1524  0.0383
15448TIP3    H267760   3.746   4.194   2.778  0.1721  0.0368 -0.1521
15449TIP3   OH267761   4.976   4.521   0.166  0.0891 -0.3017  0.5779
15449TIP3    H167762   5.027   4.524   0.085  0.2864 -0.9062  0.6733
15449TIP3    H267763   4.892   4.483   0.140  0.0375 -0.2009  0.5973
15450TIP3   OH267764   3.505   1.787  15.576  0.0993 -0.1880  0.9591
15450TIP3    H167765   3.434   1.781  15.512  0.6457 -0.8621  0.3982
15450TIP3    H267766   3.508   1.700  15.617 -0.6105  0.3948  2.3264
15451TIP3   OH267767   5.098   1.952  12.281 -0.8767  0.1315  0.1167
15451TIP3    H167768   5.161   1.881  12.273 -0.7386  0.1982  0.6107
15451TIP3    H267769   5.082   1.961  12.375  1.3302  2.6479  0.3967
15452TIP3   OH267770   6.212   0.353   0.412  0.6295 -0.4205 -0.0623
15452TIP3    H167771   6.234   0.264   0.438  0.9835 -0.1144  0.7396
15452TIP3    H267772   6.165   0.344   0.329  0.7638 -1.3374 -0.0440
15453TIP3   OH267773   2.972   1.736  15.619  0.0607  0.7695  0.5033
15453TIP3    H167774   2.963   1.830  15.637  0.5395  0.4051  3.0177
15453TIP3    H267775   3.067   1.721  15.617 -0.0116  0.3436 -0.0080
15454TIP3   OH267776   5.391   3.403   5.659  0.2577  0.0643 -0.4068
15454TIP3    H167777   5.356   3.421   5.746 -2.2105 -1.7928 -0.9047
15454TIP3    H267778   5.461   3.339   5.675  0.7687  0.7670  0.2812
15455TIP3   OH267779   5.419   2.679  11.794 -0.1690 -0.0850  0.3508
15455TIP3    H167780   5.362   2.607  11.821  0.7022 -0.9854 -0.1237
15455TIP3    H267781   5.473   2.642  11.724  1.8738  0.3364  1.6181
15456TIP3   OH267782   0.742   5.817  13.093 -0.7548  0.3170  0.3551
15456TIP3    H167783   0.731   5.910  13.114  0.3457  0.6542 -0.4537
15456TIP3    H267784   0.712   5.808  13.003 -1.1727 -0.1841  0.5413
15457TIP3   OH267785   0.817   2.603   1.396  0.1185 -0.3671 -0.6360
15457TIP3    H167786   0.862   2.536   1.346  1.4947 -0.2307  0.3698
15457TIP3    H267787   0.870   2.682   1.385 -0.3981  0.0488 -0.2107
15458TIP3   OH267788   2.609   2.969   0.055 -0.1984 -0.7810  0.4642
15458TIP3    H167789   2.701   2.965   0.029 -0.1377 -1.3110  0.7435
15458TIP3    H267790   2.599   3.057   0.093  0.3016 -0.8738  0.8249
15459TIP3   OH267791   0.816   2.683  12.177 -0.0017 -0.2480  0.0905
15459TIP3    H167792   0.735   2.714  12.218  0.2304 -0.8237  1.0110
15459TIP3    H267793   0.829   2.596  12.214  1.6600  0.2973  0.8966
15460TIP3   OH267794   6.121   3.621   0.152  0.7330  0.0350 -1.0415
15460TIP3    H167795   6.057   3.690   0.132 -0.7680 -0.6803  0.9349
15460TIP3    H267796   6.079   3.541   0.120  1.8963 -0.1589 -2.1632
15461TIP3   OH267797   6.370   2.714   1.178  0.4078 -0.0404 -0.2492
15461TIP3    H167798   6.341   2.658   1.106  1.7141 -2.3352  0.8829
15461TIP3    H267799   6.458   2.741   1.153  0.8342 -0.7811  0.4017
15462TIP3   OH267800   4.215   3.409   3.360  0.0771 -0.4986  0.1747
15462TIP3    H167801   4.286   3.361   3.403  0.7270  1.0240  0.8731
15462TIP3    H267802   4.135   3.376   3.402  0.5467 -0.5383  1.0640
15463TIP3   OH267803   6.764   6.743   3.467 -0.0647 -0.1003 -0.9498
15463TIP3    H167804   6.841   6.689   3.449  0.6259  0.1604  0.9410
15463TIP3    H267805   6.766   6.812   3.402 -0.0638 -1.4273 -2.4146
15464TIP3   OH267806   3.657   6.207   3.132  0.2978  0.3604  0.1964
15464TIP3    H167807   3.752   6.197   3.141  0.3586 -0.1815 -0.8634
15464TIP3    H267808   3.622   6.192   3.220  1.1948  0.5610  0.5904
15465TIP3   OH267809   3.453   0.476  15.849  0.2161  0.0166 -0.2210
15465TIP3    H167810   3.501   0.512  15.925 -0.0981 -0.6267  0.2898
15465TIP3    H267811   3.365   0.511  15.858  0.3588  0.5068 -0.6873
15466TIP3   OH267812   3.598   1.682   3.031  0.3521 -0.2212 -0.4922
15466TIP3    H167813   3.525   1.709   3.087  0.0702 -0.1328 -0.8998
15466TIP3    H267814   3.558   1.624   2.966  0.4438  0.6872 -1.3832
15467TIP3   OH267815   2.078   0.383   4.315 -0.2065  0.0133 -0.1519
15467TIP3    H167816   2.122   0.409   4.234  0.0900 -0.3656 -0.1154
15467TIP3    H267817   2.075   0.462   4.368  0.1795  0.1053 -0.2698
15468TIP3   OH267818   6.224   4.593  12.590  0.6002 -0.3599  0.3789
15468TIP3    H167819   6.149   4.562  12.540  0.6240  0.6807 -0.3249
15468TIP3    H267820   6.245   4.521  12.650 -0.6582 -0.8452  0.2570
15469TIP3   OH267821   2.778   4.441  16.682  0.0588 -0.1400 -0.2801
15469TIP3    H167822   2.732   4.514  16.723 -0.2020 -0.5799  0.2088
15469TIP3    H267823   2.824   4.481  16.608  0.4003  0.6248  0.3350
15470TIP3   OH267824   3.789   0.213  14.076  0.1813  0.5159 -0.1900
15470TIP3    H167825   3.735   0.258  14.140 -1.2003 -0.6808 -0.4532
15470TIP3    H267826   3.790   0.271  14.000 -1.9035  0.0204 -0.6784
15471TIP3   OH267827   3.529   4.954  11.456 -0.2511  0.7199  0.2905
15471TIP3    H167828   3.449   5.007  11.460 -0.0727  0.9396  1.5678
15471TIP3    H267829   3.507   4.874  11.504 -1.2528 -1.4998 -3.4660
15472TIP3   OH267830   2.966   6.607  13.410  0.1314 -0.3222 -0.1275
15472TIP3    H167831   3.009   6.554  13.343  0.3773 -1.1628  0.6889
15472TIP3    H267832   3.037   6.638  13.466  0.0914  1.5473 -1.0289
15473TIP3   OH267833   1.227   6.343  14.851 -0.2413 -0.0934  0.4216
15473TIP3    H167834   1.269   6.257  14.850 -0.0974 -0.0231  0.5759
15473TIP3    H267835   1.287   6.400  14.804 -0.1366  0.0199  0.6924
15474TIP3   OH267836   4.821   2.875   5.804 -0.4270  0.6377 -0.4542
15474TIP3    H167837   4.879   2.825   5.861  1.2152  1.0579 -1.6646
15474TIP3    H267838   4.736   2.870   5.846 -0.0090 -1.8420  0.2808
15475TIP3   OH267839   2.652   3.874   1.730  0.1889 -0.0500 -0.3125
15475TIP3    H167840   2.747   3.872   1.736  0.2287  1.6706 -0.0349
15475TIP3    H267841   2.627   3.962   1.757 -1.4550 -0.2877 -0.9052
15476TIP3   OH267842   1.809   0.922  15.853  0.1895 -0.4588  0.1681
15476TIP3    H167843   1.838   0.871  15.778  0.1614  0.8864 -0.7780
15476TIP3    H267844   1.773   0.856  15.913  1.7043 -1.7345 -0.2471
15477TIP3   OH267845   5.341   5.087  14.945  0.4223 -0.4031 -0.0298
15477TIP3    H167846   5.291   5.021  14.992 -0.4479  0.0005 -0.3709
15477TIP3    H267847   5.419   5.040  14.914  0.8041 -0.7709  1.4140
15478TIP3   OH267848   5.295   4.029   0.380 -0.0497  0.0990  0.1071
15478TIP3    H167849   5.302   3.979   0.299  2.5883  2.3700 -1.2174
15478TIP3    H267850   5.212   4.076   0.372  0.8392  1.4442 -2.0969
15479TIP3   OH267851   1.820   6.183   2.442  0.3637  0.3123 -0.0571
15479TIP3    H167852   1.886   6.253   2.436 -0.4158  1.1047  0.3359
15479TIP3    H267853   1.863   6.113   2.491  0.9989  0.7149 -0.0325
15480TIP3   OH267854   0.573   5.275   4.126 -0.1544 -0.4902  0.3666
15480TIP3    H167855   0.568   5.370   4.135  0.9067 -0.3065 -0.6667
15480TIP3    H267856   0.644   5.248   4.184 -1.0057 -0.7747  1.2990
15481TIP3   OH267857   4.088   5.036   3.990  0.0108 -0.3912  0.3907
15481TIP3    H167858   4.174   5.054   4.028  1.1808 -3.0314 -0.7292
15481TIP3    H267859   4.038   4.997   4.061 -0.2221  0.9835  0.9991
15482TIP3   OH267860   5.205   0.051   5.372  0.2578  0.5400 -0.4371
15482TIP3    H167861   5.264   0.063   5.297  2.2340  1.2346  1.1147
15482TIP3    H267862   5.227   0.124   5.430 -0.8454 -0.2658  1.0291
15483TIP3   OH267863   5.478   4.949  16.353 -0.8535  0.1910 -0.3907
15483TIP3    H167864   5.470   5.014  16.283 -0.3846 -0.4377 -1.0401
15483TIP3    H267865   5.479   5.001  16.434 -1.4929  0.9207 -0.8381
15484TIP3   OH267866   5.744   3.982   4.363  0.3667  0.3907 -0.7591
15484TIP3    H167867   5.692   3.962   4.440  0.1956 -1.7359 -1.3528
15484TIP3    H267868   5.715   4.069   4.335 -0.0196  0.9185  1.1665
15485TIP3   OH267869   0.243   2.929  15.495  0.0613  0.5053 -0.0392
15485TIP3    H167870   0.165   2.948  15.442 -0.9509 -1.1655  0.7451
15485TIP3    H267871   0.209   2.878  15.568  1.6968  1.1792  1.2303
15486TIP3   OH267872   2.716   4.943   2.301  0.4960  0.4045  0.0235
15486TIP3    H167873   2.767   4.880   2.251 -0.4548 -1.4033  1.2336
15486TIP3    H267874   2.773   4.968   2.374  0.9303  1.0961 -0.5401
15487TIP3   OH267875   5.166   1.833   5.054 -0.1137  0.0608  0.0520
15487TIP3    H167876   5.186   1.803   5.143 -2.3077 -0.8562  0.2939
15487TIP3    H267877   5.172   1.928   5.059  4.8880  0.0280 -0.1890
15488TIP3   OH267878   2.103   0.014   3.807  0.6835 -0.1444  0.3988
15488TIP3    H167879   2.053   0.056   3.737  0.3046  0.9050  1.2668
15488TIP3    H267880   2.067  -0.075   3.812  1.4983 -0.6363 -1.4718
15489TIP3   OH267881   0.365   1.709   0.056  0.0143 -0.4201  0.1957
15489TIP3    H167882   0.341   1.694  -0.035  0.5078  0.7763 -0.1509
15489TIP3    H267883   0.361   1.804   0.067 -0.9367 -0.5921  1.6768
15490TIP3   OH267884   2.425   4.691   3.649 -0.2045  0.3116  0.0152
15490TIP3    H167885   2.471   4.759   3.601 -0.5580  1.9343  1.8366
15490TIP3    H267886   2.491   4.652   3.706 -0.2318 -0.1996 -0.2902
15491TIP3   OH267887   1.115   1.817  15.764 -0.1530  0.8488 -0.9157
15491TIP3    H167888   1.023   1.797  15.785 -0.1098 -0.8824 -2.2429
15491TIP3    H267889   1.166   1.767  15.827 -0.0772  1.7577 -0.2232
15492TIP3   OH267890   5.443   0.508  14.631 -0.4250  0.1953 -0.1178
15492TIP3    H167891   5.374   0.566  14.598 -1.3398 -0.3426  0.8053
15492TIP3    H267892   5.513   0.567  14.659  0.4685  0.6819 -3.0755
15493TIP3   OH267893   3.530   1.869   3.463  0.7485  0.4605  0.2509
15493TIP3    H167894   3.601   1.812   3.494 -0.8145 -2.0585 -0.4939
15493TIP3    H267895   3.465   1.866   3.534 -0.6675 -1.2816 -1.0241
15494TIP3   OH267896   3.485   2.780  15.514 -0.4160  0.1974  0.4446
15494TIP3    H167897   3.524   2.713  15.458 -1.5755  0.2462 -0.4650
15494TIP3    H267898   3.481   2.739  15.601 -1.8534 -1.2893 -0.2506
15495TIP3   OH267899   4.724   6.763  14.985 -0.3530  0.0018  0.1070
15495TIP3    H167900   4.783   6.812  14.927  1.6744 -0.1559  1.8805
15495TIP3    H267901   4.667   6.830  15.023  0.0826  0.4948 -0.0830
15496TIP3   OH267902   6.166   2.878   1.302  0.4629  0.0332 -0.1734
15496TIP3    H167903   6.233   2.813   1.283 -0.2839 -0.3356 -1.7334
15496TIP3    H267904   6.196   2.958   1.258 -0.0198 -0.0909 -0.7471
15497TIP3   OH267905   1.504   5.193   6.228  0.3561  0.4784  0.3890
15497TIP3    H167906   1.427   5.187   6.283  0.1383  1.5488  0.2351
15497TIP3    H267907   1.472   5.229   6.145  0.9718  0.6783  0.2265
15498TIP3   OH267908   4.204   0.257  13.016 -0.0728  0.3838 -0.3241
15498TIP3    H167909   4.138   0.324  13.037 -1.0016  0.5217 -3.2818
15498TIP3    H267910   4.260   0.299  12.951  0.9401 -0.8820 -0.2932
15499TIP3   OH267911   3.123   2.682  14.770 -0.6109 -0.0564  0.2374
15499TIP3    H167912   3.093   2.757  14.821  0.1274  0.0567  0.5084
15499TIP3    H267913   3.217   2.694  14.762 -0.5786 -0.6136 -0.2802
15500TIP3   OH267914   0.523   4.267   4.678  0.4315  0.1916  0.0347
15500TIP3    H167915   0.454   4.225   4.729 -0.3090  0.3023 -0.8655
15500TIP3    H267916   0.600   4.213   4.693 -0.5101 -1.5521 -1.1565
15501TIP3   OH267917   4.530   1.379  14.022  0.0802 -0.0884 -0.1292
15501TIP3    H167918   4.581   1.414  14.095 -1.0017  1.5177 -0.0824
15501TIP3    H267919   4.469   1.317  14.063  1.0449 -0.9810 -0.0109
15502TIP3   OH267920   0.914   5.525   4.724 -0.5918 -0.3644 -0.5524
15502TIP3    H167921   0.871   5.607   4.749 -1.1504 -0.6910 -0.4195
15502TIP3    H267922   0.845   5.459   4.731  0.1506 -1.0671  0.6130
15503TIP3   OH267923   5.394   1.437   0.931 -0.5808  0.6097 -0.1081
15503TIP3    H167924   5.317   1.466   0.883  0.1751  1.3032 -0.9525
15503TIP3    H267925   5.424   1.359   0.885 -0.9346  0.1783  0.3880
15504TIP3   OH267926   5.847   0.530   5.036 -0.8721  0.7070  0.0797
15504TIP3    H167927   5.922   0.481   5.001 -1.0237 -1.2120  2.1468
15504TIP3    H267928   5.861   0.620   5.008 -0.1760 -0.3322 -3.3588
15505TIP3   OH267929   1.285   3.305  11.772 -0.2937  0.1090  0.3908
15505TIP3    H167930   1.287   3.306  11.867 -1.7121 -0.6582  0.4596
15505TIP3    H267931   1.286   3.212  11.748 -1.6022  0.2304 -0.2524
15506TIP3   OH267932   2.136   3.810   4.816  0.2725  0.5496 -0.0391
15506TIP3    H167933   2.078   3.862   4.872  1.0656  0.7043  0.6561
15506TIP3    H267934   2.098   3.817   4.728 -1.0020  0.2985  0.4695
15507TIP3   OH267935   4.981   0.935   0.750 -0.1553 -0.1215 -0.1644
15507TIP3    H167936   5.028   0.931   0.667  0.9644 -0.7147  0.4638
15507TIP3    H267937   4.892   0.905   0.729 -0.0865  0.3960 -1.2558
15508TIP3   OH267938   2.077   2.179   3.181 -0.2201 -0.4022  0.6141
15508TIP3    H167939   2.115   2.138   3.259 -0.8506 -2.2092  0.0386
15508TIP3    H267940   2.109   2.124   3.109 -3.1417 -1.4806  0.0292
15509TIP3   OH267941   3.380   6.270  13.708 -0.0349  0.2807  0.4887
15509TIP3    H167942   3.405   6.300  13.621  1.9663 -1.5102  0.3644
15509TIP3    H267943   3.414   6.181  13.714 -1.2182 -0.1266  2.6680
15510TIP3   OH267944   0.617   3.137  11.960  0.9982  0.3154 -0.5125
15510TIP3    H167945   0.569   3.124  11.878 -1.8597  2.4116  0.6738
15510TIP3    H267946   0.662   3.221  11.948  1.1952  0.2493 -0.2312
15511TIP3   OH267947   3.058   0.038   5.668  0.1994  0.1632 -0.6440
15511TIP3    H167948   2.968   0.066   5.652 -0.4128 -1.3428 -0.0391
15511TIP3    H267949   3.059   0.010   5.759  0.3661 -2.8541 -1.4538
15512TIP3   OH267950   5.392   2.130   3.523 -0.3459 -0.2557  0.1449
15512TIP3    H167951   5.483   2.158   3.525 -0.2576 -0.4448 -0.7094
15512TIP3    H267952   5.394   2.038   3.550  0.1659 -1.2595 -2.9034
15513TIP3   OH267953   0.871   3.541   6.601  0.2481  0.1197  0.4754
15513TIP3    H167954   0.954   3.532   6.555 -0.2422 -4.3473 -0.0360
15513TIP3    H267955   0.885   3.501   6.686 -1.1195  0.0783  0.7125
15514TIP3   OH267956   4.334   3.392  15.940 -0.0651 -0.0649  0.1390
15514TIP3    H167957   4.279   3.314  15.933 -0.7282  0.3525  0.5548
15514TIP3    H267958   4.402   3.380  15.874 -0.2981 -0.8827  0.0426
15515TIP3   OH267959   1.446   2.223  15.323 -0.2217  0.6659 -0.0191
15515TIP3    H167960   1.401   2.160  15.379  1.7494  0.1907  1.1331
15515TIP3    H267961   1.384   2.295  15.313 -1.0517  0.2706  1.9117
15516TIP3   OH267962   0.170   3.812   0.189 -0.0892  0.0201 -0.3634
15516TIP3    H167963   0.198   3.789   0.100  1.3998 -0.3471  0.1818
15516TIP3    H267964   0.237   3.872   0.221 -0.0789 -0.6051  0.8544
15517TIP3   OH267965   2.231   5.585   4.170  0.5114 -0.0875  0.2631
15517TIP3    H167966   2.325   5.569   4.172  0.5062 -0.0795  0.5399
15517TIP3    H267967   2.208   5.605   4.260  0.2000 -0.3310  0.2375
15518TIP3   OH267968   2.361   0.435  16.680  0.2581 -0.6650  0.4795
15518TIP3    H167969   2.334   0.343  16.690 -2.8204  0.2164  1.1614
15518TIP3    H267970   2.340   0.475  16.763  1.9317  0.6573  0.3238
15519TIP3   OH267971   6.512   3.547  14.298  0.2951  0.2589  0.7533
15519TIP3    H167972   6.513   3.626  14.353  0.5833  0.2618  0.7475
15519TIP3    H267973   6.478   3.478  14.355  0.8924  0.1931  1.0357
15520TIP3   OH267974   6.552   3.167  12.854  0.3286  0.6809 -0.0512
15520TIP3    H167975   6.569   3.082  12.814 -2.0860 -0.0216  0.2666
15520TIP3    H267976   6.549   3.150  12.948  0.5181  1.2740  0.0707
15521TIP3   OH267977   5.399   6.611   0.864  0.2205 -0.7705 -0.1383
15521TIP3    H167978   5.398   6.518   0.841  0.6709 -0.6720 -0.5671
15521TIP3    H267979   5.484   6.643   0.833  1.0038 -0.6953  1.9552
15522TIP3   OH267980   0.871   5.034   2.877 -0.2678  0.5330  0.2404
15522TIP3    H167981   0.785   4.992   2.873  0.4634 -1.1292  0.8040
15522TIP3    H267982   0.857   5.115   2.926 -1.5182  0.3369  0.2306
15523TIP3   OH267983   1.639   0.349   6.275  0.0187  0.4119 -0.0988
15523TIP3    H167984   1.601   0.348   6.363  0.4332 -0.2008  0.0804
15523TIP3    H267985   1.566   0.374   6.218 -0.6633 -0.7238  0.2405
15524TIP3   OH267986   3.800   4.858   5.670  0.1175 -0.1088  0.3069
15524TIP3    H167987   3.836   4.941   5.701  0.3590  0.4458 -1.3460
15524TIP3    H267988   3.875   4.800   5.663 -0.0084 -0.3893  1.1817
15525TIP3   OH267989   4.919   0.123   3.125 -0.2478 -0.4153 -0.2003
15525TIP3    H167990   4.908   0.065   3.049  1.1718 -1.3473  0.2671
15525TIP3    H267991   4.837   0.173   3.129 -1.0875 -1.6389 -1.2516
15526TIP3   OH267992   3.218   2.649   0.657 -0.0671  0.4716  0.4494
15526TIP3    H167993   3.311   2.650   0.635 -0.3143  1.5732 -0.6679
15526TIP3    H267994   3.197   2.557   0.668  0.8282  0.0842 -0.8160
15527TIP3   OH267995   4.496   0.361  12.894  0.1789 -0.3460 -0.1450
15527TIP3    H167996   4.568   0.298  12.899 -0.6533 -1.2491  0.7882
15527TIP3    H267997   4.521   0.419  12.822  0.6453 -2.1446 -1.5272
15528TIP3   OH267998   0.126   1.398   6.053 -0.3342  0.0464 -0.4604
15528TIP3    H167999   0.188   1.444   6.110  0.8081 -0.0921 -1.5485
15528TIP3    H268000   0.150   1.306   6.062  1.1229  0.1546 -2.5362
15529TIP3   OH268001   3.292   3.213  16.910 -0.0765 -0.0897  0.4854
15529TIP3    H168002   3.322   3.133  16.866 -0.3043 -0.4986  1.0543
15529TIP3    H268003   3.361   3.234  16.972 -0.0723  0.0848  0.4216
15530TIP3   OH268004   2.632   5.204   4.630 -0.4340  0.1161  0.0515
15530TIP3    H168005   2.688   5.131   4.658  0.0905  0.0268 -1.1594
15530TIP3    H268006   2.647   5.210   4.535 -0.0118  2.1545  0.1999
15531TIP3   OH268007   4.068   3.292  12.900  0.8021 -0.2903 -0.0572
15531TIP3    H168008   3.980   3.330  12.891  0.6571 -0.6032  0.0084
15531TIP3    H268009   4.053   3.197  12.894  1.2365 -0.3105 -0.8178
15532TIP3   OH268010   0.956   0.532   4.803 -0.0768  0.6481  0.6697
15532TIP3    H168011   0.952   0.524   4.707 -0.1326 -0.2429  0.7375
15532TIP3    H268012   1.017   0.603   4.819  0.8402  0.0331 -0.0162
15533TIP3   OH268013   0.841   0.794   3.200 -0.1711 -0.4258 -0.3735
15533TIP3    H168014   0.874   0.707   3.175 -0.3473 -1.0490  1.4188
15533TIP3    H268015   0.749   0.793   3.173 -0.5991 -1.4169  1.0060
15534TIP3   OH268016   2.241   2.500  13.413 -0.3020  0.5906 -0.1724
15534TIP3    H168017   2.253   2.512  13.319  1.8246 -3.5000 -0.6392
15534TIP3    H268018   2.328   2.516  13.450  0.1664 -2.4859  0.3115
15535TIP3   OH268019   3.109   2.531  13.494 -0.3421  0.5249  0.4042
15535TIP3    H168020   3.192   2.487  13.514 -0.4901 -0.0284 -0.1788
15535TIP3    H268021   3.108   2.606  13.553  0.6184  0.5962  0.3532
15536TIP3   OH268022   4.775   0.393  11.676  0.1754 -0.6086 -0.2784
15536TIP3    H168023   4.782   0.391  11.580 -0.0902 -0.2091 -0.3123
15536TIP3    H268024   4.750   0.484  11.695  1.6902 -0.2799  0.2738
15537TIP3   OH268025   5.420   5.909  11.901 -0.8680 -0.6108  0.2162
15537TIP3    H168026   5.339   5.936  11.944 -1.5710 -0.4539 -1.1462
15537TIP3    H268027   5.391   5.874  11.817  0.4886 -0.5256 -0.3031
15538TIP3   OH268028   1.054   2.975  15.182  0.1117 -0.0230 -0.1248
15538TIP3    H168029   1.077   3.010  15.095 -1.4151 -0.3179 -0.6827
15538TIP3    H268030   0.958   2.968  15.180 -0.1643  1.9552  2.3620
15539TIP3   OH268031   6.145   0.552  16.365 -0.2590  0.2814 -0.1178
15539TIP3    H168032   6.223   0.572  16.313 -0.9103 -0.5355 -1.4518
15539TIP3    H268033   6.075   0.602  16.324 -0.3152  1.7265  1.6168
15540TIP3   OH268034   1.458   3.209  13.859 -0.2690 -0.0949 -0.3219
15540TIP3    H168035   1.504   3.137  13.816 -1.3447 -0.5248 -0.7800
15540TIP3    H268036   1.368   3.179  13.867 -0.8758  1.4273 -1.0605
15541TIP3   OH268037   2.110   2.695  15.038  0.2860  0.7452 -0.3238
15541TIP3    H168038   2.134   2.629  15.104 -1.5456  1.2804  0.9716
15541TIP3    H268039   2.192   2.714  14.993  1.0691 -1.7126 -0.1214
15542TIP3   OH268040   2.538   2.099  15.389 -0.2183  0.1029 -0.1811
15542TIP3    H168041   2.633   2.109  15.383 -0.1774 -0.4300 -0.4329
15542TIP3    H268042   2.505   2.189  15.390  0.3750  0.3333  1.3412
15543TIP3   OH268043   3.103   2.126   2.024  0.1756  0.0632 -0.0969
15543TIP3    H168044   3.152   2.050   2.058  0.9020 -0.1427 -1.5200
15543TIP3    H268045   3.170   2.181   1.984 -0.3536  1.4670  0.8879
15544TIP3   OH268046   0.619   4.874   5.701  0.5783  0.3400 -0.4656
15544TIP3    H168047   0.535   4.874   5.747  0.9743 -1.4639  0.3289
15544TIP3    H268048   0.606   4.814   5.627  1.1226  0.1744 -0.4282
15545TIP3   OH268049   4.692   0.856   2.684  0.1918  0.2356 -0.1164
15545TIP3    H168050   4.704   0.761   2.687 -0.0058  0.1900 -0.6049
15545TIP3    H268051   4.780   0.892   2.677  0.3117  0.1243  0.7734
15546TIP3   OH268052   5.208   1.415   2.786  0.0030  0.1763 -0.3575
15546TIP3    H168053   5.231   1.401   2.695  0.0366  1.7766 -0.6329
15546TIP3    H268054   5.134   1.357   2.802  1.0489 -1.3794 -0.8800
15547TIP3   OH268055   4.620   2.549  11.444 -0.4314  0.0130  0.6021
15547TIP3    H168056   4.698   2.533  11.392  0.9679 -0.4573  2.6912
15547TIP3    H268057   4.619   2.478  11.509 -2.3480  0.2692  0.9297
15548TIP3   OH268058   5.958   2.438   6.458  0.3848  0.1789  0.2727
15548TIP3    H168059   5.907   2.360   6.478 -0.0729 -0.1917 -2.0764
15548TIP3    H268060   6.047   2.406   6.444  0.2397  0.0933 -0.4844
15549TIP3   OH268061   6.574   5.705  13.150  0.0729  0.0023 -0.2338
15549TIP3    H168062   6.481   5.693  13.169  0.2798 -1.7567 -0.2309
15549TIP3    H268063   6.604   5.767  13.216 -0.3371 -2.1608  2.1129
15550TIP3   OH268064   1.424   4.173   5.909 -0.1062  0.5134  0.3910
15550TIP3    H168065   1.502   4.152   5.857 -0.6682 -1.9326  0.3816
15550TIP3    H268066   1.434   4.121   5.989 -0.5661  2.1069  1.5203
15551TIP3   OH268067   2.752   3.373   4.143 -0.1266  0.0223  0.3620
15551TIP3    H168068   2.834   3.333   4.172 -0.6825 -1.1513  0.4119
15551TIP3    H268069   2.730   3.326   4.062  0.7580  2.3848 -1.3547
15552TIP3   OH268070   4.083   0.463  14.675  0.1808  0.3865 -0.1092
15552TIP3    H168071   4.078   0.470  14.580 -0.5244 -0.3926 -0.1366
15552TIP3    H268072   4.001   0.421  14.701  0.3912  0.5354  0.8358
15553TIP3   OH268073   2.654   1.908   4.181  0.0609  0.1432 -0.3634
15553TIP3    H168074   2.592   1.866   4.121 -0.2745 -1.2853  0.9147
15553TIP3    H268075   2.707   1.836   4.215 -1.2580  0.4824  2.7447
15554TIP3   OH268076   0.997   1.183  13.907 -0.0623 -0.2369  0.1347
15554TIP3    H168077   0.920   1.140  13.943  0.3993 -0.3698  0.9846
15554TIP3    H268078   1.054   1.198  13.982  1.1091 -0.9126 -0.5805
15555TIP3   OH268079   1.162   4.995  14.790 -0.7782  0.0402 -0.2489
15555TIP3    H168080   1.183   4.902  14.799  1.2066  0.5937  1.7156
15555TIP3    H268081   1.094   5.011  14.855  0.9890  0.4696  1.6109
15556TIP3   OH268082   3.323   5.379   4.901 -0.3786 -0.3312  0.4958
15556TIP3    H168083   3.371   5.330   4.967 -1.6284  0.4697  2.0498
15556TIP3    H268084   3.388   5.398   4.833  1.5526  0.7826  2.5288
15557TIP3   OH268085   4.816   2.673  12.675  0.2426 -0.0268  0.0115
15557TIP3    H168086   4.817   2.585  12.636  0.6878  0.1649 -0.4233
15557TIP3    H268087   4.761   2.724  12.615 -1.1335 -0.3160  0.9776
15558TIP3   OH268088   4.113   6.798  13.056  0.4483  0.8635 -0.3198
15558TIP3    H168089   4.138   6.889  13.038  1.0683  0.6086 -0.7563
15558TIP3    H268090   4.134   6.785  13.149 -1.3339  1.7095  0.2478
15559TIP3   OH268091   6.174   2.634   6.774 -0.4186 -0.4014 -0.3295
15559TIP3    H168092   6.262   2.639   6.811 -0.0586 -1.4624 -0.9919
15559TIP3    H268093   6.140   2.549   6.804  0.0182 -1.4549 -2.6306
15560TIP3   OH268094   5.973   2.981   5.665  0.2142 -0.3035 -0.2165
15560TIP3    H168095   6.051   2.927   5.678  0.0931 -0.4519 -0.0986
15560TIP3    H268096   6.007   3.067   5.642  0.4105 -0.4135 -0.3459
15561TIP3   OH268097   6.618   1.789   1.339  0.0627  0.6620 -0.2434
15561TIP3    H168098   6.643   1.868   1.292  0.0845  1.8177  1.5936
15561TIP3    H268099   6.699   1.760   1.382  0.7289 -1.9555 -2.9419
15562TIP3   OH268100   6.641   3.403  12.414 -0.1786  0.1169  0.6345
15562TIP3    H168101   6.662   3.487  12.455  1.6130 -0.6672  1.4246
15562TIP3    H268102   6.616   3.346  12.487 -1.1001 -0.1365  0.1341
15563TIP3   OH268103   0.262   4.068   0.033 -0.0510  0.0296 -0.4336
15563TIP3    H168104   0.244   4.140  -0.027  0.9586 -0.2709 -1.1189
15563TIP3    H268105   0.319   4.010  -0.016  0.7158 -0.2711  0.7882
15564TIP3   OH268106   3.575   2.608  13.433  0.0927  0.1729 -0.2198
15564TIP3    H168107   3.542   2.693  13.463 -0.1258  0.6307 -1.6364
15564TIP3    H268108   3.647   2.587  13.493  0.2518  1.4469  0.0669
15565TIP3   OH268109   5.595   0.307  17.027 -0.6388 -0.6965  0.5137
15565TIP3    H168110   5.682   0.270  17.011 -0.3122 -0.3238  1.3613
15565TIP3    H268111   5.601   0.346  17.114 -0.2182  3.4262 -1.1498
15566TIP3   OH268112   3.658   4.828   3.298 -0.1899 -0.1091 -0.6703
15566TIP3    H168113   3.618   4.748   3.333 -0.3747 -0.5576 -1.8630
15566TIP3    H268114   3.628   4.832   3.207  1.8652 -0.0543 -1.3858
15567TIP3   OH268115   4.283   6.244  16.990  0.3203 -0.6617 -0.3638
15567TIP3    H168116   4.285   6.220  17.082  1.5904 -0.9143 -0.4351
15567TIP3    H268117   4.338   6.322  16.984 -0.2027 -0.3237 -0.8177
15568TIP3   OH268118   3.435   2.221  16.719 -0.2101 -0.2921  0.7931
15568TIP3    H168119   3.436   2.311  16.687  1.3172 -0.5502  0.0589
15568TIP3    H268120   3.349   2.188  16.694 -0.9104  1.0360  1.3299
15569TIP3   OH268121   5.731   1.903   0.848  0.3249  0.1880 -0.3286
15569TIP3    H168122   5.654   1.935   0.801  0.3383  1.0954  0.2343
15569TIP3    H268123   5.803   1.917   0.787  0.2588  0.8120 -0.2738
15570TIP3   OH268124   4.385   5.270  12.368 -0.0349  0.0621 -0.5350
15570TIP3    H168125   4.439   5.297  12.294  3.1819  0.3002  1.6685
15570TIP3    H268126   4.400   5.176  12.376  0.0965  0.1338  0.1181
15571TIP3   OH268127   6.213   2.990   4.415  0.5123  0.0252  0.1708
15571TIP3    H168128   6.164   2.922   4.368  1.5299 -0.4403 -0.2334
15571TIP3    H268129   6.204   3.068   4.360 -1.6035  0.5646  1.1882
15572TIP3   OH268130   1.486   0.381  11.653  0.9193  0.3135 -0.0576
15572TIP3    H168131   1.548   0.436  11.701  0.0606  0.6499  0.6883
15572TIP3    H268132   1.478   0.424  11.568  1.4196  0.4775 -0.0251
15573TIP3   OH268133   4.639   3.574   4.596  0.2358  0.0578  0.3551
15573TIP3    H168134   4.644   3.483   4.624  1.7342 -0.3522 -1.1285
15573TIP3    H268135   4.546   3.595   4.600 -0.0661 -1.3212  1.3253
15574TIP3   OH268136   5.007   0.537  17.025  0.5906 -0.3601  0.0634
15574TIP3    H168137   5.040   0.621  17.059  0.5350  0.6130 -2.0799
15574TIP3    H268138   5.086   0.490  16.997  0.6351 -1.1372  1.4250
15575TIP3   OH268139   3.799   3.085  17.120  0.0485 -0.4969 -0.9360
15575TIP3    H168140   3.801   3.012  17.183 -1.0730  0.4047  0.2010
15575TIP3    H268141   3.890   3.100  17.098  0.5575 -0.3485  1.0928
15576TIP3   OH268142   5.837   5.496   3.067  0.5642 -0.2913 -0.2335
15576TIP3    H168143   5.827   5.407   3.100 -0.2089  0.1557  0.8151
15576TIP3    H268144   5.873   5.545   3.141  0.3643  0.3983 -0.5804
15577TIP3   OH268145   0.378   2.214  16.738  0.4633 -0.1525 -0.2834
15577TIP3    H168146   0.439   2.233  16.810  1.3203 -1.1368 -0.7286
15577TIP3    H268147   0.326   2.294  16.729 -0.6111 -0.4603  2.3277
15578TIP3   OH268148   2.434   4.061   0.317 -0.0500  0.4262  0.4611
15578TIP3    H168149   2.387   3.997   0.263  1.1963  0.4183 -0.6757
15578TIP3    H268150   2.395   4.145   0.294 -1.4149  0.1634  1.6575
15579TIP3   OH268151   5.317   5.063  12.026 -0.0937  0.0967 -0.5207
15579TIP3    H168152   5.342   4.997  11.961 -1.7781 -0.5524 -0.5492
15579TIP3    H268153   5.221   5.063  12.024 -0.1668  0.5365  1.5037
15580TIP3   OH268154   5.005   2.171   2.820 -0.1706  0.0679 -0.0677
15580TIP3    H168155   4.965   2.152   2.735  0.8243 -0.5887 -0.4043
15580TIP3    H268156   5.018   2.085   2.860 -0.2760  0.3515  0.5867
15581TIP3   OH268157   0.972   1.452   3.805  0.3744  0.1223  0.2583
15581TIP3    H168158   0.923   1.420   3.881 -0.4247  1.0559  0.1605
15581TIP3    H268159   0.939   1.541   3.791 -1.0162 -0.7248 -2.4786
15582TIP3   OH268160   1.417   4.882   5.662 -0.3433 -0.0917 -1.0241
15582TIP3    H168161   1.416   4.977   5.669 -2.6435 -0.0270 -1.3595
15582TIP3    H268162   1.425   4.851   5.752 -3.2613  0.5166 -0.4550
15583TIP3   OH268163   1.340   0.371   1.589  0.1772 -0.3420 -0.4152
15583TIP3    H168164   1.408   0.381   1.522  0.4880  0.7125  0.0351
15583TIP3    H268165   1.331   0.458   1.626  0.9264 -1.1514  1.8006
15584TIP3   OH268166   4.913   1.959  14.724 -0.0453 -0.2133 -0.9788
15584TIP3    H168167   4.905   1.879  14.671  2.0502 -0.1758 -1.4404
15584TIP3    H268168   4.918   1.927  14.814  2.1948 -0.7802 -1.2495
15585TIP3   OH268169   0.581   2.161  14.026 -0.2438 -0.2542 -0.5925
15585TIP3    H168170   0.562   2.201  14.111 -0.1082  1.2469 -1.2178
15585TIP3    H268171   0.643   2.091  14.045  0.2580  0.4543  0.4884
15586TIP3   OH268172   2.825   5.814   2.323  0.0604 -0.1208 -0.2014
15586TIP3    H168173   2.914   5.830   2.356 -0.8503  1.7312  1.5580
15586TIP3    H268174   2.796   5.899   2.292 -1.2422 -0.6147 -0.3665
15587TIP3   OH268175   0.683   6.372   6.235  0.1756 -0.6949  0.2109
15587TIP3    H168176   0.752   6.322   6.279 -1.9088 -1.6491  2.7356
15587TIP3    H268177   0.630   6.306   6.191  1.1417  0.0868 -2.2555
15588TIP3   OH268178   6.271   1.886   0.818 -0.1254  0.2843 -0.3784
15588TIP3    H168179   6.359   1.923   0.809 -0.1793  0.9412  1.3960
15588TIP3    H268180   6.237   1.925   0.898 -0.9473 -2.1394  0.5383
15589TIP3   OH268181   3.106   1.345   6.010  0.8016  0.3088  0.3071
15589TIP3    H168182   3.182   1.377   6.059  1.2642 -1.9853  1.2194
15589TIP3    H268183   3.049   1.305   6.076 -0.8832  1.3272 -0.4562
15590TIP3   OH268184   0.934   0.268   0.455 -0.5545  0.2402  0.1060
15590TIP3    H168185   0.930   0.257   0.360 -2.2250  2.8776 -0.2424
15590TIP3    H268186   0.843   0.254   0.484 -1.2703  4.4284  0.4898
15591TIP3   OH268187   4.563   6.730  11.164  0.2454 -0.3743  0.1275
15591TIP3    H168188   4.630   6.790  11.197 -0.5122  0.0923  0.8499
15591TIP3    H268189   4.528   6.688  11.242  0.7742 -1.7995 -0.3667
15592TIP3   OH268190   6.314   2.279   3.523 -0.0899  0.4431  0.1122
15592TIP3    H168191   6.342   2.322   3.604 -0.1598 -0.1257  0.4479
15592TIP3    H268192   6.262   2.204   3.553  0.3068 -0.0656 -0.4454
15593TIP3   OH268193   6.506   2.865   2.943  1.1840  0.4025  0.4364
15593TIP3    H168194   6.508   2.770   2.956  0.5998  0.2001 -0.8651
15593TIP3    H268195   6.464   2.899   3.021  1.4627 -0.3979  0.9490
15594TIP3   OH268196   4.715   5.161  11.509  0.4284 -0.0299  0.2473
15594TIP3    H168197   4.753   5.233  11.458 -0.4470  0.4353  0.2262
15594TIP3    H268198   4.724   5.085  11.452 -2.9755  0.9407 -1.9387
15595TIP3   OH268199   2.786   4.620  11.493  0.2169 -0.2865  0.2239
15595TIP3    H168200   2.759   4.685  11.427 -0.4805  0.6054  1.3593
15595TIP3    H268201   2.706   4.573  11.515 -0.5763  2.2409  3.4728
15596TIP3   OH268202   0.278   3.786   1.350  0.5815 -0.1536 -0.0666
15596TIP3    H168203   0.239   3.818   1.269  2.7108  0.5970 -0.8475
15596TIP3    H268204   0.369   3.767   1.328  0.5338 -2.6228  1.4740
15597TIP3   OH268205   0.005   3.859  15.779 -0.3007  0.5615  0.6265
15597TIP3    H168206   0.080   3.848  15.721  0.5606 -0.1751  1.8231
15597TIP3    H268207   0.043   3.891  15.861 -0.8862 -2.1447  2.0950
15598TIP3   OH268208   4.320   3.801   5.790 -0.2743  0.3230  0.2490
15598TIP3    H168209   4.256   3.730   5.794  0.4324 -0.2739  1.9254
15598TIP3    H268210   4.391   3.766   5.736 -1.6163  1.2672 -2.2644
15599TIP3   OH268211   4.206   5.961  10.718 -0.1203 -0.1692  0.3257
15599TIP3    H168212   4.209   5.889  10.656  1.2536 -0.5206  0.7484
15599TIP3    H268213   4.115   5.990  10.718  0.0167  0.5826 -2.6641
15600TIP3   OH268214   1.911   6.186  12.424  0.2554 -0.2174 -0.2404
15600TIP3    H168215   1.943   6.098  12.405  0.0990 -0.1600 -0.7645
15600TIP3    H268216   1.877   6.219  12.341  2.3120  1.1959 -0.6000
15601TIP3   OH268217   4.119   6.076   2.242 -0.2792 -0.0235 -0.2371
15601TIP3    H168218   4.089   6.115   2.323 -0.2238 -0.5774  0.0596
15601TIP3    H268219   4.212   6.057   2.257  0.8880  3.5513 -1.8594
15602TIP3   OH268220   2.002   0.894   1.104  0.7420 -0.3116 -0.1925
15602TIP3    H168221   1.931   0.944   1.064  0.4972 -0.5862 -0.1034
15602TIP3    H268222   2.009   0.930   1.192  0.9892 -0.0062 -0.3323
15603TIP3   OH268223   6.130   0.691  11.082 -0.1126 -0.1089 -0.3208
15603TIP3    H168224   6.169   0.737  11.007  0.4392  0.0212  0.0390
15603TIP3    H268225   6.054   0.645  11.045 -1.7010  2.4159 -0.3848
15604TIP3   OH268226   1.773   3.559  13.631  0.6954 -0.3240  0.0924
15604TIP3    H168227   1.862   3.587  13.608  0.3251  0.4443 -0.4407
15604TIP3    H268228   1.786   3.491  13.697  1.7192 -1.0688 -0.8391
15605TIP3   OH268229   6.060   4.352   5.803 -0.2009  0.1928  0.0671
15605TIP3    H168230   5.971   4.332   5.774  0.2840  1.5984 -2.7744
15605TIP3    H268231   6.068   4.309   5.888 -3.4857 -0.1910  0.3177
15606TIP3   OH268232   5.195   0.849  13.918 -0.9260 -0.2149 -0.0442
15606TIP3    H168233   5.267   0.844  13.981 -2.3623  0.2243  1.6911
15606TIP3    H268234   5.165   0.759  13.908 -1.8728 -0.0911  1.3753
15607TIP3   OH268235   4.603   6.117  16.858  0.1842  0.8531 -0.0206
15607TIP3    H168236   4.605   6.106  16.953  0.5336 -0.0779 -0.1341
15607TIP3    H268237   4.635   6.034  16.823 -1.7668  0.4546 -1.0008
15608TIP3   OH268238   1.781   5.060   2.624  0.1231  0.2654 -0.3318
15608TIP3    H168239   1.731   4.985   2.594 -0.2687  0.0028  0.9295
15608TIP3    H268240   1.716   5.130   2.636  0.4711  0.7952 -1.4103
15609TIP3   OH268241   5.268   2.357  16.406  0.1672 -0.0960  0.1799
15609TIP3    H168242   5.287   2.267  16.434  1.3227  0.2605  0.5993
15609TIP3    H268243   5.176   2.355  16.380  0.3046 -1.5177 -0.2848
15610TIP3   OH268244   1.612   4.913   2.985  0.1417 -0.2812 -0.0345
15610TIP3    H168245   1.521   4.926   3.013  0.3932 -0.2637  0.8024
15610TIP3    H268246   1.653   4.998   2.999  0.3313 -0.3368 -0.2491
15611TIP3   OH268247   5.035   1.778  15.238 -0.7527 -0.0912  0.5728
15611TIP3    H168248   5.090   1.703  15.218 -0.9137 -0.4285  1.3567
15611TIP3    H268249   4.989   1.754  15.318 -1.9127  0.2530  0.0420
15612TIP3   OH268250   1.278   2.062  15.460  0.4800 -0.1951 -0.1362
15612TIP3    H168251   1.289   2.084  15.552  0.4177 -1.1074  0.1022
15612TIP3    H268252   1.245   1.972  15.461 -0.3545  0.0827 -1.0230
15613TIP3   OH268253   1.466   6.621   1.108  0.6520  0.7182  0.4393
15613TIP3    H168254   1.506   6.535   1.123 -0.0739  0.2580 -0.1850
15613TIP3    H268255   1.383   6.601   1.065  0.9917  1.8085 -0.7588
15614TIP3   OH268256   4.094   5.647  15.199 -0.4311  0.2176 -0.2737
15614TIP3    H168257   4.064   5.698  15.124  0.1886  0.8043 -0.1413
15614TIP3    H268258   4.108   5.559  15.165 -1.8929  0.0169 -0.4226
15615TIP3   OH268259   5.374   2.873   3.524  0.0224 -0.1310 -0.7275
15615TIP3    H168260   5.443   2.831   3.473  1.3940  1.3746 -0.2092
15615TIP3    H268261   5.413   2.955   3.554 -1.7841  0.4600  0.1597
15616TIP3   OH268262   0.278   0.849  14.489  0.0972  0.4656 -0.3881
15616TIP3    H168263   0.316   0.880  14.571  0.4650 -0.9125 -0.0099
15616TIP3    H268264   0.186   0.836  14.508  0.3036 -0.4929  0.0319
15617TIP3   OH268265   0.068   3.328  13.578  0.2173  0.2457 -0.4668
15617TIP3    H168266   0.057   3.358  13.668 -0.5648  0.8111 -0.7414
15617TIP3    H268267   0.136   3.261  13.584  0.8388  0.9256  0.3952
15618TIP3   OH268268   4.477   6.743   4.223  0.3928  0.0559 -0.0210
15618TIP3    H168269   4.430   6.711   4.300 -1.4625  0.0911 -1.0702
15618TIP3    H268270   4.479   6.838   4.234  0.5152  0.0291  0.1895
15619TIP3   OH268271   4.468   2.717   2.806 -0.1797 -0.7074  0.0156
15619TIP3    H168272   4.549   2.700   2.854 -0.0928 -4.0035 -1.0864
15619TIP3    H268273   4.498   2.756   2.724  0.0325  0.5611  0.6702
15620TIP3   OH268274   1.608   3.557   4.626 -0.1704 -0.6452 -0.0629
15620TIP3    H168275   1.675   3.498   4.660  1.5607  0.6933 -1.0505
15620TIP3    H268276   1.544   3.563   4.697  1.1691 -1.2701  1.2478
15621TIP3   OH268277   0.507   4.207   1.894  0.4855  0.3063 -0.5376
15621TIP3    H168278   0.443   4.267   1.855  0.8617  0.3973 -1.0153
15621TIP3    H268279   0.464   4.121   1.889 -0.2920  0.6105  0.6748
15622TIP3   OH268280   5.519   1.680  11.969  0.0371 -0.0668  0.6987
15622TIP3    H168281   5.581   1.615  11.936 -3.1288 -2.9642 -0.1254
15622TIP3    H268282   5.458   1.629  12.023 -3.0823  2.0235 -0.5916
15623TIP3   OH268283   1.834   5.469   0.707 -0.5278 -0.2912  0.1905
15623TIP3    H168284   1.913   5.501   0.751  0.9820 -3.5363  0.1115
15623TIP3    H268285   1.762   5.496   0.765  0.3915  3.6430 -0.2368
15624TIP3   OH268286   3.860   4.790  14.005  0.3450  0.6769 -0.2721
15624TIP3    H168287   3.939   4.753  14.045  0.3439  2.6381  1.7652
15624TIP3    H268288   3.823   4.846  14.073 -2.2628  0.6373 -1.5425
15625TIP3   OH268289   3.386   3.897   5.960 -0.0794 -0.0755  0.6456
15625TIP3    H168290   3.300   3.875   5.924 -0.8791 -1.2008  3.0270
15625TIP3    H268291   3.368   3.935   6.046  1.7820  0.7997  0.7133
15626TIP3   OH268292   1.072   2.207  11.938  0.5620 -0.0617  0.2996
15626TIP3    H168293   1.073   2.182  11.846 -0.4736  0.4026  0.1411
15626TIP3    H268294   1.137   2.150  11.980  2.1083  0.7205 -0.9471
15627TIP3   OH268295   5.606   5.119   1.077  0.2085 -0.1498 -0.5514
15627TIP3    H168296   5.643   5.160   1.155 -0.8374  1.1244 -0.6721
15627TIP3    H268297   5.547   5.052   1.110 -1.3653  1.3638 -0.1252
15628TIP3   OH268298   4.725   6.125   1.927  0.1498  0.1301  0.2086
15628TIP3    H168299   4.681   6.173   1.858  0.2992 -0.1457 -0.0846
15628TIP3    H268300   4.818   6.143   1.914  0.2793 -0.8727 -0.4154
15629TIP3   OH268301   0.689   3.770   6.548  0.4012  0.4008  0.5327
15629TIP3    H168302   0.744   3.845   6.570  1.2283  0.2894 -1.0077
15629TIP3    H268303   0.751   3.698   6.536  0.1233  0.4821 -2.1792
15630TIP3   OH268304   6.707   3.248  11.852  0.6978  0.3176  0.4291
15630TIP3    H168305   6.765   3.324  11.846 -0.2625  1.1610  1.3791
15630TIP3    H268306   6.625   3.276  11.812  0.1824 -0.0570  1.1992
15631TIP3   OH268307   5.508   1.335  11.334 -0.1446  0.0143 -0.1461
15631TIP3    H168308   5.582   1.368  11.283 -0.0170  0.9290  0.6084
15631TIP3    H268309   5.470   1.265  11.279  1.2085 -0.4066 -0.5802
15632TIP3   OH268310   2.744   5.215   2.256  0.0369  0.5692  0.0882
15632TIP3    H168311   2.709   5.127   2.267 -0.7896  0.8084 -0.4727
15632TIP3    H268312   2.667   5.271   2.256  0.5630  1.3107  0.5627
15633TIP3   OH268313   5.973   4.451   1.347 -0.0666 -0.3652 -0.4699
15633TIP3    H168314   5.890   4.482   1.311 -0.4994  0.3306  1.0499
15633TIP3    H268315   5.967   4.355   1.341 -1.1926 -0.3403  0.0414
15634TIP3   OH268316   0.906   0.124  11.790  0.5795 -0.5427 -0.0296
15634TIP3    H168317   0.956   0.047  11.819  2.9916  0.9948  0.1839
15634TIP3    H268318   0.964   0.168  11.728 -0.4798  1.4325  0.2996
15635TIP3   OH268319   4.898   6.673  12.095 -0.3820 -0.0695 -0.1333
15635TIP3    H168320   4.846   6.596  12.071 -0.9966 -0.0891  1.1680
15635TIP3    H268321   4.893   6.730  12.018 -2.2754 -0.1073 -0.0734
15636TIP3   OH268322   1.701   5.910   1.147  0.0680 -0.2934 -0.0574
15636TIP3    H168323   1.687   5.984   1.206 -1.6777  0.0406 -0.8224
15636TIP3    H268324   1.633   5.846   1.171  0.0180 -0.6084 -0.9817
15637TIP3   OH268325   2.342   2.259  16.325 -0.1789 -0.0678  0.4108
15637TIP3    H168326   2.291   2.184  16.292  0.7949 -0.2738 -0.7072
15637TIP3    H268327   2.287   2.335  16.305 -0.0675 -0.2796 -0.8030
15638TIP3   OH268328   0.235   4.634  14.177  0.3183 -1.0110 -0.0690
15638TIP3    H168329   0.316   4.683  14.162 -1.0023  1.1035 -0.7039
15638TIP3    H268330   0.248   4.592  14.262  1.2297  1.1866  0.9586
15639TIP3   OH268331   5.973   3.717  12.088 -0.7158 -0.0401  0.4378
15639TIP3    H168332   6.010   3.757  12.009 -2.1345 -0.0623 -0.2714
15639TIP3    H268333   5.879   3.711  12.070 -0.7781 -2.2980  1.1176
15640TIP3   OH268334   4.424   4.863   0.530  0.0025 -0.1807 -0.1423
15640TIP3    H168335   4.489   4.928   0.505 -1.3578  1.2616 -0.1044
15640TIP3    H268336   4.413   4.875   0.625 -0.4548 -0.2673 -0.1796
15641TIP3   OH268337   5.221   5.053  12.382 -0.2685  0.0145 -0.0013
15641TIP3    H168338   5.289   5.109  12.344  1.7573 -1.8718  0.6506
15641TIP3    H268339   5.140   5.084  12.341  1.0625  1.7850 -1.5033
15642TIP3   OH268340   4.414   5.470  11.399 -0.5157  0.0726  0.3259
15642TIP3    H168341   4.384   5.550  11.443 -1.5852  0.7962 -1.6013
15642TIP3    H268342   4.493   5.496  11.353  0.1432 -0.4699  1.1263
15643TIP3   OH268343   5.551   1.258  11.935  0.5170  0.1619  0.0813
15643TIP3    H168344   5.518   1.328  11.991  0.0502  1.1675 -1.3855
15643TIP3    H268345   5.538   1.291  11.846  2.1206 -0.9720 -0.6105
15644TIP3   OH268346   5.592   1.552   4.127  0.2287  0.1618  0.1425
15644TIP3    H168347   5.550   1.616   4.184 -0.4190 -0.4988  0.4253
15644TIP3    H268348   5.686   1.562   4.144  0.0618  0.1925  1.0849
15645TIP3   OH268349   0.124   0.491  13.284  0.0398  0.0994 -0.1755
15645TIP3    H168350   0.053   0.528  13.338  0.8215  0.9844  0.2670
15645TIP3    H268351   0.196   0.477  13.346  1.2047  1.7904 -1.0739
15646TIP3   OH268352   1.446   0.089   0.807 -0.1143 -0.4140 -0.2467
15646TIP3    H168353   1.509   0.134   0.863 -0.2285  0.1677 -0.5842
15646TIP3    H268354   1.394   0.037   0.868 -0.6955  0.7543  0.2893
15647TIP3   OH268355   3.647   0.653   4.452 -0.3753 -1.2134  0.1056
15647TIP3    H168356   3.612   0.630   4.365  0.1185 -3.4306  0.4316
15647TIP3    H268357   3.628   0.577   4.506 -0.1198 -0.1131  1.8053
15648TIP3   OH268358   2.926   6.795  15.627 -0.8341  0.1035 -0.2356
15648TIP3    H168359   2.879   6.852  15.688 -1.5466 -0.5003 -0.2043
15648TIP3    H268360   3.015   6.791  15.661 -0.8117  1.0644 -0.1512
15649TIP3   OH268361   6.136   1.037   5.905 -0.2693  0.1165  0.2929
15649TIP3    H168362   6.202   1.066   5.841 -2.1697  0.2758 -1.7113
15649TIP3    H268363   6.124   1.113   5.963 -0.1735  0.8436 -0.6102
15650TIP3   OH268364   1.904   3.889   5.317 -0.4535  0.0170  0.3463
15650TIP3    H168365   1.834   3.875   5.253 -1.4637  0.7609  1.2492
15650TIP3    H268366   1.859   3.923   5.394  1.1662  3.1454  0.0750
15651TIP3   OH268367   0.742   4.555  12.264  0.0300  0.2397 -0.4757
15651TIP3    H168368   0.816   4.538  12.206  0.8629 -0.7838  0.8428
15651TIP3    H268369   0.688   4.618  12.216  2.1499  1.6482 -1.1207
15652TIP3   OH268370   3.268   5.501   3.139  0.2102  0.3235  0.1786
15652TIP3    H168371   3.343   5.542   3.181  0.4355 -0.0421  0.1310
15652TIP3    H268372   3.199   5.505   3.205  0.5458 -0.1994  0.5609
15653TIP3   OH268373   1.179   3.280  11.168  0.7428  0.3422  0.2121
15653TIP3    H168374   1.161   3.275  11.074  1.7512  0.8746 -0.0282
15653TIP3    H268375   1.257   3.336  11.174  0.5651  0.4796  1.3827
15654TIP3   OH268376   5.359   4.059  16.785  0.5870  0.2392 -0.3345
15654TIP3    H168377   5.404   4.093  16.862  0.5517  0.8778 -0.5881
15654TIP3    H268378   5.397   3.972  16.771 -0.5579 -0.5811  1.3536
15655TIP3   OH268379   2.026   2.875   6.216 -0.2758 -0.6437 -0.2514
15655TIP3    H168380   2.025   2.970   6.228  0.4498 -0.6392 -0.1253
15655TIP3    H268381   1.949   2.856   6.163  0.4508  0.2123 -1.6840
15656TIP3   OH268382   4.767   0.456   3.885 -0.1876  0.0891 -0.4899
15656TIP3    H168383   4.702   0.514   3.924 -0.7662 -0.6004 -0.3872
15656TIP3    H268384   4.822   0.513   3.832  0.5574  1.0451  1.2362
15657TIP3   OH268385   5.693   0.382  11.888  0.2049  0.2094 -0.0417
15657TIP3    H168386   5.656   0.449  11.946  1.0645  0.4366  0.2613
15657TIP3    H268387   5.711   0.429  11.806 -0.6631 -0.0266 -0.3803
15658TIP3   OH268388   1.531   6.136   4.501  0.6816  0.0787  0.5490
15658TIP3    H168389   1.481   6.094   4.431  0.7826  1.4188 -0.3742
15658TIP3    H268390   1.514   6.083   4.579 -1.7473  0.1912  0.1632
15659TIP3   OH268391   2.826   1.562  15.806 -0.1902  0.7088  0.1387
15659TIP3    H168392   2.853   1.648  15.775 -1.3022  0.8979 -0.3245
15659TIP3    H268393   2.761   1.532  15.743  0.6829 -0.7940 -0.1070
15660TIP3   OH268394   5.808   1.735  15.960  0.9315 -0.5072  0.9100
15660TIP3    H168395   5.799   1.646  15.991 -0.8808 -0.5308  0.4448
15660TIP3    H268396   5.725   1.777  15.983  0.5727  0.2103 -1.4144
15661TIP3   OH268397   0.005   0.653  13.052 -0.0507 -0.2873  0.2069
15661TIP3    H168398  -0.067   0.691  13.102 -0.0440  1.6306 -1.1338
15661TIP3    H268399   0.025   0.571  13.097 -1.0825  0.5715  2.3768
15662TIP3   OH268400   6.125   0.996  13.899  0.5231  0.2244 -0.1659
15662TIP3    H168401   6.065   0.979  13.826  0.9963  1.0213 -0.7530
15662TIP3    H268402   6.192   1.054  13.863  0.7978  0.5929  0.8920
15663TIP3   OH268403   0.887   2.015  11.253 -0.0859  0.2995  0.1457
15663TIP3    H168404   0.970   1.970  11.237 -0.9120 -1.1706 -0.1791
15663TIP3    H268405   0.847   2.023  11.166 -0.9068 -0.2718  0.4576
15664TIP3   OH268406   3.107   1.239   1.217 -0.5030 -0.0432  0.3526
15664TIP3    H168407   3.033   1.279   1.263  0.0090  0.3291  0.8606
15664TIP3    H268408   3.180   1.299   1.231 -0.4031  0.2169 -1.2020
15665TIP3   OH268409   0.622   4.756   0.186 -0.0863  0.3657  0.2765
15665TIP3    H168410   0.695   4.709   0.146 -0.4384  0.1500 -0.1195
15665TIP3    H268411   0.638   4.848   0.166 -0.3616  0.2441 -0.5430
15666TIP3   OH268412   6.528   3.576  11.475  1.1920  0.3777  0.7349
15666TIP3    H168413   6.508   3.606  11.564  1.2903  0.6836  0.6543
15666TIP3    H268414   6.496   3.646  11.418  1.0047  0.1187  0.5215
15667TIP3   OH268415   3.022   1.742   0.559  0.2765  0.0138  0.3537
15667TIP3    H168416   3.058   1.655   0.547 -0.6313 -0.3126 -0.1245
15667TIP3    H268417   2.963   1.754   0.484 -2.7597 -0.6056  2.4606
15668TIP3   OH268418   3.085   0.037   3.521  0.3926  0.3823 -0.1297
15668TIP3    H168419   3.025   0.037   3.595 -0.6217 -3.2403 -0.7599
15668TIP3    H268420   3.171   0.024   3.559 -0.0475 -0.8811  0.4811
15669TIP3   OH268421   1.617   4.087  13.183 -0.1529 -0.2619  0.2795
15669TIP3    H168422   1.572   4.122  13.106  0.2633  1.4985  0.7876
15669TIP3    H268423   1.678   4.021  13.148 -2.7019 -2.3955 -0.4668
15670TIP3   OH268424   5.795   4.511  14.647 -0.0575 -0.2973  0.0254
15670TIP3    H168425   5.721   4.552  14.693  0.8936  0.1588  1.1920
15670TIP3    H268426   5.796   4.554  14.562  0.0355  1.1090  0.7094
15671TIP3   OH268427   2.936   6.522   3.684  0.1192 -0.5256  0.0436
15671TIP3    H168428   3.005   6.540   3.748  0.6574 -0.5784 -0.5029
15671TIP3    H268429   2.855   6.541   3.730  0.4057 -1.8639  1.1826
15672TIP3   OH268430   6.468   0.258  17.092  0.3093 -0.4082 -0.3225
15672TIP3    H168431   6.407   0.301  17.152  0.1900 -1.2188  0.1511
15672TIP3    H268432   6.540   0.321  17.081 -0.3137  0.2988 -0.4013
15673TIP3   OH268433   0.427   2.228   3.814 -0.1377  0.2044  0.2718
15673TIP3    H168434   0.370   2.242   3.890 -1.1775  0.4287 -0.5297
15673TIP3    H268435   0.496   2.293   3.824 -0.9885  1.1284  0.3523
15674TIP3   OH268436   6.473   6.773   4.769 -0.6187  0.4259 -0.1129
15674TIP3    H168437   6.431   6.758   4.684 -0.5391  2.3615 -0.5253
15674TIP3    H268438   6.402   6.803   4.826 -0.6580 -0.7928  0.5165
15675TIP3   OH268439   2.117   3.000  11.736 -0.1750 -0.3464 -0.1276
15675TIP3    H168440   2.195   2.950  11.760  0.7755  1.4048  0.6365
15675TIP3    H268441   2.126   3.016  11.642  1.5742  1.6425  0.2946
15676TIP3   OH268442   1.809   4.601  13.800 -0.6583 -0.5411  0.1274
15676TIP3    H168443   1.771   4.636  13.719  0.5266  2.1596  0.6335
15676TIP3    H268444   1.734   4.574  13.852 -1.6524  0.8212 -0.5414
15677TIP3   OH268445   5.447   4.638   0.310  0.1804  0.0365  0.2328
15677TIP3    H168446   5.482   4.699   0.244 -0.1867  0.0378  0.0375
15677TIP3    H268447   5.353   4.656   0.311 -0.0560 -1.0681 -0.3878
15678TIP3   OH268448   2.103   1.905  15.005  0.0815 -0.2722  0.2576
15678TIP3    H168449   2.130   1.869  14.920 -1.6759  1.3616 -1.0709
15678TIP3    H268450   2.013   1.875  15.016  0.4699 -0.9460  1.8795
15679TIP3   OH268451   4.288   0.436   0.010 -0.3829 -0.4052  0.1789
15679TIP3    H168452   4.349   0.469  -0.056  1.4983 -2.3946  0.8201
15679TIP3    H268453   4.201   0.446  -0.030  0.4962  0.8364 -1.5033
15680TIP3   OH268454   6.470   5.844   1.703 -0.3744  0.2887  0.0504
15680TIP3    H168455   6.454   5.932   1.669  0.0012  1.3643  2.4364
15680TIP3    H268456   6.548   5.853   1.758 -1.1576 -1.1750  1.5147
15681TIP3   OH268457   1.303   2.552  14.698 -0.1287  0.3003  0.2402
15681TIP3    H168458   1.284   2.625  14.640  3.1118  0.7078 -0.5350
15681TIP3    H268459   1.351   2.490  14.642 -0.2079 -1.0301  1.6012
15682TIP3   OH268460   1.453   4.174   0.731 -0.2712 -0.2773  0.3936
15682TIP3    H168461   1.532   4.124   0.713 -0.1275  0.5908 -1.5740
15682TIP3    H268462   1.482   4.265   0.737 -1.0871  0.0454 -0.2761
15683TIP3   OH268463   0.639   5.473   0.015  0.0526 -0.2704 -0.3273
15683TIP3    H168464   0.732   5.495   0.005 -0.0335  1.1301  1.6522
15683TIP3    H268465   0.595   5.527  -0.050  0.4075  0.9860  0.4512
15684TIP3   OH268466   6.383   4.606   6.473 -0.2481 -1.0426 -0.1805
15684TIP3    H168467   6.437   4.527   6.481 -1.3723 -1.6594  1.9076
15684TIP3    H268468   6.303   4.576   6.429 -0.2826 -0.8527 -0.2473
15685TIP3   OH268469   3.171   0.614  14.891  0.0803 -0.1222  0.4068
15685TIP3    H168470   3.133   0.619  14.803  3.0274  3.3645 -0.9628
15685TIP3    H268471   3.099   0.636  14.950 -1.1082  1.8299 -1.5980
15686TIP3   OH268472   0.260   6.558  12.898  0.4258 -0.6258  0.2855
15686TIP3    H168473   0.249   6.472  12.857  1.0558 -0.0001 -1.2711
15686TIP3    H268474   0.181   6.606  12.875  1.2705  0.1103 -1.2780
15687TIP3   OH268475   5.754   1.000   2.441  0.0090  0.4441  0.5058
15687TIP3    H168476   5.830   1.055   2.424  0.7600 -0.3473  1.2075
15687TIP3    H268477   5.686   1.061   2.469 -0.3567  1.4347 -2.2424
15688TIP3   OH268478   5.434   6.464  12.280 -0.3246  0.6814  0.0512
15688TIP3    H168479   5.375   6.504  12.344 -0.6599  0.5067 -0.1443
15688TIP3    H268480   5.521   6.487  12.310 -0.1546 -3.0263  3.1532
15689TIP3   OH268481   2.098   0.722   0.880 -0.3269 -0.2080 -0.8829
15689TIP3    H168482   2.107   0.802   0.828 -2.0030  0.1335 -0.7154
15689TIP3    H268483   2.144   0.740   0.962  0.2799  0.1412 -1.2918
15690TIP3   OH268484   0.802   6.132   2.686 -0.8012 -0.3228  0.3635
15690TIP3    H168485   0.813   6.176   2.602  0.6609  0.2310  0.8136
15690TIP3    H268486   0.891   6.128   2.723 -1.0431 -2.7235  0.8139
15691TIP3   OH268487   0.276   2.026   1.109 -0.4810 -0.1827  0.5340
15691TIP3    H168488   0.369   2.023   1.132  0.2362  2.5998 -1.4775
15691TIP3    H268489   0.244   2.107   1.148 -1.0720  0.7766 -1.7877
15692TIP3   OH268490   4.383   0.721   5.491  0.3810  0.2015 -0.0324
15692TIP3    H168491   4.476   0.701   5.495  0.5312  0.9129  0.1486
15692TIP3    H268492   4.368   0.748   5.401 -0.0438 -1.6847 -0.5899
15693TIP3   OH268493   2.795   3.223  15.689  0.0656  0.1975  0.1840
15693TIP3    H168494   2.712   3.239  15.734  0.1838  0.3710  0.3421
15693TIP3    H268495   2.774   3.233  15.596 -0.0991  0.1982  0.2212
15694TIP3   OH268496   2.030   6.812  12.287  0.1662  1.0005  0.9805
15694TIP3    H168497   2.119   6.793  12.255 -0.0363  1.9221 -0.1577
15694TIP3    H268498   1.976   6.815  12.209 -0.6520  1.7148  1.5587
15695TIP3   OH268499   5.184   3.607  11.269 -0.3497 -0.4671 -0.0177
15695TIP3    H168500   5.105   3.572  11.227 -1.0400  0.4248  0.5205
15695TIP3    H268501   5.157   3.628  11.358 -0.3214  2.5200 -0.6218
15696TIP3   OH268502   4.163   1.811   4.923 -0.5927  0.2141  0.0482
15696TIP3    H168503   4.254   1.822   4.896 -1.0838  1.6760 -1.1175
15696TIP3    H268504   4.122   1.765   4.850 -0.8053 -0.4926  0.5954
15697TIP3   OH268505   3.462   1.662   1.073 -0.1916  0.0769 -0.4935
15697TIP3    H168506   3.478   1.606   1.149 -1.5408 -0.3268 -0.4728
15697TIP3    H268507   3.480   1.607   0.997  0.8657  0.3878 -0.4770
15698TIP3   OH268508   6.685   1.669  13.028 -0.4668 -0.2552  0.3480
15698TIP3    H168509   6.626   1.595  13.016  0.3886 -0.6477 -1.9994
15698TIP3    H268510   6.678   1.719  12.946  0.4727  1.1514  1.0843
15699TIP3   OH268511   0.736   5.793  16.159 -0.4331  0.2920 -0.1152
15699TIP3    H168512   0.662   5.743  16.124  1.1858 -1.8971 -0.6084
15699TIP3    H268513   0.709   5.819  16.247 -1.2983 -1.6641  0.2436
15700TIP3   OH268514   4.168   5.357   1.820 -0.3285 -0.4931  0.1167
15700TIP3    H168515   4.138   5.367   1.730 -2.4072 -0.7022  0.7277
15700TIP3    H268516   4.214   5.439   1.840 -1.8061  0.5134 -0.4476
15701TIP3   OH268517   2.570   6.458  16.255  0.7411 -0.5450 -0.2226
15701TIP3    H168518   2.538   6.431  16.341  0.0083  1.3883  0.1777
15701TIP3    H268519   2.499   6.433  16.195 -0.1744  0.8342  0.2163
15702TIP3   OH268520   5.438   2.364  12.763  0.0246 -0.7646  0.1147
15702TIP3    H168521   5.407   2.281  12.726  1.0854 -0.6066 -1.2012
15702TIP3    H268522   5.533   2.360  12.754  0.0570  0.8840 -0.6202
15703TIP3   OH268523   4.546   2.868   2.588 -0.1912  0.2519  0.0541
15703TIP3    H168524   4.496   2.949   2.573  0.6098  0.6051 -0.7809
15703TIP3    H268525   4.501   2.803   2.534  1.8815  1.2219 -3.1724
15704TIP3   OH268526   1.366   1.115   0.901 -0.5064  0.8263  0.4923
15704TIP3    H168527   1.320   1.062   0.966  2.2189  0.7227  2.4958
15704TIP3    H268528   1.316   1.197   0.898 -1.7225  0.1523  1.3498
15705TIP3   OH268529   0.174   6.668   1.810  0.4379  0.5680  0.0172
15705TIP3    H168530   0.212   6.594   1.857 -0.2216  0.0774 -0.2169
15705TIP3    H268531   0.128   6.629   1.736 -1.9441  0.9819  1.1932
15706TIP3   OH268532   5.755   5.913   2.760  0.7005 -0.1863  0.4687
15706TIP3    H168533   5.778   6.005   2.748 -0.0321  0.1131  1.2639
15706TIP3    H268534   5.801   5.867   2.689 -0.4044  1.0261 -1.1086
15707TIP3   OH268535   1.186   5.014   5.371  0.7021 -0.5769 -0.4334
15707TIP3    H168536   1.215   4.923   5.359 -1.9514 -1.2554 -2.8411
15707TIP3    H268537   1.125   5.010   5.445  3.8157  0.2390  2.4276
15708TIP3   OH268538   4.848   0.606   5.741 -0.1566  0.4181  0.3166
15708TIP3    H168539   4.777   0.562   5.787  1.2571 -1.8016  0.4925
15708TIP3    H268540   4.876   0.675   5.802 -0.0324 -0.7928  1.6891
15709TIP3   OH268541   4.283   3.684   6.092 -0.7582  0.4955 -0.2211
15709TIP3    H168542   4.340   3.680   6.016 -0.3245  0.6336  0.0880
15709TIP3    H268543   4.228   3.606   6.086 -0.7641  0.5358 -0.6989
15710TIP3   OH268544   5.003   6.776  16.909  0.4251  0.2075 -0.2799
15710TIP3    H168545   5.083   6.778  16.961  0.2282  0.5054  0.0187
15710TIP3    H268546   4.932   6.781  16.974  0.1081 -2.1053 -0.3804
15711TIP3   OH268547   1.737   2.493  13.842  0.0717  0.2204  0.1345
15711TIP3    H168548   1.650   2.525  13.817 -0.7745 -0.5166  1.9473
15711TIP3    H268549   1.794   2.520  13.771 -1.2932  2.3397 -0.2254
15712TIP3   OH268550   4.345   1.879   4.009  0.2328 -0.2152 -0.1687
15712TIP3    H168551   4.419   1.917   3.963  0.4898  1.8147  1.7884
15712TIP3    H268552   4.358   1.784   4.001  2.5211  0.0890 -0.6449
15713TIP3   OH268553   0.888   5.904   4.138 -0.4739  0.0165  0.0676
15713TIP3    H168554   0.933   5.952   4.069 -2.1021  0.1060 -0.9667
15713TIP3    H268555   0.932   5.931   4.219  0.4998  1.0248 -0.7758
15714TIP3   OH268556   4.757   1.191   2.682  0.0097  0.0800  0.3854
15714TIP3    H168557   4.691   1.148   2.736  0.5001 -1.5027 -0.2092
15714TIP3    H268558   4.807   1.118   2.643 -1.4226  0.9537 -3.6401
15715TIP3   OH268559   2.684   0.795  15.712 -0.1536  0.5663 -0.1747
15715TIP3    H168560   2.735   0.835  15.641  0.9819  0.0295  0.3126
15715TIP3    H268561   2.633   0.868  15.748  1.4435  1.4843  0.3223
15716TIP3   OH268562   2.496   5.367  13.041 -0.8259  0.4595  0.0258
15716TIP3    H168563   2.403   5.384  13.032 -0.5404  2.4362  0.3485
15716TIP3    H268564   2.514   5.297  12.978 -2.3222  0.7922 -0.8117
15717TIP3   OH268565   6.671   0.816   6.522  0.8037 -0.4831  0.0746
15717TIP3    H168566   6.710   0.762   6.591  0.6723  0.8367  1.2270
15717TIP3    H268567   6.640   0.894   6.567 -1.4093 -0.5899 -1.1149
15718TIP3   OH268568   6.761   4.670  16.088 -0.0849 -0.4554 -0.3953
15718TIP3    H168569   6.722   4.669  16.176  2.0582  0.0647  0.6362
15718TIP3    H268570   6.737   4.755  16.052  0.8906  0.3056  0.6582
15719TIP3   OH268571   2.735   4.755   2.954 -0.3596  0.1024  0.7960
15719TIP3    H168572   2.749   4.833   3.008  0.9215  1.1684 -0.9508
15719TIP3    H268573   2.646   4.727   2.974 -0.0028  0.5164  3.2848
15720TIP3   OH268574   4.533   5.138   4.820  0.0766 -0.5315  0.5074
15720TIP3    H168575   4.470   5.188   4.872 -0.8843  0.1603 -1.2211
15720TIP3    H268576   4.613   5.137   4.873 -0.4755  1.1632  1.4574
15721TIP3   OH268577   3.507   4.259   5.397  0.3865  0.0600  0.0032
15721TIP3    H168578   3.530   4.344   5.435  1.2525 -0.0078 -0.3409
15721TIP3    H268579   3.411   4.259   5.393  0.3629  0.8231  0.4462
15722TIP3   OH268580   4.429   5.016  17.077 -0.2073 -0.0842  0.4977
15722TIP3    H168581   4.335   5.018  17.095 -0.0942  1.5103  0.9961
15722TIP3    H268582   4.457   5.107  17.085  1.1489 -0.3418 -0.9404
15723TIP3   OH268583   3.254   0.689  12.592 -0.5383 -0.2502  0.4366
15723TIP3    H168584   3.338   0.721  12.561 -0.8107  1.1727  1.0720
15723TIP3    H268585   3.238   0.739  12.672 -1.7152 -0.9127  0.6336
15724TIP3   OH268586   0.780   2.621   4.228 -0.5825  0.0608 -0.1499
15724TIP3    H168587   0.719   2.590   4.296 -0.8108  2.0633  0.6299
15724TIP3    H268588   0.847   2.668   4.277 -1.4388  2.6832 -1.3186
15725TIP3   OH268589   4.121   0.701  11.957  0.0328 -0.1882 -0.0172
15725TIP3    H168590   4.032   0.726  11.934  0.0982 -0.4884 -0.6068
15725TIP3    H268591   4.174   0.731  11.884  0.9925  3.3169  1.8952
15726TIP3   OH268592   5.002   5.892  12.047 -0.1750 -0.0366 -0.0671
15726TIP3    H168593   5.038   5.810  12.012 -1.6242 -0.5942 -0.3030
15726TIP3    H268594   4.917   5.867  12.083 -0.7969  1.4400 -0.4778
15727TIP3   OH268595   2.863   6.094  14.458 -0.2589  0.0663  0.5414
15727TIP3    H168596   2.890   6.185  14.450 -3.7010  1.2510  0.8354
15727TIP3    H268597   2.812   6.091  14.539 -0.7813 -1.9590  0.1895
15728TIP3   OH268598   4.499   6.242  15.590 -0.0507 -0.4666  0.1078
15728TIP3    H168599   4.520   6.189  15.513  2.2214  0.4337  0.0278
15728TIP3    H268600   4.409   6.269  15.576 -0.0915 -1.3390 -1.6209
15729TIP3   OH268601   3.735   3.287  14.280  0.0884  0.3333  0.7007
15729TIP3    H168602   3.642   3.299  14.299 -0.5411 -0.5203 -1.5714
15729TIP3    H268603   3.757   3.202  14.320 -0.7640 -0.6054 -0.7318
15730TIP3   OH268604   2.428   4.033   1.365  0.4200  0.1842  0.1923
15730TIP3    H168605   2.365   4.073   1.426 -0.8386  1.0690 -1.6074
15730TIP3    H268606   2.374   3.983   1.305  1.5291  0.1607 -0.8182
15731TIP3   OH268607   2.278   2.808   3.866  0.1583  0.1302  0.0465
15731TIP3    H168608   2.216   2.770   3.928  0.9485 -1.8323 -0.2812
15731TIP3    H268609   2.239   2.792   3.780  0.0557  0.9453 -0.0635
15732TIP3   OH268610   6.114   1.263  14.923  0.1417 -0.6646  0.2245
15732TIP3    H168611   6.076   1.180  14.892  0.1501  0.0846 -1.9541
15732TIP3    H268612   6.038   1.316  14.948  0.0842 -0.9579  0.6943
15733TIP3   OH268613   5.702   1.503   3.627 -0.1995  0.2476 -0.1108
15733TIP3    H168614   5.779   1.461   3.667  1.5049  0.3453 -3.0321
15733TIP3    H268615   5.708   1.595   3.654 -0.5544 -0.1297  1.3795
15734TIP3   OH268616   6.462   6.600   0.808 -0.8412  0.5156 -0.5055
15734TIP3    H168617   6.431   6.534   0.871  1.2062  0.0690  0.1035
15734TIP3    H268618   6.491   6.673   0.863  0.5997  0.2826 -0.9314
15735TIP3   OH268619   5.397   1.872  13.776  0.4742  0.1605 -0.4272
15735TIP3    H168620   5.404   1.824  13.859  0.0551  0.3387 -0.2873
15735TIP3    H268621   5.472   1.842  13.725 -0.4921 -1.6785 -0.8771
15736TIP3   OH268622   6.072   0.116   0.339  0.0445 -0.2618  0.2606
15736TIP3    H168623   6.018   0.094   0.415  1.1486  0.7758  1.3869
15736TIP3    H268624   6.138   0.048   0.336 -0.0134 -0.3159  0.2211
15737TIP3   OH268625   3.007   4.546  14.654  0.1825  0.1322  0.1898
15737TIP3    H168626   3.054   4.510  14.578 -2.2094 -0.8979 -0.8844
15737TIP3    H268627   2.985   4.469  14.707  1.2594  0.7825  1.6576
15738TIP3   OH268628   1.608   6.670  11.594 -0.2714 -0.3771 -0.2009
15738TIP3    H168629   1.626   6.764  11.595 -2.2441  0.0442 -0.6241
15738TIP3    H268630   1.659   6.636  11.668 -0.3258  1.1867  0.6163
15739TIP3   OH268631   2.959   4.678  12.070  0.2374 -0.2264  0.3395
15739TIP3    H168632   2.924   4.751  12.018 -3.1510 -1.0698  1.1757
15739TIP3    H268633   2.971   4.608  12.006  2.4681  0.6394 -0.2817
15740TIP3   OH268634   0.513   2.726  16.557 -0.3189  0.4690 -0.3779
15740TIP3    H168635   0.603   2.709  16.585 -0.2859  0.4954 -0.4683
15740TIP3    H268636   0.463   2.728  16.639 -0.5144 -1.1210 -0.4249
15741TIP3   OH268637   5.487   0.560   6.120  0.1260 -0.4723 -0.5941
15741TIP3    H168638   5.474   0.647   6.158  1.4864 -0.7521  0.6094
15741TIP3    H268639   5.564   0.569   6.063 -1.0168 -0.4093 -2.1864
15742TIP3   OH268640   0.247   6.031   5.505 -0.2247  0.4394 -0.2629
15742TIP3    H168641   0.194   5.991   5.574  0.0137 -1.2860 -1.0208
15742TIP3    H268642   0.271   5.958   5.448  2.5541  1.2353 -0.2406
15743TIP3   OH268643   6.745   4.602  16.373  0.0538 -0.1204 -0.3526
15743TIP3    H168644   6.811   4.533  16.379 -1.1513 -1.3505 -0.7003
15743TIP3    H268645   6.762   4.659  16.448  0.5358 -1.2855  0.4461
15744TIP3   OH268646   5.136   5.592   0.446 -0.1830 -0.5217  0.2417
15744TIP3    H168647   5.155   5.656   0.378 -0.0374 -3.0355 -2.2625
15744TIP3    H268648   5.158   5.636   0.528  1.4327  2.0150 -1.4375
15745TIP3   OH268649   4.379   1.602  15.208  0.5468  0.6078 -0.0262
15745TIP3    H168650   4.382   1.510  15.180  1.7681  0.4271  0.6156
15745TIP3    H268651   4.439   1.606  15.283 -0.6764  1.6036  0.9524
15746TIP3   OH268652   3.088   5.125   5.489  0.1541 -0.1677  0.3575
15746TIP3    H168653   3.171   5.172   5.479 -0.6335  0.9241 -1.7860
15746TIP3    H268654   3.111   5.033   5.474  0.8723  0.2356 -1.3399
15747TIP3   OH268655   0.326   6.372   5.276 -0.3683 -0.0903 -0.1432
15747TIP3    H168656   0.381   6.295   5.291 -1.6819 -1.1747 -0.6333
15747TIP3    H268657   0.257   6.365   5.342 -0.9807  0.1814 -0.7449
15748TIP3   OH268658   1.750   4.700  11.516  0.0965 -0.0864 -0.1413
15748TIP3    H168659   1.706   4.681  11.599 -1.2585 -0.2202 -0.8576
15748TIP3    H268660   1.685   4.678  11.449  1.1365  0.0868 -1.2378
15749TIP3   OH268661   3.921   1.709   1.823  0.4237  0.0415  0.3777
15749TIP3    H168662   3.957   1.621   1.812 -0.2455 -0.0686 -1.3097
15749TIP3    H268663   3.868   1.703   1.902 -0.6173 -1.4532 -0.3784
15750TIP3   OH268664   6.179   6.440  14.924 -0.0569 -0.2665 -0.3080
15750TIP3    H168665   6.261   6.408  14.887 -0.3594  0.1922 -1.4170
15750TIP3    H268666   6.195   6.533  14.941 -0.0884 -0.3592  0.2287
15751TIP3   OH268667   3.256   3.225  11.094 -0.3050  0.0317  0.1134
15751TIP3    H168668   3.310   3.269  11.160  0.2856  0.8185 -0.8678
15751TIP3    H268669   3.307   3.231  11.013 -1.9288  1.0170 -0.9078
15752TIP3   OH268670   0.627   2.644  15.122 -0.4760  0.4183  0.1747
15752TIP3    H168671   0.537   2.617  15.103 -1.1687  3.2122 -1.0156
15752TIP3    H268672   0.623   2.677  15.212 -0.3184 -0.5610  0.5555
15753TIP3   OH268673   5.987   5.871  14.635  0.1246 -0.3378  0.1366
15753TIP3    H168674   5.911   5.823  14.665  0.7567 -1.5277 -0.0977
15753TIP3    H268675   6.058   5.806  14.636  1.1193  0.7236  0.3121
15754TIP3   OH268676   2.998   2.697   0.032 -0.1932  0.0921 -0.0514
15754TIP3    H168677   3.039   2.654   0.108  0.1160  1.5982  0.6666
15754TIP3    H268678   2.945   2.767   0.070 -0.5600  0.4640 -1.2115
15755TIP3   OH268679   3.734   0.256   1.992 -0.5220 -0.2970 -0.1246
15755TIP3    H168680   3.701   0.189   2.052 -1.5026 -0.0278 -0.3409
15755TIP3    H268681   3.656   0.304   1.965  0.3659  2.4914  1.8744
15756TIP3   OH268682   5.112   4.558  16.598  0.2091  0.4425 -0.0067
15756TIP3    H168683   5.161   4.536  16.677  1.7761  0.4733 -0.9275
15756TIP3    H268684   5.155   4.507  16.529 -0.5873  1.0629 -0.9768
15757TIP3   OH268685   0.938   4.398  17.063 -0.0326  0.0321  0.7546
15757TIP3    H168686   0.933   4.458  16.989  1.4350 -0.0185  0.5766
15757TIP3    H268687   0.862   4.419  17.117 -0.8983  0.3444 -0.5486
15758TIP3   OH268688   4.505   4.333   5.908 -0.0086  0.3509 -0.3699
15758TIP3    H168689   4.484   4.338   6.001  1.5351 -1.5189  0.1499
15758TIP3    H268690   4.546   4.418   5.888  0.3366  0.4925  0.8629
15759TIP3   OH268691   4.943   2.021   5.292  0.6562 -0.7606  0.3731
15759TIP3    H168692   4.883   2.075   5.342  0.6387 -0.1744 -0.2659
15759TIP3    H268693   4.897   1.938   5.279  0.4811 -0.7509  0.9220
15760TIP3   OH268694   5.721   0.596  15.098  0.1709  0.4621  0.1095
15760TIP3    H168695   5.653   0.530  15.110 -0.2973  0.8552 -0.2903
15760TIP3    H268696   5.783   0.580  15.168  0.3683 -0.7690 -0.3157
15761TIP3   OH268697   5.111   2.762   0.100  0.2358 -0.0400  0.4792
15761TIP3    H168698   5.052   2.784   0.172 -0.1986 -2.3008  0.8767
15761TIP3    H268699   5.155   2.682   0.129  1.9386  0.3964 -0.7290
15762TIP3   OH268700   0.848   6.177   1.799 -0.4239  0.0689 -0.5885
15762TIP3    H168701   0.756   6.195   1.781 -0.3008  2.9691  1.1121
15762TIP3    H268702   0.897   6.230   1.736  0.0530  0.3330 -0.0122
15763TIP3   OH268703   5.450   1.730   5.605 -0.0795 -0.0377 -0.2179
15763TIP3    H168704   5.416   1.678   5.678 -0.3790 -1.1963 -1.1390
15763TIP3    H268705   5.447   1.670   5.530  0.8361  0.9033 -1.0444
15764TIP3   OH268706   4.109   6.120  11.991 -0.1125  0.3207  0.5181
15764TIP3    H168707   4.086   6.205  11.953 -0.8373  0.1558  0.5844
15764TIP3    H268708   4.163   6.142  12.067  0.4826  0.6854  0.0093
15765TIP3   OH268709   3.271   3.479  17.060  0.2254  0.1030 -0.0011
15765TIP3    H168710   3.231   3.394  17.043 -0.9158  0.1222  2.2335
15765TIP3    H268711   3.306   3.472  17.148  0.8713  1.6879 -0.0939
15766TIP3   OH268712   3.674   0.806  11.290 -0.1878  0.1854  0.5043
15766TIP3    H168713   3.719   0.871  11.236  0.6413 -0.7361  0.0441
15766TIP3    H268714   3.735   0.733  11.294 -2.0096 -1.5161 -0.9053
15767TIP3   OH268715   1.722   4.733   5.877  0.1010  0.0347  0.4668
15767TIP3    H168716   1.777   4.747   5.954 -0.1829  0.8258  0.5336
15767TIP3    H268717   1.681   4.818   5.860  0.1126 -0.1371 -0.5262
15768TIP3   OH268718   0.532   6.731   1.759 -0.3226 -0.0586 -0.1661
15768TIP3    H168719   0.600   6.720   1.693 -2.3864 -0.6793 -2.3434
15768TIP3    H268720   0.539   6.654   1.815  0.8181 -0.0327 -0.2583
15769TIP3   OH268721   5.246   2.911  17.061 -0.0922  0.1317  0.0513
15769TIP3    H168722   5.163   2.948  17.031 -0.3882 -0.0584  0.6191
15769TIP3    H268723   5.226   2.873  17.147  0.4017 -0.5970 -0.1467
15770TIP3   OH268724   2.790   3.861  11.135  0.2032 -0.4002  0.3797
15770TIP3    H168725   2.776   3.863  11.040  2.5487 -1.6704 -0.0754
15770TIP3    H268726   2.770   3.771  11.160 -0.2952 -0.0985  1.0752
15771TIP3   OH268727   3.531   0.197  16.788 -0.2549 -0.5874 -0.2692
15771TIP3    H168728   3.493   0.247  16.716  0.3002 -0.5592 -0.5519
15771TIP3    H268729   3.597   0.141  16.746  0.1058 -0.5415  0.2239
15772TIP3   OH268730   5.211   4.203  14.157  0.1732  0.2462  0.7024
15772TIP3    H168731   5.235   4.294  14.171 -2.0946  0.7974  1.5153
15772TIP3    H268732   5.225   4.188  14.063  0.2756  1.5218  0.4989
15773TIP3   OH268733   2.061   4.039   4.178  0.6005  0.2828  0.0192
15773TIP3    H168734   2.118   4.010   4.249  0.9856  1.4121  0.1821
15773TIP3    H268735   1.977   4.056   4.220 -0.0783 -1.8537 -0.2954
15774TIP3   OH268736   2.207   2.288   1.621 -0.0606  0.0581 -0.1082
15774TIP3    H168737   2.114   2.287   1.598 -0.6699  3.6942  1.4850
15774TIP3    H268738   2.250   2.243   1.548 -2.9786 -1.3724 -1.0969
15775TIP3   OH268739   0.092   6.130  12.576  0.1113 -0.3608 -0.2311
15775TIP3    H168740   0.103   6.042  12.612 -0.0118 -0.2057  0.1980
15775TIP3    H268741   0.068   6.116  12.484  1.5154 -0.7442 -0.5542
15776TIP3   OH268742   6.524   3.616   5.030 -0.0858 -0.0203 -0.1912
15776TIP3    H168743   6.458   3.671   5.072  1.2916  0.1182  1.9933
15776TIP3    H268744   6.485   3.529   5.027  0.2188 -0.3860  2.8712
15777TIP3   OH268745   1.809   3.819   1.010 -0.0338 -0.2705  1.1017
15777TIP3    H168746   1.815   3.835   0.916  0.8764 -0.1005  1.1843
15777TIP3    H268747   1.835   3.728   1.020 -2.1371 -0.9439  0.9837
15778TIP3   OH268748   4.562   0.370  13.638  0.0832  0.6712 -0.2629
15778TIP3    H168749   4.610   0.292  13.609 -1.5541 -0.0895 -1.0413
15778TIP3    H268750   4.595   0.386  13.726 -2.7449 -3.7435  1.9668
15779TIP3   OH268751   4.441   1.766  14.094 -0.3067  0.1100 -0.0030
15779TIP3    H168752   4.490   1.766  14.175 -0.2056  1.3047 -0.0479
15779TIP3    H268753   4.504   1.793  14.027  0.0074 -2.3103 -0.7611
15780TIP3   OH268754   2.163   1.816  13.428  0.2293 -0.2453 -0.1742
15780TIP3    H168755   2.089   1.859  13.385 -0.0914  0.3621  0.9180
15780TIP3    H268756   2.123   1.742  13.475  0.2380  0.2552  0.6566
15781TIP3   OH268757   0.248   3.627  14.029  0.7249  0.4716 -0.4274
15781TIP3    H168758   0.177   3.564  14.043  1.1633  0.3284  1.5035
15781TIP3    H268759   0.239   3.654  13.938 -3.0687  1.9321  0.1723
15782TIP3   OH268760   4.836   5.775  13.905  0.3523  0.1610  0.1000
15782TIP3    H168761   4.893   5.714  13.952  1.1602  0.0386 -0.9887
15782TIP3    H268762   4.897   5.836  13.862 -0.3302  0.0433 -1.0717
15783TIP3   OH268763   5.842   2.016   2.521  0.2527 -0.2901  0.0893
15783TIP3    H168764   5.759   2.027   2.567  0.5984  0.4586  0.5641
15783TIP3    H268765   5.860   1.922   2.526 -0.9813 -0.5967 -0.7894
15784TIP3   OH268766   2.275   1.660   3.179 -0.1599  0.2544  0.2920
15784TIP3    H168767   2.266   1.615   3.263  0.2799 -0.0856  0.1607
15784TIP3    H268768   2.305   1.748   3.201 -0.5343  0.3312  0.5175
15785TIP3   OH268769   4.315   2.868  15.211  0.3829  0.0831  0.0406
15785TIP3    H168770   4.282   2.826  15.291  0.3486 -0.4215 -0.2335
15785TIP3    H268771   4.262   2.947  15.202 -0.2245 -0.3216  0.0237
15786TIP3   OH268772   0.433   1.010   5.525 -0.1283 -0.4921  0.5820
15786TIP3    H168773   0.463   1.091   5.567  0.2870 -1.3277  1.9330
15786TIP3    H268774   0.355   1.037   5.475  0.4513  0.8866  0.3668
15787TIP3   OH268775   5.304   4.404   2.513 -0.3019  0.0908 -0.6127
15787TIP3    H168776   5.265   4.316   2.520 -0.5135  0.0984 -1.5309
15787TIP3    H268777   5.340   4.406   2.425  0.0339  0.8023 -0.4597
15788TIP3   OH268778   6.511   5.004   5.833  0.0504 -0.0088 -0.7270
15788TIP3    H168779   6.486   5.037   5.747 -0.3073  1.4325 -0.1081
15788TIP3    H268780   6.457   5.054   5.894  1.7447  0.4647  0.4484
15789TIP3   OH268781   2.376   1.497   6.343  0.0168  0.2704 -0.0062
15789TIP3    H168782   2.431   1.427   6.377  1.2124  1.9547  1.7319
15789TIP3    H268783   2.418   1.524   6.261  1.1885  0.7804  0.7330
15790TIP3   OH268784   3.772   1.264   3.071 -0.9062  0.2243 -0.0350
15790TIP3    H168785   3.824   1.184   3.068 -0.3933  0.5552 -0.3997
15790TIP3    H268786   3.682   1.236   3.061 -1.1570 -0.6607  3.4659
15791TIP3   OH268787   4.987   3.562   2.686  0.4485  0.1662 -0.3791
15791TIP3    H168788   5.049   3.500   2.649 -1.1159 -1.1206 -0.9911
15791TIP3    H268789   5.022   3.584   2.772  2.0355 -0.0068 -0.9512
15792TIP3   OH268790   4.629   5.947   5.946 -0.5964 -0.2313  0.2659
15792TIP3    H168791   4.613   6.008   6.018 -0.2776 -2.0146  1.9022
15792TIP3    H268792   4.594   5.992   5.869  1.2065  2.7735  1.0470
15793TIP3   OH268793   6.767   3.026   1.682  0.0806 -0.2604 -0.0035
15793TIP3    H168794   6.792   2.939   1.652  0.4272  0.3277 -1.5057
15793TIP3    H268795   6.721   3.065   1.608 -0.8317  0.5438  0.9399
15794TIP3   OH268796   4.553   2.168  13.210 -0.3219 -0.2430 -0.6450
15794TIP3    H168797   4.467   2.200  13.237 -1.1055 -1.1153 -2.0047
15794TIP3    H268798   4.581   2.110  13.282  0.3385  1.9816  1.0127
15795TIP3   OH268799   0.119   3.255  15.100  0.8310  0.3612  0.6667
15795TIP3    H168800   0.176   3.279  15.027  1.0623  1.0714  1.0692
15795TIP3    H268801   0.067   3.335  15.116 -1.2759 -0.6548 -0.5881
15796TIP3   OH268802   5.488   6.488   5.500  0.1850 -0.1680 -0.7508
15796TIP3    H168803   5.494   6.581   5.519  1.5411 -0.2412 -0.6880
15796TIP3    H268804   5.575   6.454   5.523 -0.1555 -1.3625 -1.1796
15797TIP3   OH268805   6.187   0.607   1.761  0.4076 -0.3537 -0.2550
15797TIP3    H168806   6.272   0.564   1.747  0.0660 -0.9493 -0.5817
15797TIP3    H268807   6.160   0.578   1.848  0.2553 -0.6662 -0.4056
15798TIP3   OH268808   0.765   2.093   0.436 -0.2820 -0.2635 -0.6901
15798TIP3    H168809   0.676   2.120   0.460 -1.0048 -1.2813 -2.1063
15798TIP3    H268810   0.803   2.062   0.518 -1.8238 -1.3626 -0.3421
15799TIP3   OH268811   4.072   6.456  11.592  0.3292  0.0941 -0.3329
15799TIP3    H168812   4.072   6.551  11.580  2.4739 -0.0727 -2.7947
15799TIP3    H268813   4.044   6.422  11.507  0.0229 -1.4860  0.3747
15800TIP3   OH268814   3.670   1.290  13.219 -0.2016 -0.4608 -0.2462
15800TIP3    H168815   3.760   1.270  13.194 -0.4914  0.1304 -1.8493
15800TIP3    H268816   3.672   1.380  13.250 -0.4790  0.1036 -1.7777
15801TIP3   OH268817   2.066   3.853   6.608  0.2897 -0.3817 -1.2502
15801TIP3    H168818   1.976   3.871   6.635  0.3193 -1.1374 -0.5921
15801TIP3    H268819   2.060   3.774   6.554  0.7602 -1.7602  0.5863
15802TIP3   OH268820   6.446   6.701  16.190  0.2484 -0.4580 -0.1533
15802TIP3    H168821   6.384   6.741  16.131 -0.9853 -2.2499 -0.1573
15802TIP3    H268822   6.423   6.735  16.277  1.2572  1.1972 -0.4880
15803TIP3   OH268823   3.322   6.404  14.153 -0.1838  0.4753  0.2472
15803TIP3    H168824   3.256   6.471  14.166 -0.1315  0.9309 -1.5682
15803TIP3    H268825   3.284   6.324  14.190 -2.4789  0.3560 -2.0999
15804TIP3   OH268826   5.584   2.795  15.705  0.1690  0.1516  0.3091
15804TIP3    H168827   5.567   2.710  15.666  0.8623 -0.6351  1.6683
15804TIP3    H268828   5.583   2.780  15.799 -1.6714  2.0334  0.6757
15805TIP3   OH268829   1.378   4.144  12.412 -0.2851 -0.3634  0.2921
15805TIP3    H168830   1.343   4.192  12.487  0.9368 -0.1762  0.7722
15805TIP3    H268831   1.343   4.190  12.336  0.4750  1.0498  0.7435
15806TIP3   OH268832   1.387   2.661   2.432 -0.1219 -0.1650  0.0614
15806TIP3    H168833   1.376   2.662   2.527  0.1236  3.1605  0.1611
15806TIP3    H268834   1.352   2.745   2.403  2.5465  0.2433 -2.4184
15807TIP3   OH268835   0.961   2.851  15.855  0.1324  0.1403  0.5919
15807TIP3    H168836   0.914   2.916  15.907 -0.0549 -0.0553  0.6710
15807TIP3    H268837   0.965   2.774  15.912 -0.9979 -0.4304 -0.0601
15808TIP3   OH268838   2.347   2.064  16.992  0.5954  0.0100  0.0616
15808TIP3    H168839   2.286   2.002  17.031  2.1374 -1.7495 -0.2338
15808TIP3    H268840   2.353   2.135  17.056 -0.7283 -0.4103  0.6845
15809TIP3   OH268841   0.817   1.062   0.096 -0.1010  0.6261  0.0919
15809TIP3    H168842   0.747   1.122   0.071  0.0455  1.2719  1.1871
15809TIP3    H268843   0.836   1.084   0.187  1.6757  0.5992 -0.2487
15810TIP3   OH268844   4.061   3.718  10.848 -0.0734 -0.0779 -0.0887
15810TIP3    H168845   4.140   3.734  10.796  1.7218 -1.8954  1.8829
15810TIP3    H268846   4.002   3.671  10.789 -0.1269  2.0286 -1.8542
15811TIP3   OH268847   6.021   5.704   1.328  0.5410  0.4569 -0.1758
15811TIP3    H168848   6.021   5.612   1.353  1.2292  0.7167  0.8543
15811TIP3    H268849   5.933   5.735   1.349  1.0529  0.6466  2.0403
15812TIP3   OH268850   5.024   0.802  12.182  0.4217  0.3366  0.1950
15812TIP3    H168851   5.061   0.791  12.270  0.4053  0.0021  0.1637
15812TIP3    H268852   4.954   0.867  12.193 -0.7870 -1.0053  0.7977
15813TIP3   OH268853   4.174   0.181  15.681 -0.5967 -0.7252 -0.4995
15813TIP3    H168854   4.195   0.134  15.762  2.5788  1.0161 -0.1537
15813TIP3    H268855   4.240   0.151  15.618 -0.4426  0.9178 -1.1734
15814TIP3   OH268856   6.449   4.500   4.397  0.1338  0.2080  0.3790
15814TIP3    H168857   6.399   4.431   4.441  1.1423 -1.1195 -0.4664
15814TIP3    H268858   6.506   4.535   4.466  0.5651 -0.7521  0.5294
15815TIP3   OH268859   1.556   3.129  17.041  0.5119 -0.3668  0.6067
15815TIP3    H168860   1.645   3.102  17.016  0.4258  0.7887 -1.2123
15815TIP3    H268861   1.499   3.082  16.981  0.3137  2.7806 -1.9926
15816TIP3   OH268862   4.025   6.138  13.169 -0.3640 -0.4287  0.0237
15816TIP3    H168863   4.097   6.129  13.107  0.9773  2.2296  1.0287
15816TIP3    H268864   3.967   6.203  13.128 -0.9003 -0.7059  0.3316
15817TIP3   OH268865   1.394   4.820   4.781 -0.3432  0.0314  0.0484
15817TIP3    H168866   1.437   4.768   4.714  0.6815 -0.1429  0.8261
15817TIP3    H268867   1.301   4.797   4.773  0.0972 -2.0792  0.5218
15818TIP3   OH268868   6.149   0.899   1.071  0.3897  0.1137  0.1218
15818TIP3    H168869   6.236   0.863   1.055 -0.3962 -0.9936 -2.0359
15818TIP3    H268870   6.164   0.992   1.090  2.0558 -0.1137  0.0201
15819TIP3   OH268871   2.894   1.770   5.859  0.1410  0.0025  0.1722
15819TIP3    H168872   2.920   1.731   5.943 -1.3121  0.1438  0.7139
15819TIP3    H268873   2.951   1.846   5.849 -0.6773  0.8941  1.8087
15820TIP3   OH268874   1.736   6.176   3.588 -0.3848 -0.1840  0.3665
15820TIP3    H168875   1.773   6.156   3.502  0.5587 -1.7076  1.0846
15820TIP3    H268876   1.666   6.111   3.599 -0.8130  0.3049  0.5566
15821TIP3   OH268877   2.618   6.785   2.842 -0.6470 -0.2096  0.3446
15821TIP3    H168878   2.601   6.731   2.765  1.2577  0.5525 -0.6725
15821TIP3    H268879   2.713   6.791   2.846 -0.7354  0.4689  2.2928
15822TIP3   OH268880   4.691   4.587   6.700  0.3616  0.1937 -0.1661
15822TIP3    H168881   4.603   4.563   6.673 -0.6717  0.3520  2.7327
15822TIP3    H268882   4.717   4.518   6.761  2.2848  0.1777 -0.9112
15823TIP3   OH268883   2.452   0.264   4.477  0.3653 -0.0098  0.6873
15823TIP3    H168884   2.417   0.204   4.542  0.9969 -0.1491  0.9047
15823TIP3    H268885   2.386   0.265   4.407  1.6739 -3.4361 -0.8366
15824TIP3   OH268886   6.522   6.443  13.422 -0.0292  0.5734  0.2523
15824TIP3    H168887   6.591   6.509  13.426  0.7962 -0.3080  1.1739
15824TIP3    H268888   6.463   6.465  13.494  0.4905  0.0670  0.8460
15825TIP3   OH268889   6.487   5.854  16.259  0.0570  0.2517 -0.6111
15825TIP3    H168890   6.439   5.844  16.177  2.2517  0.4656 -2.0042
15825TIP3    H268891   6.443   5.927  16.304 -2.5811 -1.3130 -0.4627
15826TIP3   OH268892   5.075   1.803  12.988 -0.4004 -0.1332 -0.1417
15826TIP3    H168893   4.983   1.777  12.981 -0.8140  1.3236 -0.3459
15826TIP3    H268894   5.104   1.764  13.070 -1.1093 -0.8730 -0.2254
15827TIP3   OH268895   3.525   4.187   4.930 -0.3288 -0.4577  0.3750
15827TIP3    H168896   3.604   4.234   4.959 -0.5720  0.2625 -0.0993
15827TIP3    H268897   3.497   4.138   5.007  0.7395 -0.9462  0.4760
15828TIP3   OH268898   1.501   2.119  14.919 -0.3487  0.4537 -0.0796
15828TIP3    H168899   1.454   2.193  14.958 -0.5464 -0.0758  0.7303
15828TIP3    H268900   1.482   2.125  14.826 -1.3496  0.7380  0.1236
15829TIP3   OH268901   5.485   5.638   3.464 -0.5921  0.0306 -0.0961
15829TIP3    H168902   5.396   5.672   3.465 -0.0788  1.4619  0.3048
15829TIP3    H268903   5.497   5.596   3.549 -1.6503 -2.4339 -1.0695
15830TIP3   OH268904   3.522   6.440   0.746 -0.4783  0.1483  0.2361
15830TIP3    H168905   3.547   6.392   0.825  0.7511 -0.9303 -0.7693
15830TIP3    H268906   3.435   6.406   0.724  0.1240 -1.2293 -0.1234
15831TIP3   OH268907   0.043   4.788   2.632 -0.3622 -0.3545 -0.1564
15831TIP3    H168908   0.112   4.739   2.586 -1.9063 -1.2551 -1.6273
15831TIP3    H268909   0.090   4.838   2.699  1.6194 -1.5443 -0.5729
15832TIP3   OH268910   0.009   6.363  14.488 -0.5409  1.0566 -0.3558
15832TIP3    H168911   0.023   6.449  14.528 -2.2544  1.2111 -0.0269
15832TIP3    H268912   0.066   6.304  14.538 -0.8749  1.6611  0.7759
15833TIP3   OH268913   5.762   4.593  15.606 -0.2865 -0.1425 -0.4685
15833TIP3    H168914   5.756   4.498  15.616  1.0179 -0.1701  0.3480
15833TIP3    H268915   5.672   4.623  15.601 -0.7668 -1.2823  0.7796
15834TIP3   OH268916   6.147   6.348   5.251  0.3456  0.2869  0.3010
15834TIP3    H168917   6.240   6.340   5.231 -0.0642 -2.5189 -0.9515
15834TIP3    H268918   6.109   6.263   5.226 -2.6096  1.4269  0.4509
15835TIP3   OH268919   4.992   0.344  16.592  0.2559  0.1623  0.7103
15835TIP3    H168920   5.078   0.384  16.588  0.1706  0.3476  0.7147
15835TIP3    H268921   5.007   0.256  16.628  0.8408 -0.9603 -2.0441
15836TIP3   OH268922   4.074   0.262  15.343 -0.2784  0.2379  1.3004
15836TIP3    H168923   4.102   0.188  15.289  0.9855  0.9216  0.9667
15836TIP3    H268924   4.000   0.229  15.393  0.1860 -1.2155  1.0722
15837TIP3   OH268925   4.000   4.466  11.435  0.1127  0.5900 -0.0799
15837TIP3    H168926   3.940   4.538  11.453 -0.7933 -0.3949  1.0651
15837TIP3    H268927   4.087   4.507  11.432 -0.1264  1.4915  2.6096
15838TIP3   OH268928   3.089   1.628  16.190 -0.4059 -0.6970 -0.4618
15838TIP3    H168929   3.164   1.688  16.190  0.0953 -1.3001  0.0285
15838TIP3    H268930   3.052   1.634  16.102 -0.0210 -0.0975 -0.5860
15839TIP3   OH268931   6.445   6.108   1.553  0.3888  0.0932  0.0750
15839TIP3    H168932   6.384   6.161   1.501 -0.0395  0.3928  0.8676
15839TIP3    H268933   6.468   6.035   1.496 -1.5602 -0.6222  0.1332
15840TIP3   OH268934   4.915   2.322   0.541  0.0183  0.2882 -0.4628
15840TIP3    H168935   4.834   2.300   0.494  1.1788  0.2798 -2.5742
15840TIP3    H268936   4.889   2.390   0.603 -1.5073  0.6548 -1.4417
15841TIP3   OH268937   5.108   6.507   2.551 -0.1675  0.3253 -0.5569
15841TIP3    H168938   5.121   6.469   2.638 -0.5775  0.6176 -0.3584
15841TIP3    H268939   5.196   6.527   2.519 -0.0593  1.9408  0.5903
15842TIP3   OH268940   4.300   4.337   0.751  0.4465 -0.1619  0.0535
15842TIP3    H168941   4.381   4.356   0.798 -0.2110  0.3139  1.0171
15842TIP3    H268942   4.238   4.310   0.819 -0.1578 -0.6833 -0.6900
15843TIP3   OH268943   3.559   1.907  14.398  0.6692  0.1275  0.2381
15843TIP3    H168944   3.564   1.990  14.351  2.2045  1.2472  2.1776
15843TIP3    H268945   3.634   1.856  14.365  0.8409  0.2907  0.3729
15844TIP3   OH268946   3.960   2.811  15.237 -0.3459  0.0217 -0.3551
15844TIP3    H168947   3.949   2.891  15.186 -0.7387  0.1359 -0.0925
15844TIP3    H268948   4.024   2.833  15.304 -1.2822  0.4512  0.4138
15845TIP3   OH268949   4.500   3.738   5.162 -0.1344  0.1456  0.5361
15845TIP3    H168950   4.564   3.730   5.092  0.4735 -0.6048  1.1648
15845TIP3    H268951   4.537   3.802   5.222  0.5843 -1.1131  1.4709
15846TIP3   OH268952   4.624   3.897   5.348  0.1601  0.2259 -0.1105
15846TIP3    H168953   4.711   3.882   5.386 -0.1132 -1.2424 -0.0324
15846TIP3    H268954   4.587   3.968   5.400  0.4745 -0.5944  1.2693
15847TIP3   OH268955   4.956   6.590   0.089 -0.5908  0.1053  0.1374
15847TIP3    H168956   4.970   6.684   0.084  0.2029 -0.0459 -0.9047
15847TIP3    H268957   5.043   6.553   0.106 -0.7458 -0.4923 -0.3150
15848TIP3   OH268958   1.162   4.276   1.052  0.7827 -0.1272 -0.1200
15848TIP3    H168959   1.195   4.217   0.984  0.8109  0.3118 -0.4964
15848TIP3    H268960   1.079   4.237   1.080 -0.0774  0.5773 -1.6157
15849TIP3   OH268961   3.145   2.002   5.318  0.4682  0.2421 -0.5583
15849TIP3    H168962   3.184   1.952   5.246 -0.1804 -0.0001 -0.7440
15849TIP3    H268963   3.123   2.087   5.279 -0.8213 -0.2423 -0.9218
15850TIP3   OH268964   3.532   4.746   5.398  0.3044  0.5286 -0.3166
15850TIP3    H168965   3.451   4.698   5.386  0.3439  0.5941 -0.9165
15850TIP3    H268966   3.600   4.678   5.398  0.0812  0.1042  3.3584
15851TIP3   OH268967   3.681   0.222   3.085  0.4141 -0.0104 -0.2421
15851TIP3    H168968   3.693   0.252   3.175  0.4611 -1.5589  0.2935
15851TIP3    H268969   3.586   0.216   3.075  0.3710  1.0080 -0.6158
15852TIP3   OH268970   6.415   1.143  12.324 -0.3317  0.8236 -0.0460
15852TIP3    H168971   6.510   1.134  12.324 -0.3374  0.7361 -0.6123
15852TIP3    H268972   6.386   1.097  12.245 -0.7002  2.2085 -0.7470
15853TIP3   OH268973   1.552   1.240   4.323  0.0518  0.0684 -0.1123
15853TIP3    H168974   1.600   1.321   4.336 -1.4714  1.0846 -0.6183
15853TIP3    H268975   1.545   1.202   4.411 -0.4134  1.1893  0.3535
15854TIP3   OH268976   1.320   5.880   5.486  0.7818 -0.4559  0.2494
15854TIP3    H168977   1.364   5.940   5.546  1.8494  0.6715 -1.5823
15854TIP3    H268978   1.323   5.924   5.401  1.1566 -2.8752 -1.0811
15855TIP3   OH268979   1.740   3.715   2.049 -0.2231  0.0207  0.1243
15855TIP3    H168980   1.804   3.690   2.115 -1.1432  0.3505  1.1680
15855TIP3    H268981   1.775   3.680   1.967  0.8247 -0.5919  0.8130
15856TIP3   OH268982   5.589   1.310   3.442 -0.0645  0.2887  0.4989
15856TIP3    H168983   5.622   1.230   3.484  1.6237  0.3534 -0.5783
15856TIP3    H268984   5.635   1.381   3.487 -1.2744  0.6440  1.1966
15857TIP3   OH268985   2.288   0.230  13.258  0.3484 -0.0362  0.4779
15857TIP3    H168986   2.285   0.311  13.207 -1.8131 -0.0584  0.4720
15857TIP3    H268987   2.265   0.161  13.195 -0.6920 -0.2650  1.0700
15858TIP3   OH268988   4.360   0.380   5.466 -0.1854 -0.1692  0.4278
15858TIP3    H168989   4.286   0.341   5.420 -0.3523  0.3378  0.2519
15858TIP3    H268990   4.435   0.325   5.442 -0.3454 -0.1653 -0.1090
15859TIP3   OH268991   2.789   2.773  16.330  0.3240 -0.2261  0.1144
15859TIP3    H168992   2.765   2.680  16.327  0.3915 -0.2374 -0.0665
15859TIP3    H268993   2.719   2.817  16.282 -0.8420  0.0549  1.9678
15860TIP3   OH268994   6.114   6.649  11.349 -0.0493 -0.0941  0.0195
15860TIP3    H168995   6.099   6.705  11.426 -0.3107  1.4495 -1.1117
15860TIP3    H268996   6.190   6.687  11.306 -1.0725  0.2649 -1.5293
15861TIP3   OH268997   6.474   1.314   5.638  0.7676  0.1920  0.0478
15861TIP3    H168998   6.472   1.400   5.597  1.3446  0.4577  0.5547
15861TIP3    H268999   6.399   1.314   5.698  1.5281  0.8542  1.0248
15862TIP3   OH269000   3.927   1.238  13.145  0.2274 -0.6675 -0.1548
15862TIP3    H169001   3.979   1.316  13.166 -1.1130  0.0563  0.6386
15862TIP3    H269002   3.977   1.165  13.183  1.7217 -0.2795 -1.2942
15863TIP3   OH269003   5.340   5.739   3.682 -0.0029  0.0328  0.3012
15863TIP3    H169004   5.276   5.803   3.713 -0.7444 -1.2250  1.4819
15863TIP3    H269005   5.342   5.672   3.751  2.4625 -0.0625  0.1995
15864TIP3   OH269006   0.982   0.836   0.299  0.1548  0.4920  0.6134
15864TIP3    H169007   0.896   0.793   0.295 -1.0103  2.6289  1.2432
15864TIP3    H269008   0.962   0.927   0.323  2.5719  1.1674  0.2723
15865TIP3   OH269009   1.401   2.680   3.118  0.1932  0.0033  0.3107
15865TIP3    H169010   1.339   2.670   3.189  0.6188 -0.9351  0.5703
15865TIP3    H269011   1.399   2.774   3.096  0.3958  0.3891  1.8537
15866TIP3   OH269012   3.363   3.691   5.586  0.0222 -0.1753  0.0515
15866TIP3    H169013   3.313   3.667   5.665  0.6478 -0.8135  0.2668
15866TIP3    H269014   3.419   3.763   5.614  1.7500 -1.7406  0.7888
15867TIP3   OH269015   3.062   3.395   2.597  0.4463  0.9105  0.1475
15867TIP3    H169016   3.053   3.460   2.665  0.8791  0.4833  0.6220
15867TIP3    H269017   3.147   3.354   2.613 -1.2585 -2.2608  2.0950
15868TIP3   OH269018   3.490   1.011  13.594  0.0575 -0.5206 -0.3023
15868TIP3    H169019   3.517   1.091  13.550 -1.0538 -0.1616 -0.3599
15868TIP3    H269020   3.572   0.969  13.621  0.6464  1.5699  1.4232
15869TIP3   OH269021   3.172   6.442   2.306  0.3486  0.8210  0.0552
15869TIP3    H169022   3.189   6.503   2.234  1.7114 -1.2556 -1.5203
15869TIP3    H269023   3.240   6.462   2.371 -0.9524  2.7782  0.9013
15870TIP3   OH269024   5.729   6.568   3.230  0.0103  0.0136 -0.2129
15870TIP3    H169025   5.725   6.563   3.326  0.4641  0.2552 -0.1811
15870TIP3    H269026   5.812   6.612   3.212  0.4312 -0.9775 -0.7488
15871TIP3   OH269027   4.018   1.522  12.021 -0.6864  0.0788 -0.5426
15871TIP3    H169028   3.926   1.497  12.006 -0.5231  0.1873 -1.8604
15871TIP3    H269029   4.068   1.455  11.975 -0.0036 -0.9360  1.5302
15872TIP3   OH269030   3.617   6.588   3.598  0.3512  0.5725 -0.3119
15872TIP3    H169031   3.692   6.575   3.656  0.7645 -1.7363 -1.2725
15872TIP3    H269032   3.655   6.595   3.511 -0.5148 -0.2782 -0.7741
15873TIP3   OH269033   5.869   5.948   5.808  0.2350 -0.4438  0.0947
15873TIP3    H169034   5.809   5.961   5.734  0.9361  1.6221 -0.1750
15873TIP3    H269035   5.934   6.018   5.799  2.6535 -2.5308  0.4547
15874TIP3   OH269036   6.479   2.056   0.849 -0.1270  0.4598 -0.0912
15874TIP3    H169037   6.534   2.087   0.922  1.7847  0.8116 -1.5836
15874TIP3    H269038   6.415   2.125   0.837 -0.9016  0.1056  1.6329
15875TIP3   OH269039   0.094   5.095  16.464 -0.1628 -0.1610 -0.1889
15875TIP3    H169040   0.148   5.165  16.426 -1.2690  0.3952 -0.7720
15875TIP3    H269041   0.143   5.067  16.541  1.8697 -0.9159 -1.6659
15876TIP3   OH269042   0.850   0.938   5.354  0.5188  0.3255 -0.1026
15876TIP3    H169043   0.815   1.008   5.410  1.2480  1.1230 -0.6210
15876TIP3    H269044   0.849   0.860   5.410  0.7172  0.9842  0.8539
15877TIP3   OH269045   0.592   5.594  13.763 -0.0940  0.3657 -0.5517
15877TIP3    H169046   0.498   5.589  13.782  0.0097  1.3003  0.2599
15877TIP3    H269047   0.604   5.534  13.689 -0.9155 -1.6443  0.8351
15878TIP3   OH269048   6.555   2.702  11.735  0.4390 -0.2522  0.1879
15878TIP3    H169049   6.498   2.779  11.726  0.4252 -0.0102  1.9732
15878TIP3    H269050   6.506   2.644  11.793  0.9257 -1.1708 -0.3011
15879TIP3   OH269051   5.785   2.967  13.764 -0.4659 -0.4421 -0.9702
15879TIP3    H169052   5.799   3.057  13.795 -2.1789  0.0350 -1.4947
15879TIP3    H269053   5.720   2.975  13.695  0.3856 -1.9505 -2.0009
15880TIP3   OH269054   4.349   5.137  15.943 -0.1966  0.3317  0.3567
15880TIP3    H169055   4.331   5.118  15.851 -0.1741 -2.7905  0.8840
15880TIP3    H269056   4.442   5.119  15.954 -0.0067  1.5196  0.8448
15881TIP3   OH269057   5.816   3.120   4.517  0.0593  0.7935 -0.2196
15881TIP3    H169058   5.783   3.093   4.432 -0.5908 -0.6386  0.4608
15881TIP3    H269059   5.749   3.179   4.551  0.0309  0.8876 -0.4388
15882TIP3   OH269060   2.041   6.304   5.851  0.1082 -0.5872  0.8164
15882TIP3    H169061   1.956   6.349   5.848  0.9906  1.1795  1.0391
15882TIP3    H269062   2.027   6.232   5.913 -1.0877 -0.0013  1.2681
15883TIP3   OH269063   5.153   0.357   0.143 -0.3957 -0.3098 -0.1877
15883TIP3    H169064   5.139   0.396   0.057  0.4677  1.3751  0.4028
15883TIP3    H269065   5.208   0.281   0.125 -1.0548 -0.5844 -1.2097
15884TIP3   OH269066   0.030   5.307  15.404  0.1871 -0.4912 -0.3573
15884TIP3    H169067  -0.057   5.346  15.394  0.5501  0.4438  0.0089
15884TIP3    H269068   0.089   5.382  15.409  0.7887 -1.0451  1.5728
15885TIP3   OH269069   5.819   0.707  14.390 -0.4236 -0.1243  0.5291
15885TIP3    H169070   5.833   0.732  14.481  0.0349 -2.0634  1.0327
15885TIP3    H269071   5.885   0.640  14.373 -0.5471  0.1528 -1.2138
15886TIP3   OH269072   6.706   5.548   6.353 -0.1825  0.2271 -0.7719
15886TIP3    H169073   6.648   5.617   6.384  0.6989  0.9840 -0.7821
15886TIP3    H269074   6.736   5.578   6.267  0.3283 -0.0804 -0.7090
15887TIP3   OH269075   4.133   2.395  13.699  0.1716 -0.1055  0.4772
15887TIP3    H169076   4.119   2.350  13.782  0.8486 -0.0900  0.6068
15887TIP3    H269077   4.096   2.335  13.633 -0.1722 -0.2160  0.7641
15888TIP3   OH269078   4.622   0.686   5.124  0.3145 -0.1379 -0.6381
15888TIP3    H169079   4.562   0.757   5.104 -0.4970 -0.8955 -0.9674
15888TIP3    H269080   4.707   0.729   5.135  0.1073  0.7493 -2.1143
15889TIP3   OH269081   5.146   4.255  16.733  0.1255 -0.2111 -0.0100
15889TIP3    H169082   5.214   4.272  16.668  0.5843 -3.1303 -0.3924
15889TIP3    H269083   5.191   4.267  16.817  0.5634 -0.2045 -0.2394
15890TIP3   OH269084   0.228   4.766   4.392 -0.0905  0.0557 -0.3215
15890TIP3    H169085   0.290   4.727   4.454  0.4346  0.8340 -0.3332
15890TIP3    H269086   0.272   4.760   4.307 -0.6188 -0.6055 -0.5599
15891TIP3   OH269087   5.597   5.377  12.344  0.2605  0.2118  0.6136
15891TIP3    H169088   5.582   5.471  12.340  1.1524  0.4090  1.5098
15891TIP3    H269089   5.513   5.338  12.317  0.4007  1.2304 -1.5065
15892TIP3   OH269090   3.533   6.339   4.476  0.2598 -0.1227 -0.4172
15892TIP3    H169091   3.443   6.370   4.469 -0.0316 -0.9442 -0.4755
15892TIP3    H269092   3.526   6.244   4.461  0.8591 -0.5082  1.4736
15893TIP3   OH269093   4.940   3.502  11.188  0.0333 -0.0856 -0.4690
15893TIP3    H169094   4.973   3.459  11.109  1.0040  0.5229 -0.4092
15893TIP3    H269095   4.875   3.565  11.156 -0.7950 -0.9992 -0.6262
15894TIP3   OH269096   5.138   5.970   4.451 -0.7672 -0.4085 -0.2523
15894TIP3    H169097   5.100   5.887   4.479 -1.9200 -0.0058 -0.5804
15894TIP3    H269098   5.154   6.017   4.533  0.9284 -1.3603  0.0084
15895TIP3   OH269099   4.337   5.418  14.675 -0.0708  0.2594  0.2259
15895TIP3    H169100   4.358   5.382  14.760 -0.7076 -0.4200  0.1055
15895TIP3    H269101   4.415   5.467  14.649  0.3680 -0.0760  0.9026
15896TIP3   OH269102   5.749   3.548   1.391 -0.7002  0.3039  0.6101
15896TIP3    H169103   5.795   3.633   1.393 -0.5702  0.3310 -1.5173
15896TIP3    H269104   5.808   3.491   1.341 -1.7829 -0.4104  0.1279
15897TIP3   OH269105   2.910   3.712  11.470 -0.5571 -0.7156  0.2717
15897TIP3    H169106   2.984   3.722  11.529  2.1566 -1.2699 -2.7787
15897TIP3    H269107   2.910   3.619  11.448  0.2035 -0.1332 -2.5000
15898TIP3   OH269108   1.234   6.719   3.367 -0.2672 -0.0358  0.1524
15898TIP3    H169109   1.174   6.778   3.321 -0.5410  0.2094  0.8227
15898TIP3    H269110   1.226   6.743   3.459  0.5823 -0.2495  0.2908
15899TIP3   OH269111   0.397   3.968  13.677  0.7929 -0.1283 -0.4871
15899TIP3    H169112   0.471   4.028  13.682  0.2111  0.7618 -2.0261
15899TIP3    H269113   0.379   3.959  13.584 -3.1764  2.4056 -0.2318
15900TIP3   OH269114   6.451   4.257   0.385 -0.5471  0.2424 -0.1748
15900TIP3    H169115   6.360   4.280   0.404  0.1016  1.2419  2.0187
15900TIP3    H269116   6.503   4.311   0.444  1.4448 -1.2842 -0.3966
15901TIP3   OH269117   0.139   6.629   5.354 -0.0376  0.0724  0.2791
15901TIP3    H169118   0.122   6.589   5.439  1.1606 -1.7914 -0.2878
15901TIP3    H269119   0.231   6.656   5.357  0.6051 -1.7497 -1.0014
15902TIP3   OH269120   2.005   3.765   5.890  0.4207 -0.9032  0.0359
15902TIP3    H169121   2.054   3.728   5.964 -1.0463 -2.9901  0.0484
15902TIP3    H269122   2.016   3.702   5.819  0.6444  0.3782 -1.1211
15903TIP3   OH269123   6.518   4.813  16.952 -0.0293 -0.0201  0.2367
15903TIP3    H169124   6.598   4.760  16.948  0.8707  1.3483 -0.7587
15903TIP3    H269125   6.451   4.752  16.981  1.5626 -0.9634  2.1974
15904TIP3   OH269126   6.357   6.130  15.098  0.2361  0.0789  0.3039
15904TIP3    H169127   6.276   6.164  15.060  1.0117 -0.7817 -2.3781
15904TIP3    H269128   6.415   6.205  15.101 -1.0080  1.0576  3.6614
15905TIP3   OH269129   4.342   1.424   0.610 -0.7193 -0.0347  0.0330
15905TIP3    H169130   4.361   1.459   0.523 -0.9748  0.1360  0.0456
15905TIP3    H269131   4.423   1.381   0.637 -1.0930 -1.4268 -0.9306
15906TIP3   OH269132   2.537   2.027   3.535 -0.3122 -0.1965  0.2881
15906TIP3    H169133   2.512   1.948   3.488 -0.9866 -0.6559  1.3885
15906TIP3    H269134   2.574   1.995   3.618  2.2166  0.5261 -0.4663
15907TIP3   OH269135   0.792   5.267   4.867  0.0137 -0.3851  0.6587
15907TIP3    H169136   0.834   5.193   4.910 -0.1052  0.6072  2.6078
15907TIP3    H269137   0.713   5.284   4.919 -0.3867  0.6060 -0.2240
15908TIP3   OH269138   6.253   6.699  10.715  0.0468 -0.0512 -0.2374
15908TIP3    H169139   6.293   6.783  10.740 -0.8768  0.5438 -0.7381
15908TIP3    H269140   6.246   6.651  10.798  1.7749 -0.1808 -0.1291
15909TIP3   OH269141   4.089   0.489  11.232  0.2859  0.2694 -0.0274
15909TIP3    H169142   4.104   0.520  11.142  2.8410 -0.6953 -0.0083
15909TIP3    H269143   4.080   0.394  11.223  0.6602  0.1565  0.7243
15910TIP3   OH269144   1.348   2.105  13.391 -0.0854  0.1335 -0.0154
15910TIP3    H169145   1.433   2.089  13.352  0.4471  1.5850  0.4605
15910TIP3    H269146   1.285   2.090  13.320  0.6881  0.5443 -0.8061
15911TIP3   OH269147   5.150   3.858  16.249  0.0603  0.1672 -0.3325
15911TIP3    H169148   5.096   3.920  16.298 -0.2692 -0.8494  0.6011
15911TIP3    H269149   5.223   3.912  16.216 -0.7773  1.2652 -0.4502
15912TIP3   OH269150   1.417   3.321   2.598  0.0097 -0.2467  0.1912
15912TIP3    H169151   1.455   3.408   2.600 -0.9990  0.1942  1.4565
15912TIP3    H269152   1.325   3.335   2.577 -0.0299 -1.0731 -0.2503
15913TIP3   OH269153   0.537   5.997   1.110  0.0741 -0.1087  0.5701
15913TIP3    H169154   0.470   6.056   1.145  0.8618  0.3602  1.3206
15913TIP3    H269155   0.529   6.006   1.015 -4.0661 -3.5593  0.2859
15914TIP3   OH269156   1.066   6.191   0.049  0.0539  0.5634 -0.0780
15914TIP3    H169157   1.145   6.242   0.066  1.0005  0.1221 -2.7846
15914TIP3    H269158   1.093   6.100   0.059  0.0783  0.3875 -1.5655
15915TIP3   OH269159   2.784   6.209  14.784  0.2379  0.1117  0.3525
15915TIP3    H169160   2.749   6.274  14.723 -0.5884 -0.6283 -0.0026
15915TIP3    H269161   2.728   6.216  14.861 -0.3035 -0.6246  0.0430
15916TIP3   OH269162   3.928   0.300  13.236  0.1883 -0.4247  0.1335
15916TIP3    H169163   3.893   0.364  13.175  0.0704 -1.5755 -1.0419
15916TIP3    H269164   3.880   0.220  13.218  0.9035 -1.0801  0.9998
15917TIP3   OH269165   6.352   4.858   2.974  0.4810 -0.0579 -0.5481
15917TIP3    H169166   6.273   4.855   2.918 -0.1419  1.5309  0.1975
15917TIP3    H269167   6.321   4.894   3.057  2.1063  1.1860 -0.4350
15918TIP3   OH269168   0.136   1.880   5.470  0.5536  0.8490 -0.2922
15918TIP3    H169169   0.218   1.835   5.449  0.3346  0.5260 -0.4611
15918TIP3    H269170   0.142   1.897   5.564 -0.2896 -1.5212  0.2752
15919TIP3   OH269171   1.339   5.717   0.155  1.0558  0.3826  0.2009
15919TIP3    H169172   1.285   5.644   0.187  0.6216  0.6063 -0.0069
15919TIP3    H269173   1.427   5.698   0.187  0.9432 -0.2287  0.1543
15920TIP3   OH269174   4.428   5.995  11.510  0.3713 -0.7805  0.4334
15920TIP3    H169175   4.346   6.037  11.537 -0.3858 -0.7187 -1.7583
15920TIP3    H269176   4.477   5.984  11.592 -1.3801  0.0996  1.6809
15921TIP3   OH269177   2.571   6.574   2.621  0.2289 -0.3696  0.4362
15921TIP3    H169178   2.544   6.575   2.529  0.6665  0.8484  0.3023
15921TIP3    H269179   2.540   6.489   2.654 -0.8700 -0.3888 -0.5546
15922TIP3   OH269180   6.552   4.672   3.841  0.0145  0.5145  0.4749
15922TIP3    H169181   6.482   4.693   3.778  0.4738 -0.7546 -0.5205
15922TIP3    H269182   6.626   4.644   3.786 -0.0486 -2.1075  1.5479
15923TIP3   OH269183   1.548   4.806   0.160  0.5238  0.1414 -0.1613
15923TIP3    H169184   1.526   4.801   0.067 -0.3694 -0.6622  0.0804
15923TIP3    H269185   1.499   4.882   0.192  2.1931  1.4879 -0.6849
15924TIP3   OH269186   5.300   5.597   0.834  0.5363 -0.0185  0.1338
15924TIP3    H169187   5.245   5.648   0.774  0.8589 -0.7388 -0.7881
15924TIP3    H269188   5.262   5.614   0.920 -0.4863  0.3290 -0.3661
15925TIP3   OH269189   3.614   5.620   4.707 -0.2451 -0.1513 -0.3627
15925TIP3    H169190   3.639   5.529   4.688  0.6205  0.2044 -0.9864
15925TIP3    H269191   3.541   5.638   4.648  0.3478 -0.0758 -1.0835
15926TIP3   OH269192   1.033   0.276  14.728  0.0585  0.1606 -0.2160
15926TIP3    H169193   1.019   0.328  14.807 -0.3930  1.6462 -1.2291
15926TIP3    H269194   0.945   0.253  14.699  0.2430 -0.8790  0.0050
15927TIP3   OH269195   0.648   0.560   4.359  0.0434 -0.0612 -0.1179
15927TIP3    H169196   0.620   0.472   4.336 -1.3070  0.6451 -1.2976
15927TIP3    H269197   0.600   0.617   4.299 -0.8969  1.6414  2.1095
15928TIP3   OH269198   4.434   1.253  10.670 -0.0144 -0.1948  0.3606
15928TIP3    H169199   4.483   1.335  10.670  0.0332 -0.2062 -0.6146
15928TIP3    H269200   4.436   1.224  10.578  0.0098 -1.3065  0.6966
15929TIP3   OH269201   4.692   4.958   2.101  0.1536 -0.5340 -0.4055
15929TIP3    H169202   4.748   4.912   2.164 -0.0623 -1.6694 -1.0187
15929TIP3    H269203   4.734   5.043   2.089 -0.2216  0.0398  1.8627
15930TIP3   OH269204   1.449   2.943  12.790 -0.4072  0.3863 -0.2346
15930TIP3    H169205   1.390   2.879  12.829 -1.1458  2.2118  1.8661
15930TIP3    H269206   1.482   2.900  12.711 -0.7897 -2.5717  1.0686
15931TIP3   OH269207   3.101   2.226   5.170  0.2817 -0.1432 -0.1023
15931TIP3    H169208   3.059   2.253   5.088  0.0338  1.5318  0.5467
15931TIP3    H269209   3.123   2.308   5.214  0.5894 -1.0100  1.4244
15932TIP3   OH269210   3.348   6.584   0.405  0.0576 -0.8869 -0.0535
15932TIP3    H169211   3.408   6.517   0.372 -0.7708 -2.0930  0.8618
15932TIP3    H269212   3.299   6.612   0.328  1.4033 -0.2454 -0.7227
15933TIP3   OH269213   5.774   1.993   4.843  0.5796 -0.2922  0.1073
15933TIP3    H169214   5.688   2.009   4.805  0.1525 -0.5506  0.9356
15933TIP3    H269215   5.770   1.903   4.874  0.6473  0.1270  1.3885
15934TIP3   OH269216   3.767   2.922  15.462 -0.2341 -0.0761 -0.1488
15934TIP3    H169217   3.833   2.930  15.532 -0.4253 -0.6770  0.1097
15934TIP3    H269218   3.816   2.938  15.382 -0.3281  2.2720  0.1884
15935TIP3   OH269219   4.123   3.776  11.526  0.3462 -0.4845  0.2781
15935TIP3    H169220   4.106   3.749  11.617  1.0727  0.1014  0.6004
15935TIP3    H269221   4.133   3.871  11.530 -3.6240  0.1741 -1.0706
15936TIP3   OH269222   5.575   4.951  17.081 -0.0520  0.7197 -0.1327
15936TIP3    H169223   5.603   4.986  16.996  0.5899 -0.1852 -0.3167
15936TIP3    H269224   5.584   5.024  17.142  1.0200  0.9590 -0.5500
15937TIP3   OH269225   0.393   2.913   1.449  0.3841  0.0617  0.1820
15937TIP3    H169226   0.450   2.873   1.382 -1.0830 -1.4966 -0.2173
15937TIP3    H269227   0.394   2.850   1.521 -1.3538 -0.3584 -0.1247
15938TIP3   OH269228   6.237   1.824  15.747  0.5480  0.1937  0.2484
15938TIP3    H169229   6.281   1.745  15.715  0.5008  0.1872  0.2011
15938TIP3    H269230   6.144   1.804  15.743  0.4470  0.8920 -1.4663
15939TIP3   OH269231   2.382   0.573  12.140  0.2601 -0.2103 -0.2848
15939TIP3    H169232   2.455   0.555  12.200  1.0654  0.7125 -0.9673
15939TIP3    H269233   2.310   0.598  12.198  0.8174 -0.0072  0.3360
15940TIP3   OH269234   3.280   3.201   2.061 -0.4037 -0.1999  0.6294
15940TIP3    H169235   3.357   3.202   2.004  0.2097 -0.5419  1.4324
15940TIP3    H269236   3.291   3.276   2.119 -1.4792  0.6848 -0.2451
15941TIP3   OH269237   5.856   2.763  15.066 -0.6484  0.2405 -0.0556
15941TIP3    H169238   5.856   2.787  15.159 -0.6525 -0.3155  0.0948
15941TIP3    H269239   5.805   2.682  15.062  0.3678 -0.4105 -0.3548
15942TIP3   OH269240   6.520   1.353   2.032  0.2009 -0.0955 -0.4495
15942TIP3    H169241   6.530   1.259   2.017 -1.5458 -0.1362 -1.6215
15942TIP3    H269242   6.516   1.361   2.127 -0.7189 -1.3458 -0.3568
15943TIP3   OH269243   4.087   4.308   2.845 -0.7152 -0.8422  0.0301
15943TIP3    H169244   4.128   4.344   2.766 -3.2082  0.9734 -0.5473
15943TIP3    H269245   4.024   4.243   2.812  0.3128 -2.2922  0.7905
15944TIP3   OH269246   2.706   0.346  13.603 -0.6908 -0.1196 -0.6999
15944TIP3    H169247   2.679   0.397  13.527 -1.1036 -0.0456 -0.5115
15944TIP3    H269248   2.625   0.335  13.654 -0.5978 -0.9028 -0.7021
15945TIP3   OH269249   0.940   3.668  10.568  0.4776 -0.1891 -0.4659
15945TIP3    H169250   1.035   3.658  10.580  0.7306  1.4906 -0.7782
15945TIP3    H269251   0.932   3.729  10.494 -0.8816 -1.4491 -1.4003
15946TIP3   OH269252   0.626   4.449   0.085 -0.3223 -0.1715 -0.3406
15946TIP3    H169253   0.704   4.472   0.137 -0.1510  0.0853 -0.7029
15946TIP3    H269254   0.629   4.510   0.011 -1.0563  0.0634 -0.1839
15947TIP3   OH269255   3.711   6.756  14.186 -0.3287  0.2128  0.5996
15947TIP3    H169256   3.699   6.840  14.143 -3.1454 -0.9401 -1.1066
15947TIP3    H269257   3.677   6.770  14.275 -1.9347  0.6122 -0.0408
15948TIP3   OH269258   1.724   3.589  11.410 -0.4173 -0.0875 -0.0251
15948TIP3    H169259   1.633   3.561  11.400 -0.4480  0.0882 -0.2611
15948TIP3    H269260   1.747   3.624  11.324  0.0119 -0.5327 -0.0925
15949TIP3   OH269261   0.322   3.032   0.217 -0.3581 -0.2533  0.1674
15949TIP3    H169262   0.308   3.007   0.126  0.8876  0.0650 -0.1309
15949TIP3    H269263   0.237   3.016   0.260 -0.6672 -1.3634 -0.8108
15950TIP3   OH269264   2.786   5.138  16.529 -0.3207  0.1454 -0.4292
15950TIP3    H169265   2.819   5.205  16.470 -0.7797 -0.2566 -1.1560
15950TIP3    H269266   2.817   5.055  16.492 -0.4681 -0.1006 -0.0106
15951TIP3   OH269267   3.364   3.469   1.480 -0.2160  0.3438 -0.0953
15951TIP3    H169268   3.272   3.465   1.507 -0.1586  0.5591  0.1369
15951TIP3    H269269   3.376   3.393   1.424 -0.6720  0.5959 -0.5398
15952TIP3   OH269270   1.608   5.743   2.194 -0.1313 -0.3009  0.3746
15952TIP3    H169271   1.513   5.742   2.190 -0.2075 -0.9944  1.7195
15952TIP3    H269272   1.637   5.707   2.110 -1.0008  1.0146 -0.5356
15953TIP3   OH269273   0.937   6.799   1.999  0.1881 -0.1922  0.4439
15953TIP3    H169274   0.998   6.725   2.002 -0.1089 -0.4054  1.4067
15953TIP3    H269275   0.859   6.768   2.044 -0.3861  0.3180 -0.1757
15954TIP3   OH269276   5.777   0.442   4.033  0.0883  0.6728 -0.5264
15954TIP3    H169277   5.719   0.518   4.043 -0.4987  0.0184  1.3559
15954TIP3    H269278   5.718   0.368   4.024  0.6150  0.0992  0.5705
15955TIP3   OH269279   0.077   6.193   3.662 -0.0536 -0.4255  0.0515
15955TIP3    H169280   0.064   6.115   3.608 -0.5668 -1.5650  1.7383
15955TIP3    H269281   0.138   6.165   3.730 -0.7422  0.4483  1.0525
15956TIP3   OH269282   2.154   5.328   1.338 -0.3675 -0.3239 -0.2433
15956TIP3    H169283   2.162   5.394   1.270 -0.8917  0.6404  0.5967
15956TIP3    H269284   2.067   5.343   1.376 -0.3941 -1.3368  0.1290
15957TIP3   OH269285   1.052   6.125  13.805  0.0784 -0.4037  0.9373
15957TIP3    H169286   1.001   6.073  13.742 -0.1844 -0.5963  1.3098
15957TIP3    H269287   1.024   6.215  13.789 -0.9473 -0.5816  1.6573
15958TIP3   OH269288   6.487   3.736   0.959  0.0848  0.3276  0.4515
15958TIP3    H169289   6.577   3.762   0.982  0.3470 -0.7887  0.7627
15958TIP3    H269290   6.451   3.813   0.915  2.0264 -0.0404 -1.9768
15959TIP3   OH269291   0.085   6.366  16.827 -0.6163  0.4586 -0.2324
15959TIP3    H169292   0.139   6.321  16.762 -1.2468  1.2557 -1.3575
15959TIP3    H269293   0.148   6.406  16.887 -0.0283 -0.5388 -0.1549
15960TIP3   OH269294   4.311   6.206   4.170 -0.1955  0.1161 -0.3572
15960TIP3    H169295   4.256   6.129   4.158  1.2289 -0.6125 -3.2096
15960TIP3    H269296   4.292   6.261   4.093  0.6400  1.4263  0.3319
15961TIP3   OH269297   5.090   4.457  15.969 -0.1889  0.1263 -0.1653
15961TIP3    H169298   5.022   4.481  15.905 -0.7019 -0.3793  0.1793
15961TIP3    H269299   5.090   4.528  16.032 -0.4360  0.1056 -0.1417
15962TIP3   OH269300   3.954   6.681   4.745 -0.0684 -0.4274  0.2721
15962TIP3    H169301   3.889   6.724   4.801  0.3493  0.8979 -0.2299
15962TIP3    H269302   4.009   6.632   4.805  0.3148  0.9024  1.0371
15963TIP3   OH269303   2.465   2.178  15.091 -0.1562 -0.1510 -0.0147
15963TIP3    H169304   2.421   2.167  15.007 -0.8308  0.0399  0.3045
15963TIP3    H269305   2.407   2.136  15.155 -0.2286  0.7095  0.5085
15964TIP3   OH269306   2.529   5.945  11.270 -0.2331  0.1823 -0.5683
15964TIP3    H169307   2.572   5.860  11.264  0.3546  0.3946  0.4503
15964TIP3    H269308   2.435   5.926  11.264 -0.0618 -0.3800 -1.8443
15965TIP3   OH269309   0.067   1.551  11.345  0.9873 -0.2496 -0.0344
15965TIP3    H169310   0.103   1.636  11.317  1.7664  0.2397  2.2668
15965TIP3    H269311   0.134   1.488  11.320  1.0583 -0.0127 -0.4606
15966TIP3   OH269312   2.169   5.226   3.532 -0.2912  0.4591 -0.4781
15966TIP3    H169313   2.163   5.181   3.616  0.0761  0.6112 -0.3641
15966TIP3    H269314   2.153   5.318   3.552 -1.6497  0.3144 -0.8048
15967TIP3   OH269315   0.367   2.154   1.457  0.0340 -0.4033  0.3579
15967TIP3    H169316   0.382   2.063   1.430 -0.2601 -0.0337 -1.1300
15967TIP3    H269317   0.410   2.206   1.389 -0.6155  0.5787  0.6892
15968TIP3   OH269318   3.373   0.565   1.071  0.0538  0.6367  0.1476
15968TIP3    H169319   3.314   0.576   0.997 -0.9957 -1.8291  0.5408
15968TIP3    H269320   3.458   0.547   1.031 -0.2151  0.6430 -0.4383
15969TIP3   OH269321   5.893   2.905  12.129 -0.0764  0.3280 -0.1289
15969TIP3    H169322   5.982   2.937  12.112 -0.2566  0.2967 -1.1874
15969TIP3    H269323   5.837   2.981  12.111 -0.2584  0.4148  0.7535
15970TIP3   OH269324   1.841   3.966  11.566 -0.4358  0.5686 -0.5388
15970TIP3    H169325   1.889   3.884  11.575  0.5820  1.2223  0.3643
15970TIP3    H269326   1.866   4.000  11.480 -0.1798  0.3479 -0.5510
15971TIP3   OH269327   0.670   2.758  12.643 -0.1694 -0.2663  0.2750
15971TIP3    H169328   0.685   2.780  12.735 -0.5512  1.3932 -0.0386
15971TIP3    H269329   0.579   2.784  12.627 -0.2165 -0.8852 -0.4825
15972TIP3   OH269330   4.189   0.459   3.522 -0.4981  0.2401 -0.1072
15972TIP3    H169331   4.129   0.533   3.517  0.3793  0.9301 -0.8384
15972TIP3    H269332   4.229   0.467   3.609 -0.7253  0.3772 -0.0155
15973TIP3   OH269333   3.499   3.582   3.257 -0.0215 -0.8198  0.3880
15973TIP3    H169334   3.426   3.644   3.267  0.4850 -0.2111  0.4058
15973TIP3    H269335   3.465   3.513   3.201 -0.6320 -0.5694  0.4455
15974TIP3   OH269336   2.053   1.914   0.194 -0.5384  0.6956 -0.0608
15974TIP3    H169337   2.137   1.883   0.227 -0.4632  0.2648 -0.6422
15974TIP3    H269338   2.019   1.841   0.141 -2.1681  0.0907  1.6848
15975TIP3   OH269339   3.968   3.466   3.539 -0.2638  0.2225  0.1588
15975TIP3    H169340   3.904   3.476   3.468 -0.1481 -1.8499 -0.2799
15975TIP3    H269341   3.921   3.496   3.617 -0.6873  1.6995 -0.6020
15976TIP3   OH269342   6.377   0.871   0.881  0.4431  0.2038  0.2588
15976TIP3    H169343   6.446   0.932   0.857  0.0225  0.6032  0.0629
15976TIP3    H269344   6.304   0.891   0.822  0.1838 -0.2630  0.4095
15977TIP3   OH269345   4.030   5.340  15.941  0.1154 -0.6778  0.9667
15977TIP3    H169346   4.039   5.350  15.846 -0.6236  0.8080  1.0246
15977TIP3    H269347   4.107   5.384  15.977 -1.2545  1.7740  1.1107
15978TIP3   OH269348   2.961   6.802  17.084  0.1744  0.0523  0.0479
15978TIP3    H169349   2.883   6.754  17.114  0.7746 -1.1295 -0.2158
15978TIP3    H269350   3.005   6.828  17.165  0.7203 -1.3447  0.2309
15979TIP3   OH269351   0.475   2.705  16.298  0.2873  0.2038  0.6394
15979TIP3    H169352   0.381   2.713  16.311  0.1655 -0.8278  0.4341
15979TIP3    H269353   0.512   2.724  16.384 -0.0813  0.9771  0.6332
15980TIP3   OH269354   4.850   1.837  12.539  0.1644 -1.5402 -0.4118
15980TIP3    H169355   4.774   1.845  12.597  0.6258 -0.2515  0.0610
15980TIP3    H269356   4.917   1.795  12.593  0.9769  0.6886  0.4679
15981TIP3   OH269357   2.391   6.454  14.301  0.2661 -0.0887  0.1625
15981TIP3    H169358   2.315   6.465  14.245 -0.1832 -1.8446  0.3612
15981TIP3    H269359   2.393   6.532  14.355 -1.7638 -0.2758  0.5759
15982TIP3   OH269360   3.079   0.848   3.502 -0.2056  0.1931 -0.3537
15982TIP3    H169361   3.005   0.905   3.526 -1.4804 -1.5554  0.1287
15982TIP3    H269362   3.041   0.783   3.444  1.5632  0.7307 -2.2068
15983TIP3   OH269363   2.440   2.765  12.484 -0.3746 -0.0442  0.6416
15983TIP3    H169364   2.455   2.670  12.475 -0.7432 -0.2111  1.6625
15983TIP3    H269365   2.480   2.803  12.406 -3.3187 -1.3367 -1.7319
15984TIP3   OH269366   2.076   1.263   1.831  0.2787 -0.2141 -0.0154
15984TIP3    H169367   2.027   1.182   1.838 -0.0749 -0.0917 -0.9256
15984TIP3    H269368   2.015   1.325   1.790  0.3169  0.7159  1.2385
15985TIP3   OH269369   0.898   5.145   4.626 -0.7510  0.1567 -0.2758
15985TIP3    H169370   0.854   5.185   4.701  1.1284  2.4239 -0.2668
15985TIP3    H269371   0.829   5.135   4.560 -1.9318  0.4295  0.8791
15986TIP3   OH269372   1.405   3.832   0.031 -0.2948 -0.0451  0.5111
15986TIP3    H169373   1.394   3.737   0.043  1.4164 -0.5933 -1.5903
15986TIP3    H269374   1.372   3.848  -0.058 -0.0353  1.2343  0.6356
15987TIP3   OH269375   3.832   5.529   0.263 -0.1434 -0.1759  0.0153
15987TIP3    H169376   3.882   5.452   0.289  2.8287  2.1099  1.7651
15987TIP3    H269377   3.752   5.524   0.316  0.5545 -1.4529  1.0097
15988TIP3   OH269378   4.833   4.873   2.296 -0.8157 -0.2516 -0.3735
15988TIP3    H169379   4.794   4.921   2.369 -1.4738  0.0055 -0.8757
15988TIP3    H269380   4.927   4.882   2.308 -0.9076  1.6587 -0.7551
15989TIP3   OH269381   1.467   1.450  13.899  0.0490 -0.0552 -0.2260
15989TIP3    H169382   1.416   1.474  13.821  0.4678  0.2261 -0.4208
15989TIP3    H269383   1.474   1.531  13.949  1.5804  0.3153 -0.9511
15990TIP3   OH269384   6.703   0.909   1.305  0.2811 -0.1018 -0.0218
15990TIP3    H169385   6.731   0.860   1.227  0.4674  1.3353 -0.8859
15990TIP3    H269386   6.658   0.844   1.359  2.0470 -1.6353 -0.3000
15991TIP3   OH269387   3.508   4.027  10.931 -0.2488  0.1152  0.2498
15991TIP3    H169388   3.587   3.994  10.973  0.7849 -1.2535 -2.4823
15991TIP3    H269389   3.507   4.121  10.950  0.0921 -0.4056  3.1837
15992TIP3   OH269390   0.667   1.531  10.666 -0.3980  0.3358  0.4299
15992TIP3    H169391   0.574   1.526  10.686 -0.3504 -0.1618  0.5548
15992TIP3    H269392   0.698   1.441  10.676 -0.2542  0.1439 -1.2869
15993TIP3   OH269393   2.965   5.647  15.724  0.0729 -0.1434 -0.4480
15993TIP3    H169394   2.975   5.740  15.742 -0.2525  0.1102 -1.5241
15993TIP3    H269395   2.883   5.622  15.767  0.2299  0.0324 -0.0454
15994TIP3   OH269396   2.683   4.976  17.129 -0.0496  0.0751 -0.1841
15994TIP3    H169397   2.736   4.925  17.191  0.3591 -0.8205 -1.2457
15994TIP3    H269398   2.737   4.981  17.050 -0.1628  2.0005 -0.1958
15995TIP3   OH269399   6.028   3.060   2.826 -0.0696 -0.5170 -0.1788
15995TIP3    H169400   5.992   2.976   2.853 -0.0959 -0.1707  0.8937
15995TIP3    H269401   6.074   3.040   2.744  1.2834 -1.9074  0.8594
15996TIP3   OH269402   1.990   6.472   6.194 -0.2924 -0.6395 -0.2930
15996TIP3    H169403   1.913   6.522   6.167 -0.5034 -0.8873 -0.1522
15996TIP3    H269404   2.048   6.474   6.118 -0.2357 -0.0578 -0.2389
15997TIP3   OH269405   3.576   3.127   2.920  0.5899 -0.4741 -0.3395
15997TIP3    H169406   3.660   3.141   2.875 -0.0238  0.5143 -1.2443
15997TIP3    H269407   3.520   3.197   2.887 -0.3685 -0.6634  0.8352
15998TIP3   OH269408   6.673   0.612   3.557  0.1191  0.5052  0.5312
15998TIP3    H169409   6.604   0.566   3.509  0.1596  0.2848  0.6856
15998TIP3    H269410   6.754   0.567   3.532 -0.1222 -1.3391  2.8590
15999TIP3   OH269411   4.519   1.271   4.332 -0.5024 -0.2709  0.1004
15999TIP3    H169412   4.571   1.297   4.256  0.6682 -1.3584  0.4855
15999TIP3    H269413   4.566   1.309   4.406  0.1823 -1.8538  0.5135
16000TIP3   OH269414   3.311   0.282  15.372  0.0641  0.5739 -0.4021
16000TIP3    H169415   3.244   0.300  15.306 -0.0511  0.9310 -0.1889
16000TIP3    H269416   3.266   0.291  15.456  0.6444  2.0462 -0.2082
16001TIP3   OH269417   4.982   2.626   1.085 -0.0115 -0.0771  0.0268
16001TIP3    H169418   4.897   2.668   1.071 -0.5660 -0.9081  0.7699
16001TIP3    H269419   4.970   2.573   1.164  1.1662 -0.3105  0.0749
16002TIP3   OH269420   3.504   5.152   4.140 -0.5978  0.2067 -0.0064
16002TIP3    H169421   3.576   5.202   4.179  0.4053 -0.7381 -0.5532
16002TIP3    H269422   3.510   5.171   4.047 -1.1254  0.2060 -0.0384
16003TIP3   OH269423   2.875   3.257   5.073  0.9265  0.3394 -0.4502
16003TIP3    H169424   2.896   3.168   5.046  0.0683 -0.2157  0.6348
16003TIP3    H269425   2.893   3.311   4.996  2.0418 -0.6825 -0.9281
16004TIP3   OH269426   5.350   1.824   3.940  0.3938 -0.2692  0.3583
16004TIP3    H169427   5.284   1.864   3.883  0.5087 -1.1122 -0.3982
16004TIP3    H269428   5.327   1.731   3.941 -1.0400 -0.0242  3.6298
16005TIP3   OH269429   6.053   5.242  13.358  0.8721 -0.0680  0.1214
16005TIP3    H169430   6.102   5.231  13.440 -0.5278  0.5185  1.0733
16005TIP3    H269431   5.968   5.277  13.385  0.3744  0.1464 -1.5938
16006TIP3   OH269432   4.623   2.424   2.186 -0.0177 -0.0795 -0.2611
16006TIP3    H169433   4.629   2.498   2.127 -2.5144 -0.5316 -1.1949
16006TIP3    H269434   4.643   2.348   2.132  1.3113 -0.2378  0.4015
16007TIP3   OH269435   1.549   0.866  16.841 -0.5252  0.4233 -0.2319
16007TIP3    H169436   1.627   0.919  16.828 -0.7301  0.7782 -0.0286
16007TIP3    H269437   1.573   0.803  16.909 -1.1713  2.1153  1.6450
16008TIP3   OH269438   1.382   0.187  17.051  0.3239 -0.0160 -0.4492
16008TIP3    H169439   1.466   0.164  17.091 -0.3904 -0.1830  1.0169
16008TIP3    H269440   1.368   0.278  17.077  0.3477  0.2257 -1.2564
16009TIP3   OH269441   0.520   0.615  14.139 -0.1778 -0.1009  0.4679
16009TIP3    H169442   0.555   0.667  14.066 -1.0412 -1.3575 -0.9117
16009TIP3    H269443   0.448   0.667  14.174 -0.0571  0.3124  0.1046
16010TIP3   OH269444   5.027   5.410  15.987  0.7100  0.2373  0.0847
16010TIP3    H169445   5.018   5.467  15.911 -3.2653  0.3000  0.4071
16010TIP3    H269446   5.068   5.465  16.054 -1.2056  2.1705 -0.2301
16011TIP3   OH269447   0.647   2.192  13.142 -0.0171  0.0878 -0.2700
16011TIP3    H169448   0.639   2.281  13.108 -0.4582  0.2904  0.3381
16011TIP3    H269449   0.557   2.164  13.157  0.1691  0.2438  1.2929
16012TIP3   OH269450   3.303   6.471   4.100 -0.3163 -0.1950 -0.4041
16012TIP3    H169451   3.393   6.462   4.133  0.1154 -0.4947 -1.6234
16012TIP3    H269452   3.265   6.385   4.113 -0.4755 -0.0366  0.2199
16013TIP3   OH269453   1.793   0.878  10.755  0.2357  0.2277  0.0494
16013TIP3    H169454   1.718   0.919  10.713 -0.0806 -0.3193  0.0700
16013TIP3    H269455   1.831   0.821  10.688 -0.5178 -0.9672  0.6032
16014TIP3   OH269456   1.270   5.075   2.760  0.3371 -0.2350  0.3659
16014TIP3    H169457   1.208   5.002   2.763 -0.3318  0.2117 -1.1688
16014TIP3    H269458   1.297   5.089   2.851 -1.1959 -0.9745  0.9642
16015TIP3   OH269459   3.701   3.572  15.715 -0.2971  0.2248 -0.5383
16015TIP3    H169460   3.615   3.613  15.722 -0.9776 -1.4200  2.5729
16015TIP3    H269461   3.683   3.478  15.719  1.6575 -0.1487  0.4705
16016TIP3   OH269462   1.659   2.464   1.019 -0.2432 -0.2435 -0.5722
16016TIP3    H169463   1.723   2.526   1.054 -2.2327  1.1757  0.7909
16016TIP3    H269464   1.698   2.432   0.938  1.5965  1.5526 -0.4687
16017TIP3   OH269465   0.421   0.069  14.136  0.0239  0.1248  0.3154
16017TIP3    H169466   0.477  -0.009  14.130  1.4643  1.1657 -0.7502
16017TIP3    H269467   0.448   0.122  14.061 -1.1550  1.5010  0.8348
16018TIP3   OH269468   5.233   3.423  14.095 -0.3257 -0.4092  0.1683
16018TIP3    H169469   5.308   3.377  14.059 -0.6111 -0.3436 -0.5307
16018TIP3    H269470   5.202   3.478  14.023  0.5975  1.6398  1.2585
16019TIP3   OH269471   4.978   2.415  12.962 -0.1096 -0.2780  0.0982
16019TIP3    H169472   5.055   2.454  12.919 -1.8173  1.3740 -1.6695
16019TIP3    H269473   4.985   2.445  13.053  0.1729  1.8619 -0.5594
16020TIP3   OH269474   4.465   3.259   2.880  0.1531 -0.7230 -0.1611
16020TIP3    H169475   4.388   3.277   2.933  1.2544  1.9148  0.7270
16020TIP3    H269476   4.511   3.190   2.927 -0.5183 -0.6769  0.5729
16021TIP3   OH269477   6.581   1.326  12.507 -0.1515  0.2210 -0.1466
16021TIP3    H169478   6.596   1.341  12.414 -0.8146  3.6064  0.1707
16021TIP3    H269479   6.489   1.300  12.513  0.1433 -0.9583 -0.4670
16022TIP3   OH269480   5.443   2.537   3.293 -0.2194 -0.4399 -0.0433
16022TIP3    H169481   5.512   2.602   3.279 -0.5151  0.0033  0.5260
16022TIP3    H269482   5.420   2.546   3.385 -1.2802 -0.3418 -0.3009
16023TIP3   OH269483   5.635   3.330   4.361  0.0093  0.6226 -0.2833
16023TIP3    H169484   5.561   3.313   4.419 -0.2751  1.8155 -0.2703
16023TIP3    H269485   5.599   3.387   4.293  0.8413  0.9528 -0.4545
16024TIP3   OH269486   4.872   2.435   3.190 -0.5162  0.0405 -0.1965
16024TIP3    H169487   4.860   2.381   3.112 -1.0948 -0.8381  0.4686
16024TIP3    H269488   4.942   2.496   3.167 -0.0578 -0.7926 -1.0880
16025TIP3   OH269489   0.590   3.212  16.004  0.7605  0.2765  0.5544
16025TIP3    H169490   0.577   3.280  16.070 -0.1473 -0.4985  1.2034
16025TIP3    H269491   0.610   3.260  15.924  0.8589  1.2741  1.1560
16026TIP3   OH269492   3.583   2.326   1.057 -0.0776  0.1340 -0.3555
16026TIP3    H169493   3.587   2.317   1.152  1.9616 -1.2269 -0.5143
16026TIP3    H269494   3.647   2.394   1.036 -0.3732  0.2890 -0.7745
16027TIP3   OH269495   4.099   3.553   1.587 -0.2344 -0.1360  0.1291
16027TIP3    H169496   4.139   3.553   1.674  0.8212 -1.6639 -0.3187
16027TIP3    H269497   4.054   3.468   1.581 -0.0360 -0.1813 -0.9146
16028TIP3   OH269498   4.045   2.468  15.823 -0.2074 -0.3139 -0.3524
16028TIP3    H169499   4.103   2.536  15.788 -1.6423  1.7250  1.0313
16028TIP3    H269500   4.008   2.426  15.745 -0.1763  1.3093 -1.2842
16029TIP3   OH269501   2.340   3.384   2.776  0.2170  0.0049  0.3733
16029TIP3    H169502   2.399   3.405   2.703  1.3672  2.7781  1.9495
16029TIP3    H269503   2.257   3.426   2.752 -0.3706 -1.6143 -0.6089
16030TIP3   OH269504   2.959   0.893   4.309  0.0908 -0.3493 -0.7703
16030TIP3    H169505   2.984   0.948   4.383 -2.1284 -0.1386 -0.0909
16030TIP3    H269506   2.963   0.951   4.233 -0.3567  0.2275 -0.3617
16031TIP3   OH269507   6.460   3.994   3.506 -0.2647 -0.1657 -0.3937
16031TIP3    H169508   6.437   4.038   3.588  3.4045 -1.7857  1.7930
16031TIP3    H269509   6.437   3.902   3.522 -0.4328 -0.3391 -1.5969
16032TIP3   OH269510   1.811   1.800  13.895 -0.1752  0.1509 -0.1307
16032TIP3    H169511   1.809   1.722  13.840  0.0416  1.4748 -2.1238
16032TIP3    H269512   1.739   1.788  13.956  0.3186 -1.9247  0.1195
16033TIP3   OH269513   2.946   1.456   3.343 -0.2969 -0.6016  0.6238
16033TIP3    H169514   2.997   1.533   3.317 -1.4585 -0.0190  0.0036
16033TIP3    H269515   2.944   1.459   3.439  1.2229 -0.9197  0.6978
16034TIP3   OH269516   3.060   1.819  15.253 -0.4873  0.0643 -0.2362
16034TIP3    H169517   2.987   1.872  15.285 -0.7957 -0.1571 -0.5668
16034TIP3    H269518   3.023   1.768  15.181  0.1600  0.4179 -0.8223
16035TIP3   OH269519   2.129   2.753   5.721  0.3838 -0.1294  0.5832
16035TIP3    H169520   2.134   2.715   5.633 -1.2620 -0.2475  0.5120
16035TIP3    H269521   2.070   2.828   5.712 -0.2862 -0.5022  1.6962
16036TIP3   OH269522   3.569   0.338   3.580  1.1096 -0.3450  0.5559
16036TIP3    H169523   3.536   0.255   3.546 -0.3317 -0.5494  2.2760
16036TIP3    H269524   3.662   0.322   3.594  1.5994 -0.5125 -2.3066
16037TIP3   OH269525   0.295   1.848  13.098 -0.6172  0.0311 -0.1496
16037TIP3    H169526   0.370   1.900  13.069 -1.2706  0.1640 -1.6724
16037TIP3    H269527   0.221   1.885  13.051 -1.0507 -2.5813 -1.7345
16038TIP3   OH269528   3.924   0.648  16.939  0.3402 -0.2791  0.1611
16038TIP3    H169529   3.934   0.572  16.997 -0.3972 -0.4837  0.0299
16038TIP3    H269530   3.838   0.684  16.962  1.6837  2.0425  2.0188
16039TIP3   OH269531   4.446   3.237  16.579 -0.4386  0.2284  0.4401
16039TIP3    H169532   4.398   3.318  16.562  0.0282  0.0920 -1.8229
16039TIP3    H269533   4.507   3.260  16.650 -0.2836  1.8889 -0.1893
16040TIP3   OH269534   4.184   3.026   5.423  0.5792 -0.0862  0.0725
16040TIP3    H169535   4.135   3.006   5.343  0.5780 -2.5786  0.6139
16040TIP3    H269536   4.172   3.120   5.435 -1.5010 -0.0704 -1.4846
16041TIP3   OH269537   6.520   0.552   6.008 -0.1301 -0.0792  0.5796
16041TIP3    H169538   6.571   0.577   6.085  0.0289 -1.0938  0.8262
16041TIP3    H269539   6.429   0.552   6.037 -0.0647 -0.5227  0.8002
16042TIP3   OH269540   2.413   4.483  15.756 -0.3458 -0.8962 -0.1129
16042TIP3    H169541   2.499   4.455  15.787 -0.3438 -0.0143  0.7123
16042TIP3    H269542   2.351   4.433  15.809 -0.3590  1.2796  2.1266
16043TIP3   OH269543   3.557   2.346  12.929 -0.3782 -0.0747  0.2825
16043TIP3    H169544   3.584   2.288  13.001  1.4589  0.5891  0.1752
16043TIP3    H269545   3.505   2.414  12.972 -1.3822 -1.0095  0.6061
16044TIP3   OH269546   1.713   4.199  17.145  0.0038  0.0629  0.2341
16044TIP3    H169547   1.742   4.194  17.236  0.1203 -1.3349  0.1416
16044TIP3    H269548   1.644   4.134  17.138 -0.6447  0.8091 -0.4582
16045TIP3   OH269549   6.574   0.138  14.536  0.1976  0.2687  0.0968
16045TIP3    H169550   6.481   0.124  14.555  0.3828 -1.2370  0.0261
16045TIP3    H269551   6.618   0.118  14.619  0.5421 -0.2566 -0.2083
16046TIP3   OH269552   1.496   0.956  16.292 -0.4679  0.1596 -0.2115
16046TIP3    H169553   1.509   1.016  16.219 -1.2440  1.9265  1.0475
16046TIP3    H269554   1.575   0.901  16.292  0.1435  0.9881 -1.5638
16047TIP3   OH269555   4.098   4.057   1.591  0.4201  0.3182  0.6924
16047TIP3    H169556   4.006   4.033   1.586  0.6811 -0.6177  0.2830
16047TIP3    H269557   4.123   4.076   1.501  0.7103  0.2801  0.7644
16048TIP3   OH269558   6.655   3.636  15.769  0.6454 -0.5639 -0.0996
16048TIP3    H169559   6.720   3.706  15.778  1.4384 -1.2341 -0.5093
16048TIP3    H269560   6.615   3.628  15.855 -0.0081  0.9169 -0.2289
16049TIP3   OH269561   4.582   0.362   2.007  0.3071 -0.6375 -0.4003
16049TIP3    H169562   4.487   0.374   2.010  0.3858 -0.0479  0.6958
16049TIP3    H269563   4.617   0.446   2.040  1.1103 -1.7182  1.7223
16050TIP3   OH269564   4.550   6.326   1.027  0.0247 -0.0543 -0.2082
16050TIP3    H169565   4.465   6.296   1.061  0.2866  0.2870  0.7846
16050TIP3    H269566   4.609   6.320   1.102  1.2747 -1.7381 -1.2608
16051TIP3   OH269567   6.132   0.591  10.282 -0.0180 -0.3107 -0.5206
16051TIP3    H169568   6.075   0.527  10.239 -0.1100 -0.9183  0.4866
16051TIP3    H269569   6.184   0.540  10.344  0.4699  0.4807 -0.2652
16052TIP3   OH269570   6.335   5.483  14.944 -0.7057 -0.6423  0.7583
16052TIP3    H169571   6.318   5.402  14.895 -0.6539  0.2734 -0.8642
16052TIP3    H269572   6.423   5.471  14.980 -0.1538 -0.8256 -0.5760
16053TIP3   OH269573   2.035   3.307  11.476 -0.9369 -0.0673  0.1214
16053TIP3    H169574   1.951   3.314  11.521 -1.0765  0.1430 -0.1729
16053TIP3    H269575   2.078   3.232  11.517 -0.9213  0.3245  0.8482
16054TIP3   OH269576   4.758   5.784  16.607 -0.4379 -0.0858 -0.2675
16054TIP3    H169577   4.786   5.792  16.698 -0.2878  2.6508 -0.4748
16054TIP3    H269578   4.686   5.721  16.609 -0.5528  0.0537  1.7705
16055TIP3   OH269579   4.252   2.864   1.096  0.7327 -0.2165 -0.1163
16055TIP3    H169580   4.188   2.904   1.037  0.7123 -0.6119 -0.3654
16055TIP3    H269581   4.211   2.869   1.182 -0.6633 -2.4857 -0.5564
16056TIP3   OH269582   5.743   2.588   3.321 -0.0161 -0.4234  0.4906
16056TIP3    H169583   5.757   2.503   3.362 -1.9205 -0.1649  1.8256
16056TIP3    H269584   5.790   2.583   3.238 -0.8862 -3.1613  0.0698
16057TIP3   OH269585   3.100   4.892   5.184 -0.4917  0.2493  1.0306
16057TIP3    H169586   3.121   4.980   5.154 -1.5454  0.8228  1.9067
16057TIP3    H269587   3.134   4.888   5.273 -2.3660  0.5637  1.7982
16058TIP3   OH269588   6.300   5.900  14.188 -0.9651 -0.3009 -0.5371
16058TIP3    H169589   6.247   5.896  14.108 -3.1057 -0.4558  0.8173
16058TIP3    H269590   6.293   5.813  14.227  1.1633 -0.6472 -0.7765
16059TIP3   OH269591   4.790   4.991  16.311 -0.1460 -0.0666 -0.2468
16059TIP3    H169592   4.766   5.035  16.229 -0.3761  2.7373  1.2222
16059TIP3    H269593   4.863   5.043  16.346 -1.3998  0.0929  2.3431
16060TIP3   OH269594   6.692   4.781   5.873 -0.5395 -0.3092  0.4971
16060TIP3    H169595   6.633   4.722   5.919  0.8942 -0.6449  1.9697
16060TIP3    H269596   6.637   4.857   5.851 -2.3048 -1.9242 -1.0422
16061TIP3   OH269597   5.817   0.761  11.150 -0.2786  0.4459 -0.0664
16061TIP3    H169598   5.838   0.727  11.063  0.1205  0.2748  0.0954
16061TIP3    H269599   5.861   0.702  11.210 -2.0954 -0.5867  0.3469
16062TIP3   OH269600   0.184   3.083  11.556 -0.2917 -0.2935 -0.5027
16062TIP3    H169601   0.204   3.145  11.486  1.4236 -0.9816 -0.6701
16062TIP3    H269602   0.190   3.134  11.636  0.6831 -0.1400 -0.6669
16063TIP3   OH269603   1.308   6.715  16.868  0.9285  0.0881 -0.5185
16063TIP3    H169604   1.276   6.787  16.813  0.4104  0.4127  0.1914
16063TIP3    H269605   1.398   6.739  16.888  0.5792  0.8638  0.2061
16064TIP3   OH269606   0.713   5.859   5.174  0.1870 -0.5654  0.3154
16064TIP3    H169607   0.645   5.904   5.224 -0.4851 -1.9455  0.6637
16064TIP3    H269608   0.777   5.831   5.240 -0.6297 -2.2621  0.4300
16065TIP3   OH269609   0.330   2.510  14.613  0.2180 -0.4638 -0.0459
16065TIP3    H169610   0.311   2.475  14.526 -1.5737  0.0104  0.1238
16065TIP3    H269611   0.361   2.599  14.597  0.9945 -0.7600 -0.2443
16066TIP3   OH269612   4.504   5.156  15.366  0.1673  0.0682 -0.0137
16066TIP3    H169613   4.525   5.249  15.363 -0.9023  0.3529  0.5866
16066TIP3    H269614   4.411   5.152  15.342  0.5119 -0.9875 -1.3502
16067TIP3   OH269615   3.206   5.539   2.429 -0.1979  0.6467 -0.0507
16067TIP3    H169616   3.169   5.459   2.467 -0.1692  0.8307  0.3704
16067TIP3    H269617   3.198   5.604   2.498 -0.0813  0.9711 -0.3411
16068TIP3   OH269618   6.366   1.005  16.693  0.3849  0.3691  0.3186
16068TIP3    H169619   6.449   1.033  16.733  1.1213 -0.8790 -0.2562
16068TIP3    H269620   6.393   0.951  16.618 -0.9587  0.1014 -0.0012
16069TIP3   OH269621   6.725   2.093  11.617 -0.1865 -0.0029 -0.0354
16069TIP3    H169622   6.780   2.039  11.674 -0.9627 -0.4672  0.2880
16069TIP3    H269623   6.636   2.077  11.647 -0.5239  0.5716 -0.6950
16070TIP3   OH269624   0.704   4.153   4.880  0.4377 -0.2107 -0.0082
16070TIP3    H169625   0.626   4.105   4.907  1.1635 -0.9165  0.9369
16070TIP3    H269626   0.771   4.085   4.869  0.9989  0.4054 -0.4721
16071TIP3   OH269627   5.994   3.786  16.589  0.4957  0.1673  0.3003
16071TIP3    H169628   5.977   3.806  16.497  0.3723  1.1139  0.5178
16071TIP3    H269629   5.922   3.728  16.615 -0.7087  1.6377  0.3695
16072TIP3   OH269630   3.724   1.069   4.371  0.1251 -0.0702 -0.7292
16072TIP3    H169631   3.808   1.072   4.326  0.0351  0.2963 -0.8683
16072TIP3    H269632   3.681   0.991   4.336  0.6724 -0.6393 -0.1827
16073TIP3   OH269633   5.114   1.062   6.028 -0.3568 -0.2785  0.1478
16073TIP3    H169634   5.064   1.144   6.023 -1.1583 -0.6534  1.5298
16073TIP3    H269635   5.188   1.084   6.085  0.8636  0.1511 -1.5314
16074TIP3   OH269636   2.280   2.114   1.830 -0.0833 -0.0694  0.3812
16074TIP3    H169637   2.235   2.178   1.774  0.4829 -0.2007 -0.2461
16074TIP3    H269638   2.340   2.166   1.883  1.5547 -0.1743 -1.2601
16075TIP3   OH269639   4.369   1.888   2.572 -0.0803 -0.5392  0.0688
16075TIP3    H169640   4.378   1.807   2.522 -0.0044 -0.7650  0.4405
16075TIP3    H269641   4.300   1.937   2.526  0.4110 -0.4689 -0.5995
16076TIP3   OH269642   0.087   1.999  12.958 -0.1198 -0.0177  0.1006
16076TIP3    H169643   0.026   1.950  12.903  0.5261 -0.3896 -0.2926
16076TIP3    H269644   0.038   2.077  12.985 -1.1685 -0.8685  0.7412
16077TIP3   OH269645   5.303   3.639  15.029  0.0887 -0.0863  1.0932
16077TIP3    H169646   5.227   3.607  15.078  1.2522 -0.5697  2.6575
16077TIP3    H269647   5.378   3.620  15.086  1.2958  1.2429  0.0234
16078TIP3   OH269648   6.702   6.238   0.195 -0.1128 -0.2082 -0.8836
16078TIP3    H169649   6.789   6.213   0.163  0.4872  1.5621 -0.7150
16078TIP3    H269650   6.668   6.158   0.235  1.1320 -1.1316 -1.5821
16079TIP3   OH269651   1.359   1.468  13.620 -0.7307  0.1787  0.2643
16079TIP3    H169652   1.333   1.479  13.529  1.6255  0.5808 -0.4203
16079TIP3    H269653   1.294   1.407  13.656 -1.1904 -0.7302 -1.9216
16080TIP3   OH269654   4.373   1.051  10.246  0.0163  0.2960  0.1994
16080TIP3    H169655   4.324   1.098  10.313  0.3611 -1.4550  1.7519
16080TIP3    H269656   4.325   0.969  10.234  1.5716 -0.7140  0.5323
16081TIP3   OH269657   3.811   5.072  14.794 -0.0267  0.6334  0.6514
16081TIP3    H169658   3.893   5.025  14.807  0.2241  0.7040 -0.6096
16081TIP3    H269659   3.803   5.081  14.699 -1.4785  0.6557  0.7625
16082TIP3   OH269660   5.355   2.843   6.407 -0.5643  0.1123 -0.4564
16082TIP3    H169661   5.404   2.774   6.451 -1.8695  0.2909  1.3671
16082TIP3    H269662   5.416   2.917   6.405 -0.9421  0.6306  2.5922
16083TIP3   OH269663   5.872   2.459  15.452  0.2557  0.4103 -0.4913
16083TIP3    H169664   5.878   2.364  15.458 -1.0304  0.3577  0.4671
16083TIP3    H269665   5.924   2.482  15.375  2.5408 -0.8261  0.5675
16084TIP3   OH269666   0.169   6.657   3.660 -0.5033  0.9110 -0.0854
16084TIP3    H169667   0.193   6.621   3.574 -0.0993  0.4622  0.2143
16084TIP3    H269668   0.251   6.686   3.698 -0.6418  0.8051  0.2939
16085TIP3   OH269669   3.831   6.036   5.998  0.0908 -0.2652 -0.1792
16085TIP3    H169670   3.797   6.074   6.079  1.3029  1.0423 -0.2568
16085TIP3    H269671   3.794   5.947   5.997 -2.3816  0.6601  0.2816
16086TIP3   OH269672   1.465   6.399  14.640  0.6077  0.3149 -0.5914
16086TIP3    H169673   1.550   6.356  14.652  0.5930  0.2083 -0.8766
16086TIP3    H269674   1.484   6.476  14.587  0.4217 -0.0768 -1.2358
16087TIP3   OH269675   4.994   3.171   3.277 -0.0123  0.2048  0.0472
16087TIP3    H169676   4.966   3.126   3.357  0.8010 -0.1423  0.1525
16087TIP3    H269677   5.081   3.205   3.299  0.5068 -0.4758 -0.9122
16088TIP3   OH269678   4.248   5.437  14.233 -0.4960 -0.5895 -0.4085
16088TIP3    H169679   4.229   5.364  14.173  0.2251 -0.1603 -1.1724
16088TIP3    H269680   4.219   5.405  14.319  0.0971 -1.9070 -0.6742
16089TIP3   OH269681   3.134   6.800  15.126 -0.0258  0.2499  0.0517
16089TIP3    H169682   3.051   6.752  15.130  0.0286  0.2125  1.9474
16089TIP3    H269683   3.171   6.789  15.214  2.4812 -0.5713 -1.0320
16090TIP3   OH269684   4.710   3.663   4.308  0.2761 -0.3352  0.6049
16090TIP3    H169685   4.675   3.646   4.395  1.4035 -2.7859  0.6716
16090TIP3    H269686   4.640   3.637   4.248 -1.0519  2.6929  0.6765
16091TIP3   OH269687   0.956   4.396   2.221  0.7909 -0.4906  0.8900
16091TIP3    H169688   0.925   4.310   2.250  0.2852 -1.4773 -2.2275
16091TIP3    H269689   0.954   4.450   2.300  0.4501 -3.1198  2.8190
16092TIP3   OH269690   6.200   3.910  16.222  0.0859 -0.0482 -0.2263
16092TIP3    H169691   6.283   3.872  16.252 -0.2448 -0.6237 -0.0024
16092TIP3    H269692   6.219   4.002  16.207  1.0350 -0.3912 -1.2032
16093TIP3   OH269693   4.583   1.816  17.002 -0.6256 -0.0411  0.0589
16093TIP3    H169694   4.530   1.883  16.957 -1.9663 -0.7071  0.5854
16093TIP3    H269695   4.528   1.788  17.076  0.3305 -1.0110  0.4207
16094TIP3   OH269696   6.511   2.966   1.920 -0.0639  0.0302  0.0152
16094TIP3    H169697   6.509   3.060   1.907  3.6555  0.2410 -0.0862
16094TIP3    H269698   6.483   2.929   1.836 -0.4499  1.0332 -0.3045
16095TIP3   OH269699   0.004   2.838  14.144 -0.1457 -0.0586  0.1952
16095TIP3    H169700  -0.022   2.927  14.169  0.1132 -0.3300  1.4842
16095TIP3    H269701   0.094   2.830  14.174  0.1080 -0.4947 -0.6507
16096TIP3   OH269702   5.732   4.871   3.017 -0.0939  0.4986 -0.2152
16096TIP3    H169703   5.821   4.905   3.007 -0.3838  0.9562 -1.4429
16096TIP3    H269704   5.685   4.903   2.940 -1.3877  0.4456  0.5180
16097TIP3   OH269705   2.555   1.101   1.512 -0.6101  0.0981 -0.4279
16097TIP3    H169706   2.643   1.125   1.481 -0.9921  2.6201  0.2333
16097TIP3    H269707   2.570   1.059   1.596  0.1701 -3.3302 -2.1240
16098TIP3   OH269708   4.328   3.525  12.248  0.0838  0.9614  0.0794
16098TIP3    H169709   4.397   3.513  12.314  0.4051  0.2353 -0.3754
16098TIP3    H269710   4.264   3.457  12.268 -0.5376  1.6600  0.5259
16099TIP3   OH269711   2.886   2.170  12.414  0.5232 -0.2005 -0.3591
16099TIP3    H169712   2.796   2.150  12.438  0.9936 -1.3457  0.5174
16099TIP3    H269713   2.885   2.263  12.392 -0.8750 -0.2110 -0.4092
16100TIP3   OH269714   0.752   4.649   5.212  0.4131  0.0906  0.1848
16100TIP3    H169715   0.674   4.611   5.252 -0.0580 -0.3863 -1.1729
16100TIP3    H269716   0.723   4.734   5.178  0.0724 -0.7151 -1.6430
16101TIP3   OH269717   4.814   5.735   5.775  0.0540 -0.1992  0.1858
16101TIP3    H169718   4.804   5.648   5.813 -2.9777 -0.7118 -1.5116
16101TIP3    H269719   4.761   5.792   5.831 -0.1247  0.0357 -0.2149
16102TIP3   OH269720   2.198   0.021   5.223 -0.2246 -0.0352 -0.4795
16102TIP3    H169721   2.239   0.107   5.221 -0.7757  0.3131  1.2489
16102TIP3    H269722   2.141   0.019   5.146 -1.0331  1.5923  0.0291
16103TIP3   OH269723   2.990   5.021   2.197  0.4400  0.0839  0.5719
16103TIP3    H169724   2.954   4.966   2.128  1.1801  0.6203 -0.2526
16103TIP3    H269725   2.921   5.086   2.214  0.6859  0.6134 -0.4278
16104TIP3   OH269726   1.231   4.781   3.419 -0.0889 -0.0393  0.0554
16104TIP3    H169727   1.231   4.694   3.458 -0.0497  0.4513  1.1893
16104TIP3    H269728   1.205   4.840   3.490  0.7798  0.9810 -0.4374
16105TIP3   OH269729   3.554   0.591  14.548 -0.1321 -0.4212  0.3270
16105TIP3    H169730   3.478   0.538  14.525 -0.9225  1.0951 -0.6783
16105TIP3    H269731   3.629   0.532  14.536 -1.0125 -1.4609 -0.2275
16106TIP3   OH269732   6.407   6.763  13.278 -0.4328  0.0598  0.5367
16106TIP3    H169733   6.418   6.704  13.204 -1.4320 -0.8249  1.0672
16106TIP3    H269734   6.336   6.822  13.252 -0.0443  0.4546  0.3630
16107TIP3   OH269735   5.674   5.035  13.675  0.4239 -0.7065  0.1351
16107TIP3    H169736   5.662   4.957  13.729 -0.1362 -0.2842  0.6375
16107TIP3    H269737   5.757   5.072  13.706  0.6907 -1.0938 -0.1028
16108TIP3   OH269738   5.336   1.073   5.814 -0.7879 -0.0202  0.4945
16108TIP3    H169739   5.350   1.151   5.760 -0.7366 -0.6290 -0.3908
16108TIP3    H269740   5.246   1.081   5.844 -0.5705  0.7243  0.9947
16109TIP3   OH269741   2.409   2.656  12.891  0.3957  0.1960  0.7760
16109TIP3    H169742   2.463   2.723  12.849  1.1061 -0.1468  1.1444
16109TIP3    H269743   2.458   2.575  12.881  0.4755  0.0715  2.0868
16110TIP3   OH269744   4.993   2.600   6.516 -0.9589  0.0129  0.4896
16110TIP3    H169745   4.898   2.591   6.504 -1.6847  1.8157  3.7043
16110TIP3    H269746   5.005   2.688   6.550  2.1807  0.5361 -1.5020
16111TIP3   OH269747   3.436   6.407  15.724 -0.3027 -0.2859 -0.0395
16111TIP3    H169748   3.489   6.454  15.789 -0.2905 -0.3496 -0.0035
16111TIP3    H269749   3.483   6.324  15.711  0.4105  0.2766 -1.1144
16112TIP3   OH269750   3.829   4.129   4.710 -0.0559  1.0231  0.3489
16112TIP3    H169751   3.750   4.168   4.673 -0.4469 -0.4612 -0.4615
16112TIP3    H269752   3.825   4.037   4.684  1.4531  0.7024  1.1264
16113TIP3   OH269753   5.150   3.529   3.768  0.1547  0.0792  0.6010
16113TIP3    H169754   5.103   3.601   3.727  0.3127 -1.1109 -1.8321
16113TIP3    H269755   5.233   3.524   3.721 -0.7292 -3.0354 -0.9469
16114TIP3   OH269756   0.243   1.473   4.399 -0.1397 -0.6204 -0.3254
16114TIP3    H169757   0.217   1.535   4.330 -0.4386  0.7219  0.9358
16114TIP3    H269758   0.243   1.526   4.479 -2.3658 -2.6874  1.1730
16115TIP3   OH269759   3.327   4.875   2.857  0.1199 -0.3466  0.8464
16115TIP3    H169760   3.397   4.936   2.835  1.0316 -2.0080 -1.1586
16115TIP3    H269761   3.303   4.897   2.947  1.9546  1.4295  0.9640
16116TIP3   OH269762   2.763   5.972  13.125 -0.1751 -0.0906  0.5992
16116TIP3    H169763   2.695   5.962  13.191  0.0895 -3.1093  0.5527
16116TIP3    H269764   2.845   5.974  13.175 -0.0920 -0.4428  0.4833
16117TIP3   OH269765   3.119   1.790  16.663 -0.6081  0.3557  0.1247
16117TIP3    H169766   3.161   1.827  16.740 -0.5507  1.1701 -0.2881
16117TIP3    H269767   3.071   1.863  16.624 -0.3549  0.0391 -0.7978
16118TIP3   OH269768   0.012   6.429  12.560  0.4105 -0.0219  0.2039
16118TIP3    H169769   0.012   6.333  12.554 -1.5945 -0.0351 -0.4417
16118TIP3    H269770   0.104   6.453  12.547  0.8290 -1.8123 -0.6256
16119TIP3   OH269771   0.360   2.044  15.082 -0.1031  0.2423  0.0997
16119TIP3    H169772   0.440   1.995  15.063 -0.9609 -0.6919 -1.2464
16119TIP3    H269773   0.335   2.017  15.171  0.6012 -0.1175  0.1944
16120TIP3   OH269774   6.760   2.536   4.379  0.3367 -0.2773 -0.9289
16120TIP3    H169775   6.724   2.587   4.452 -0.9798  0.7181 -2.2035
16120TIP3    H269776   6.751   2.445   4.407  0.6542  0.0988  0.4815
16121TIP3   OH269777   0.372   4.939   2.526 -0.5964 -0.1915  0.9588
16121TIP3    H169778   0.358   4.847   2.551 -0.2546 -1.1326 -1.8777
16121TIP3    H269779   0.436   4.971   2.589 -1.4333 -1.5659  2.6155
16122TIP3   OH269780   6.790   1.483  10.674 -0.4823 -0.1250  0.1554
16122TIP3    H169781   6.753   1.539  10.606  0.2400  0.3438  0.1330
16122TIP3    H269782   6.761   1.522  10.757 -0.2528  0.0874  0.1349
16123TIP3   OH269783   2.052   2.387  14.738  0.0704  0.6974 -0.3188
16123TIP3    H169784   1.996   2.416  14.810 -0.0216 -3.8305  1.8318
16123TIP3    H269785   1.996   2.330  14.686  1.6462 -0.9760 -0.2878
16124TIP3   OH269786   4.449   0.450  11.114  0.0375  0.4323  0.2425
16124TIP3    H169787   4.426   0.366  11.154  0.5660 -0.1051 -0.5498
16124TIP3    H269788   4.481   0.427  11.027 -0.6812  1.5396 -0.3347
16125TIP3   OH269789   4.504   1.730   1.784  0.6837 -0.1281  0.1718
16125TIP3    H169790   4.556   1.735   1.864 -0.3337  0.7931  0.8024
16125TIP3    H269791   4.422   1.774   1.806 -0.8449 -2.4750 -0.4157
16126TIP3   OH269792   0.313   4.187   0.714 -0.3912  0.8016 -0.3812
16126TIP3    H169793   0.270   4.245   0.652  2.1228  0.7851 -2.2757
16126TIP3    H269794   0.386   4.238   0.748 -0.1916 -0.0976  0.5877
16127TIP3   OH269795   2.136   1.208  14.210  0.2612  0.4914  0.4736
16127TIP3    H169796   2.115   1.288  14.258 -1.7937  0.9714 -1.1032
16127TIP3    H269797   2.224   1.223  14.176 -0.7201  2.9304 -1.2986
16128TIP3   OH269798   5.472   6.777   4.511 -0.2728  0.1066 -0.1838
16128TIP3    H169799   5.541   6.738   4.565 -0.3661 -1.8450 -1.4071
16128TIP3    H269800   5.518   6.815   4.436 -0.5369 -1.9561 -1.4433
16129TIP3   OH269801   3.409   5.528   1.321  0.4787  0.4068 -0.3095
16129TIP3    H169802   3.396   5.433   1.324 -0.6399  0.5010 -1.2650
16129TIP3    H269803   3.490   5.541   1.272  0.9543 -0.0646  0.3432
16130TIP3   OH269804   2.248   0.797  15.353  0.7868 -0.1329 -0.0038
16130TIP3    H169805   2.212   0.719  15.396  0.3833 -1.1785 -2.1081
16130TIP3    H269806   2.341   0.795  15.373  0.9345 -1.6572 -0.7067
16131TIP3   OH269807   2.929   3.443  16.266 -0.1662 -0.2175  0.1300
16131TIP3    H169808   2.883   3.456  16.349  1.8834 -0.1275  1.2985
16131TIP3    H269809   2.955   3.351  16.267 -0.7105 -0.3957 -0.7568
16132TIP3   OH269810   5.453   0.170  12.725 -0.5136 -0.1776  0.1221
16132TIP3    H169811   5.385   0.236  12.735 -0.0474  0.3769 -0.2941
16132TIP3    H269812   5.533   0.213  12.755 -0.2303 -0.5941 -0.0256
16133TIP3   OH269813   1.333   0.578   1.789 -0.4085  0.5197  0.0532
16133TIP3    H169814   1.255   0.582   1.844  0.7394 -1.8035  2.0348
16133TIP3    H269815   1.389   0.649   1.822 -0.4135  0.1863  0.8049
16134TIP3   OH269816   0.290   0.378   0.457 -0.2476 -1.2191  0.2897
16134TIP3    H169817   0.259   0.352   0.371  1.3007 -0.6128 -0.5029
16134TIP3    H269818   0.385   0.365   0.453 -0.0449 -0.3992  1.6161
16135TIP3   OH269819   2.908   4.912  12.485  0.0539 -0.3549 -0.7595
16135TIP3    H169820   2.971   4.970  12.527 -0.5278 -0.4425  0.2731
16135TIP3    H269821   2.823   4.938  12.522 -0.6234  0.2178 -2.6156
16136TIP3   OH269822   5.941   6.223  13.128  0.6523  0.0743  0.4923
16136TIP3    H169823   5.850   6.246  13.148  0.2583 -1.9033  1.2424
16136TIP3    H269824   5.993   6.268  13.195  0.2661  1.2040  0.0653
16137TIP3   OH269825   0.714   4.868   4.893  0.3377  0.1383 -0.4467
16137TIP3    H169826   0.799   4.826   4.885  0.9153  1.2533 -0.2980
16137TIP3    H269827   0.699   4.875   4.987  0.6518  1.0339 -0.4512
16138TIP3   OH269828   4.625   3.572  14.104 -0.0160  0.1596  0.3978
16138TIP3    H169829   4.553   3.559  14.165 -0.5868 -0.6515 -0.4342
16138TIP3    H269830   4.654   3.662  14.120 -0.3903  0.0814  1.5952
16139TIP3   OH269831   5.626   2.261  13.042 -0.5008  0.4805  0.9575
16139TIP3    H169832   5.675   2.180  13.027 -0.2664  0.8041 -0.1404
16139TIP3    H269833   5.565   2.240  13.112  1.5591  0.2142  2.7928
16140TIP3   OH269834   3.613   2.194   3.990 -0.3884  0.0158 -0.0155
16140TIP3    H169835   3.654   2.278   4.014 -1.0169  0.6206 -1.0033
16140TIP3    H269836   3.520   2.208   4.005 -0.5749 -0.2510 -0.9009
16141TIP3   OH269837   3.969   3.798  15.684  0.2724 -0.2892  0.1341
16141TIP3    H169838   3.930   3.831  15.764  0.3716 -0.4225  0.2385
16141TIP3    H269839   4.043   3.856  15.667  0.0049 -0.0090 -0.0889
16142TIP3   OH269840   0.087   1.134   3.602 -0.4377 -0.4756  0.5092
16142TIP3    H169841  -0.002   1.113   3.631 -0.9189  0.1510 -0.4510
16142TIP3    H269842   0.127   1.177   3.677 -2.2750  2.8909 -0.2273
16143TIP3   OH269843   4.086   1.900   3.671 -0.7253  0.1019 -0.1209
16143TIP3    H169844   4.115   1.809   3.661 -0.2418  0.2851 -0.4122
16143TIP3    H269845   4.164   1.948   3.699 -0.6727  0.6346 -1.1085
16144TIP3   OH269846   6.739   6.097  12.941  0.2601  0.1167  0.0915
16144TIP3    H169847   6.664   6.111  12.999 -0.8340 -0.4892 -1.1175
16144TIP3    H269848   6.725   6.010  12.904  0.3229  0.8991 -1.8811
16145TIP3   OH269849   6.015   5.038   6.346 -0.2109 -0.1653  0.2053
16145TIP3    H169850   5.946   5.054   6.282  1.2606 -0.2279 -1.4770
16145TIP3    H269851   6.094   5.075   6.306  1.4960 -3.3611  0.3072
16146TIP3   OH269852   4.377   3.678  15.795 -0.9775 -0.4336  0.2798
16146TIP3    H169853   4.448   3.632  15.840 -1.1683 -0.0561  0.9778
16146TIP3    H269854   4.409   3.768  15.785 -0.6347 -0.6904 -1.0136
16147TIP3   OH269855   0.919   4.213   2.420 -0.0134  0.3662 -0.2439
16147TIP3    H169856   0.942   4.122   2.403 -0.5252  0.4205 -1.3188
16147TIP3    H269857   0.956   4.232   2.506  1.3036 -0.4289 -0.6138
16148TIP3   OH269858   2.287   1.271   2.620  0.3892 -0.6662 -0.2134
16148TIP3    H169859   2.358   1.285   2.683 -0.2948 -1.0399  0.6451
16148TIP3    H269860   2.300   1.340   2.554 -0.3380  1.3301  1.6378
16149TIP3   OH269861   2.965   0.215  15.380 -0.6560  0.3514  0.2664
16149TIP3    H169862   2.994   0.274  15.450 -0.2147  0.3923  0.0523
16149TIP3    H269863   3.027   0.142  15.383 -1.0124  0.0462  0.3266
16150TIP3   OH269864   5.482   3.117  15.045  0.0832  0.1612 -0.1210
16150TIP3    H169865   5.537   3.082  15.115  0.2178 -0.6686 -0.6260
16150TIP3    H269866   5.467   3.042  14.987  0.2451  0.9119 -1.1541
16151TIP3   OH269867   4.394   3.561  14.259 -0.1897  0.1884  0.2647
16151TIP3    H169868   4.355   3.579  14.174 -1.2199 -1.2441  0.4032
16151TIP3    H269869   4.319   3.552  14.319  0.3180 -1.9172  0.6720
16152TIP3   OH269870   1.655   3.593  16.880  0.2560  0.3377  0.1813
16152TIP3    H169871   1.708   3.514  16.869 -0.0607  0.0113  0.9136
16152TIP3    H269872   1.697   3.640  16.952  1.6398  1.8730 -1.5359
16153TIP3   OH269873   5.343   4.701   5.369  0.5358  0.4510 -0.2515
16153TIP3    H169874   5.333   4.607   5.357 -1.2576  0.5504  0.2878
16153TIP3    H269875   5.404   4.728   5.300  2.0493 -1.2749  0.3479
16154TIP3   OH269876   5.290   4.068  12.789 -0.7884  0.3204  0.0901
16154TIP3    H169877   5.283   3.974  12.771 -0.1029 -0.2144  2.3117
16154TIP3    H269878   5.208   4.091  12.832 -0.4372  0.4231  0.7207
16155TIP3   OH269879   1.479   0.539   0.723  0.2870  0.6350  0.3219
16155TIP3    H169880   1.510   0.598   0.655 -1.2618  2.3059  0.9688
16155TIP3    H269881   1.385   0.557   0.730  0.2877  0.1663  2.5203
16156TIP3   OH269882   4.127   6.776   3.669 -0.2161  0.2120 -0.2564
16156TIP3    H169883   4.046   6.802   3.714 -0.6229  1.6818 -1.7383
16156TIP3    H269884   4.193   6.776   3.737 -0.7680  2.5825  0.3711
16157TIP3   OH269885   4.701   5.575   3.704  0.1216  0.5695 -0.1415
16157TIP3    H169886   4.705   5.670   3.694 -1.4883  0.5318 -1.6472
16157TIP3    H269887   4.689   5.561   3.798 -0.5325  1.9001 -0.0083
16158TIP3   OH269888   0.891   2.712  12.477 -0.6945 -0.2225 -0.1106
16158TIP3    H169889   0.828   2.714  12.549 -0.4571 -0.0041  0.0934
16158TIP3    H269890   0.878   2.795  12.431  0.7985  0.7666  1.1170
16159TIP3   OH269891   6.739   4.226   2.760 -0.2794  0.2914  0.3186
16159TIP3    H169892   6.697   4.282   2.826 -0.2796 -0.8511  1.3053
16159TIP3    H269893   6.751   4.142   2.803 -0.5053 -0.5699 -1.2280
16160TIP3   OH269894   2.585   1.328   6.343  0.6719 -0.0233 -0.9356
16160TIP3    H169895   2.659   1.386   6.360  0.2183 -0.0928  1.7906
16160TIP3    H269896   2.625   1.242   6.328  1.2124  0.3607 -1.7434
16161TIP3   OH269897   0.012   3.057   3.181  0.0204 -0.3214 -0.0590
16161TIP3    H169898   0.011   3.096   3.093  0.3730 -1.6907 -0.6946
16161TIP3    H269899  -0.009   2.965   3.167  0.4604 -0.6431  1.2540
16162TIP3   OH269900   4.231   6.770   1.164  0.4190 -0.1938  0.1498
16162TIP3    H169901   4.300   6.760   1.229 -0.5421 -0.0576  1.2177
16162TIP3    H269902   4.224   6.865   1.151 -0.3114 -0.1435  0.8735
16163TIP3   OH269903   0.172   1.304   5.230 -0.0275 -0.0807 -0.1935
16163TIP3    H169904   0.253   1.355   5.232 -0.9120  1.3966  1.9381
16163TIP3    H269905   0.110   1.356   5.282 -1.3021 -2.8333  1.2457
16164TIP3   OH269906   0.846   5.217  15.111 -0.2638  0.3601  0.0574
16164TIP3    H169907   0.801   5.273  15.174  1.3507  3.0848 -1.0569
16164TIP3    H269908   0.929   5.195  15.153 -0.4403 -0.3418  0.0527
16165TIP3   OH269909   4.749   6.085  12.137  0.4324  0.1382  0.1697
16165TIP3    H169910   4.681   6.070  12.072  1.0356 -3.3968  0.1660
16165TIP3    H269911   4.712   6.053  12.219  0.8313  1.5983  0.9649
16166TIP3   OH269912   3.499   4.956   2.480 -0.1819 -0.2157 -0.7697
16166TIP3    H169913   3.538   5.040   2.457  0.2295 -0.0606  0.4584
16166TIP3    H269914   3.417   4.953   2.429 -0.5965  1.2786 -0.2185
16167TIP3   OH269915   2.583   2.328   2.436  0.5039 -0.4026  0.5307
16167TIP3    H169916   2.659   2.288   2.476  0.7506  1.2143  1.7680
16167TIP3    H269917   2.582   2.418   2.469  1.7582  1.7833 -4.3523
16168TIP3   OH269918   0.134   1.628  14.180  0.3471  0.1824 -0.2968
16168TIP3    H169919   0.223   1.620  14.146  0.9895 -0.7458  1.4839
16168TIP3    H269920   0.102   1.711  14.144  1.4398 -0.0921 -2.0015
16169TIP3   OH269921   4.757   6.349   0.821  0.3962 -0.6128  0.4331
16169TIP3    H169922   4.679   6.314   0.863 -0.9687  0.1777 -1.3242
16169TIP3    H269923   4.724   6.412   0.757  2.3460 -1.4911 -1.5630
16170TIP3   OH269924   4.034   3.327   5.556  0.7579 -0.2512 -0.5819
16170TIP3    H169925   4.061   3.393   5.493 -1.6671  1.2999 -0.1578
16170TIP3    H269926   4.015   3.377   5.636  0.4896 -1.7053  0.3076
16171TIP3   OH269927   4.698   6.330  12.328  0.2543  0.2507  0.1793
16171TIP3    H169928   4.719   6.339  12.235  0.8643 -0.3401  0.2456
16171TIP3    H269929   4.706   6.236  12.345 -2.8133 -0.1129  0.1506
16172TIP3   OH269930   3.376   0.907  15.529 -0.6318 -0.1650  0.3344
16172TIP3    H169931   3.444   0.954  15.577 -0.3900 -1.1747  1.0058
16172TIP3    H269932   3.355   0.964  15.455  2.2286 -0.6384 -0.9401
16173TIP3   OH269933   0.028   1.366  15.172  1.0887  0.0827 -0.3985
16173TIP3    H169934   0.087   1.293  15.157  0.7574 -0.8010  2.0752
16173TIP3    H269935  -0.040   1.356  15.106  1.8559 -0.9249 -1.0737
16174TIP3   OH269936   3.094   4.754  16.642 -0.0244 -0.0985  0.6669
16174TIP3    H169937   3.173   4.711  16.673  0.0656 -0.8264 -0.5054
16174TIP3    H269938   3.062   4.698  16.572 -1.2618  0.4934  0.7235
16175TIP3   OH269939   1.929   5.010   4.601  0.5068  0.4367  0.6222
16175TIP3    H169940   1.956   4.996   4.511 -0.8762 -0.4283  0.3208
16175TIP3    H269941   1.839   4.979   4.605  1.1729 -1.5568  2.8086
16176TIP3   OH269942   1.764   6.701  13.094 -0.3850  0.3238  0.3861
16176TIP3    H169943   1.729   6.701  13.183 -1.8621 -0.4951 -0.1638
16176TIP3    H269944   1.764   6.609  13.068  3.2320  0.1043  0.6827
16177TIP3   OH269945   4.570   4.780   4.225 -0.2811  0.2102 -0.0469
16177TIP3    H169946   4.484   4.811   4.251 -1.0479 -0.7493 -1.3208
16177TIP3    H269947   4.615   4.760   4.307 -1.0926  1.1334  0.6413
16178TIP3   OH269948   1.055   5.897  12.725  0.4246 -0.1309 -0.1977
16178TIP3    H169949   0.974   5.941  12.701  0.7558  1.7242  1.7727
16178TIP3    H269950   1.029   5.807  12.746 -0.9747  0.2288 -0.3161
16179TIP3   OH269951   4.599   0.964   2.377 -0.1860  0.2609  0.3516
16179TIP3    H169952   4.593   0.911   2.298 -0.5929 -0.1792  0.6766
16179TIP3    H269953   4.664   0.920   2.432 -2.9324 -1.9074  2.1112
16180TIP3   OH269954   2.543   5.137  13.981  0.2392 -0.4206 -0.1132
16180TIP3    H169955   2.578   5.070  14.039 -0.6663 -2.7540 -2.0703
16180TIP3    H269956   2.596   5.131  13.902 -1.5164 -0.7439 -1.3416
16181TIP3   OH269957   4.704   3.923  12.036 -0.1701 -0.3544  0.5991
16181TIP3    H169958   4.685   3.848  11.980  0.0134  0.1014 -0.0907
16181TIP3    H269959   4.789   3.954  12.005 -0.4439  0.3970  0.5833
16182TIP3   OH269960   6.589   5.552  12.522  0.2762 -0.6949  0.7208
16182TIP3    H169961   6.509   5.575  12.570  1.1111  1.7338  1.0769
16182TIP3    H269962   6.652   5.528  12.591  0.1089 -1.8742  0.4865
16183TIP3   OH269963   6.761   2.185   6.614  0.2984 -0.6279 -0.2876
16183TIP3    H169964   6.854   2.172   6.629  0.3057 -0.3140 -0.0470
16183TIP3    H269965   6.739   2.264   6.664 -0.2090 -1.0168  0.1264
16184TIP3   OH269966   5.983   2.248  16.630  0.3095 -0.5885  0.2579
16184TIP3    H169967   5.999   2.225  16.538  0.5893 -1.7167  0.5665
16184TIP3    H269968   5.993   2.165  16.677 -1.7281 -0.4076  1.0851
16185TIP3   OH269969   3.624   3.953   1.452  0.2591 -0.3373 -0.2454
16185TIP3    H169970   3.639   4.047   1.457 -0.6859 -0.2345  1.6610
16185TIP3    H269971   3.709   3.914   1.472  0.1379  0.1649  1.4445
16186TIP3   OH269972   2.741   5.087  13.487  0.4302 -0.6227  0.0520
16186TIP3    H169973   2.740   5.176  13.453 -0.4046 -0.7769 -0.3616
16186TIP3    H269974   2.813   5.044  13.440  2.7672  0.5776  2.3256
16187TIP3   OH269975   2.318   6.044  12.949  0.4449 -0.2150 -0.2397
16187TIP3    H169976   2.268   6.041  12.868  0.8070 -1.1377 -0.4446
16187TIP3    H269977   2.297   6.129  12.987 -1.5923 -0.7198 -0.1203
16188TIP3   OH269978   4.467   3.483  13.293  0.4020  0.5797 -0.2414
16188TIP3    H169979   4.426   3.428  13.360 -1.4357 -0.4567 -2.0721
16188TIP3    H269980   4.520   3.422  13.241 -0.0430  0.8865 -1.0838
16189TIP3   OH269981   0.888   0.944  13.422  0.6848  0.0991  0.1698
16189TIP3    H169982   0.943   0.956  13.500  1.0912 -1.9065  0.2481
16189TIP3    H269983   0.912   1.016  13.364  1.1107  1.0461  1.4704
16190TIP3   OH269984   1.640   5.455   4.227 -0.1719 -0.7526 -0.0511
16190TIP3    H169985   1.735   5.464   4.221 -0.4039  2.3070 -0.4615
16190TIP3    H269986   1.621   5.459   4.321  0.0304 -0.5512 -0.0194
16191TIP3   OH269987   5.272   6.497   1.293 -0.4223 -0.1833 -0.1841
16191TIP3    H169988   5.187   6.523   1.329 -0.7929 -1.7075  0.1077
16191TIP3    H269989   5.305   6.576   1.250  0.7933  2.4091  4.7018
16192TIP3   OH269990   2.081   1.622  14.497  0.3254  0.1733  0.2549
16192TIP3    H169991   2.036   1.647  14.578 -0.2288 -0.9276  0.3123
16192TIP3    H269992   2.043   1.678  14.430 -1.1433 -0.6932  0.3126
16193TIP3   OH269993   4.811   1.377   4.450 -0.3266  0.4646 -0.1393
16193TIP3    H169994   4.843   1.429   4.376 -0.7428 -0.1891 -0.7902
16193TIP3    H269995   4.797   1.441   4.520  0.9575  0.9644 -0.3150
16194TIP3   OH269996   4.350   3.985  12.036  0.0359  0.0967  0.2120
16194TIP3    H169997   4.296   3.927  12.090 -1.4666  0.1701 -1.1347
16194TIP3    H269998   4.349   3.945  11.949 -2.3587  2.8202 -1.1737
16195TIP3   OH269999   2.854   5.010   6.432  0.2711 -0.5184 -0.0383
16195TIP3    H170000   2.828   5.088   6.482  0.2781 -1.0092  0.7522
16195TIP3    H270001   2.779   4.952   6.438  0.7211 -1.0649  0.4141
16196TIP3   OH270002   5.842   2.073   3.024 -0.4270  0.0441 -0.1512
16196TIP3    H170003   5.847   2.137   3.095 -0.0711  0.3035 -0.4067
16196TIP3    H270004   5.753   2.038   3.029 -0.3325 -0.0965  0.5559
16197TIP3   OH270005   6.487   2.963  10.321  0.1394  0.5533 -0.2140
16197TIP3    H170006   6.547   3.020  10.368  0.5058  0.3712 -0.4566
16197TIP3    H270007   6.403   3.008  10.325  0.4181  1.0923 -0.3765
16198TIP3   OH270008   2.126   1.745  12.336  0.1175 -0.8188 -0.2167
16198TIP3    H170009   2.143   1.803  12.263 -0.5409  0.8499  0.8962
16198TIP3    H270010   2.205   1.750  12.390 -0.1372 -0.5273  0.1385
16199TIP3   OH270011   6.419   0.096   5.668  0.7226  0.2441  0.4275
16199TIP3    H170012   6.331   0.093   5.631  1.4244 -2.1893 -1.2830
16199TIP3    H270013   6.415   0.037   5.744  0.8230  0.2845  0.4650
16200TIP3   OH270014   5.140   1.125   5.558 -0.8065  0.4124  0.4243
16200TIP3    H170015   5.111   1.216   5.564  0.4463  0.8304  0.3855
16200TIP3    H270016   5.230   1.131   5.526  0.0108 -0.7137  2.3558
16201TIP3   OH270017   6.720   0.831   3.725 -0.2592  0.4109 -0.1915
16201TIP3    H170018   6.680   0.785   3.650  0.2226  0.6789 -0.6198
16201TIP3    H270019   6.807   0.792   3.732  0.6049  2.0150 -1.2875
16202TIP3   OH270020   5.281   1.290   0.163  0.0782  0.0653 -0.8479
16202TIP3    H170021   5.185   1.293   0.163  0.0460  0.3885 -2.8675
16202TIP3    H270022   5.308   1.373   0.124  1.0655 -0.9981 -2.5641
16203TIP3   OH270023   5.781   6.278  16.808 -0.3439  0.0059 -0.0212
16203TIP3    H170024   5.833   6.228  16.871 -1.9410  0.2035  1.5372
16203TIP3    H270025   5.844   6.337  16.768  0.7120  0.0851  1.6224
16204TIP3   OH270026   4.104   5.587  11.574  0.8033 -0.1600  0.4776
16204TIP3    H170027   4.048   5.606  11.649  0.2841 -0.9538  0.3048
16204TIP3    H270028   4.088   5.659  11.513  1.0670  0.3754  1.0290
16205TIP3   OH270029   5.732   6.546   0.544  0.3631 -1.1187 -0.1600
16205TIP3    H170030   5.743   6.472   0.603  0.0686 -0.4182  0.8012
16205TIP3    H270031   5.743   6.623   0.599 -0.1300 -0.4400 -0.9742
16206TIP3   OH270032   3.658   6.386   1.250 -0.4433 -0.4383 -0.0146
16206TIP3    H170033   3.684   6.322   1.185  0.4710  1.5528 -1.7310
16206TIP3    H270034   3.571   6.416   1.222 -0.6894 -0.6246  0.5356
16207TIP3   OH270035   4.443   2.789   3.750 -0.0228  0.1826  0.1422
16207TIP3    H170036   4.354   2.816   3.772  0.0422  0.5026  0.0296
16207TIP3    H270037   4.480   2.865   3.704 -0.5986 -0.9206 -2.3024
16208TIP3   OH270038   5.288   5.060  14.374 -0.3527 -0.3278 -0.0859
16208TIP3    H170039   5.321   4.982  14.330 -1.2475 -1.7517  1.6301
16208TIP3    H270040   5.297   5.040  14.467 -3.4847  0.2568  0.4459
16209TIP3   OH270041   1.377   1.425   5.011 -0.3761  1.2349  0.7255
16209TIP3    H170042   1.315   1.398   5.080  1.3302 -1.6205  1.3056
16209TIP3    H270043   1.461   1.429   5.055  0.6736 -0.0951 -1.0561
16210TIP3   OH270044   0.969   1.842   3.508  0.0224  0.3861 -0.3635
16210TIP3    H170045   0.969   1.938   3.515 -2.4046  0.3342  3.0941
16210TIP3    H270046   0.896   1.822   3.450 -1.7162  0.7356  1.5614
16211TIP3   OH270047   1.207   5.742   3.673  0.3140  0.1156  0.0002
16211TIP3    H170048   1.231   5.804   3.604 -1.8762  0.9836 -0.0705
16211TIP3    H270049   1.236   5.657   3.640 -0.1505  0.5930 -1.7494
16212TIP3   OH270050   2.212   0.051  12.659  0.1105 -0.2072 -0.3963
16212TIP3    H170051   2.272  -0.007  12.613 -0.6324 -1.1845 -0.1622
16212TIP3    H270052   2.135  -0.003  12.678 -0.0983  0.4969  0.9222
16213TIP3   OH270053   0.782   3.833   6.015 -0.4557 -0.1909 -0.3157
16213TIP3    H170054   0.845   3.878   5.959  0.9323  0.5670  1.7306
16213TIP3    H270055   0.760   3.896   6.082 -1.1591 -1.4341  0.6672
16214TIP3   OH270056   6.474   0.159   3.647 -0.2870 -0.3754 -0.2217
16214TIP3    H170057   6.431   0.112   3.576  0.0367 -0.1891 -0.5408
16214TIP3    H270058   6.564   0.127   3.648  0.1277  0.7184 -0.8873
16215TIP3   OH270059   5.369   2.198  12.040  0.0323  0.0036 -0.0398
16215TIP3    H170060   5.448   2.246  12.066  1.2835 -2.1346  0.3584
16215TIP3    H270061   5.400   2.136  11.974 -1.5144 -0.2373 -0.5544
16216TIP3   OH270062   5.471   3.471  14.408  0.4678  0.2889  0.4403
16216TIP3    H170063   5.429   3.535  14.351  1.6210 -0.3196 -1.1800
16216TIP3    H270064   5.564   3.477  14.386  0.6212 -1.8349  0.3085
16217TIP3   OH270065   0.645   6.242  17.144  0.0030  0.1827  0.4910
16217TIP3    H170066   0.694   6.272  17.221  0.6422 -0.1888  0.2390
16217TIP3    H270067   0.703   6.262  17.071  1.5124 -3.6519  0.4482
16218TIP3   OH270068   4.779   3.571  14.433  0.2055 -0.8142  0.0166
16218TIP3    H170069   4.768   3.490  14.384  1.8242 -0.0721 -1.6555
16218TIP3    H270070   4.852   3.616  14.391  0.8623  0.4612  2.3449
16219TIP3   OH270071   5.444   3.059   4.721  0.6469 -0.0583 -0.3876
16219TIP3    H170072   5.437   2.964   4.717  0.3900 -0.0221 -0.8001
16219TIP3    H270073   5.536   3.076   4.744  1.6640 -0.3435 -3.7236
16220TIP3   OH270074   6.050   4.631   3.046 -0.3087 -0.4810 -0.0525
16220TIP3    H170075   6.082   4.542   3.064  1.4234  0.0223 -0.4147
16220TIP3    H270076   6.070   4.680   3.126 -2.0433 -0.5747  0.4797
16221TIP3   OH270077   6.614   0.725   4.153 -0.0939 -0.4961 -0.1204
16221TIP3    H170078   6.606   0.711   4.059  1.4370 -0.0942 -0.3364
16221TIP3    H270079   6.625   0.819   4.163 -0.7859 -0.4698  0.5229
16222TIP3   OH270080   0.114   0.194  11.019 -0.6089  0.3175  0.4271
16222TIP3    H170081   0.185   0.190  10.955 -0.9799 -0.8118  0.0511
16222TIP3    H270082   0.116   0.108  11.061 -3.5082 -0.8990 -1.5620
16223TIP3   OH270083   4.377   2.255   2.646 -0.1529  0.4347 -0.0954
16223TIP3    H170084   4.383   2.347   2.670 -0.1517  0.1912  0.8945
16223TIP3    H270085   4.283   2.239   2.635 -0.1428  0.5847 -0.4108
16224TIP3   OH270086   3.555   6.762   2.802  0.5726  0.4021  0.3370
16224TIP3    H170087   3.630   6.767   2.862  1.0394 -0.4828 -0.1453
16224TIP3    H270088   3.557   6.844   2.754  0.4032  0.9754  1.2866
16225TIP3   OH270089   4.095   2.177  14.682  0.0278 -0.1651 -0.4271
16225TIP3    H170090   4.160   2.142  14.622  0.4975  0.1864 -0.1228
16225TIP3    H270091   4.112   2.132  14.765 -0.6139 -0.6418 -0.5374
16226TIP3   OH270092   0.201   4.962   2.783 -0.2472  0.1798  0.1787
16226TIP3    H170093   0.239   4.955   2.871  1.1530 -0.7068 -0.4592
16226TIP3    H270094   0.267   5.009   2.732 -0.0666 -1.1907 -0.9121
16227TIP3   OH270095   2.277   5.465   6.442  0.1666  0.9259 -0.3702
16227TIP3    H170096   2.238   5.493   6.359 -1.3880 -0.4170 -0.1518
16227TIP3    H270097   2.203   5.464   6.504  0.8816 -0.0391  0.5128
16228TIP3   OH270098   5.242   1.363   5.931  0.0782 -0.4130 -0.4162
16228TIP3    H170099   5.305   1.368   6.002 -0.5454 -2.6444  0.3766
16228TIP3    H270100   5.292   1.328   5.857  0.3141  0.1813 -0.5421
16229TIP3   OH270101   1.555   0.692   3.029  0.3076 -0.2086 -0.0875
16229TIP3    H170102   1.550   0.765   3.090 -0.3706  0.2077 -0.6262
16229TIP3    H270103   1.649   0.676   3.019  0.4833  0.8430 -0.2569
16230TIP3   OH270104   4.675   2.571  13.996 -0.3417  0.1859 -0.4709
16230TIP3    H170105   4.750   2.515  13.974  0.9247  1.6612 -0.0376
16230TIP3    H270106   4.669   2.566  14.091 -0.5381  0.4015 -0.4737
16231TIP3   OH270107   0.803   1.975   4.515  0.3706  0.4834  0.9732
16231TIP3    H170108   0.719   1.977   4.560  0.8698  0.3680  1.9512
16231TIP3    H270109   0.867   1.964   4.585  1.2563  1.2948  0.3174
16232TIP3   OH270110   1.320   0.954  15.050  0.4880  0.2568 -0.1429
16232TIP3    H170111   1.395   0.915  15.006  1.0609 -1.2761  2.0602
16232TIP3    H270112   1.275   0.880  15.091 -1.6795  1.2644 -0.5536
16233TIP3   OH270113   1.461   3.486  11.494  0.2840 -0.1413  0.0059
16233TIP3    H170114   1.454   3.401  11.537  3.4551 -0.2436  0.5730
16233TIP3    H270115   1.374   3.501  11.456 -0.0840 -4.2631 -1.3712
16234TIP3   OH270116   3.016   2.993   1.427 -0.7240  0.5726  0.0959
16234TIP3    H170117   2.979   2.908   1.452  0.2002  0.0113 -0.3923
16234TIP3    H270118   3.076   3.015   1.498  0.8985 -0.3854 -0.9369
16235TIP3   OH270119   3.280   2.437  13.696  0.2888 -0.1943  0.3800
16235TIP3    H170120   3.205   2.486  13.728 -0.6820 -0.4103 -1.4326
16235TIP3    H270121   3.356   2.482  13.734 -0.6973  0.8102  1.2157
16236TIP3   OH270122   1.129   4.063  16.353 -0.3716  0.5268  0.1224
16236TIP3    H170123   1.073   4.135  16.326  1.7643  2.2423 -0.0628
16236TIP3    H270124   1.153   4.083  16.444  1.4377  0.9402 -0.3942
16237TIP3   OH270125   0.501   5.569  13.034 -0.2143  0.2318  0.1354
16237TIP3    H170126   0.483   5.500  12.970 -2.7483  0.8323  0.0606
16237TIP3    H270127   0.423   5.570  13.090  0.0580  2.5335  0.5777
16238TIP3   OH270128   2.138   5.187   2.809  0.5025  0.2770 -0.1986
16238TIP3    H170129   2.043   5.196   2.803  0.4149 -0.5874 -0.3339
16238TIP3    H270130   2.173   5.243   2.739  0.1217  0.9827  0.1691
16239TIP3   OH270131   3.413   1.362   5.355  0.3532  0.3022 -0.3004
16239TIP3    H170132   3.360   1.302   5.301  0.2674 -0.1372  0.2656
16239TIP3    H270133   3.437   1.433   5.295 -0.7551  0.4366 -0.6042
16240TIP3   OH270134   6.685   2.799  13.908 -0.0885  0.3931  0.9072
16240TIP3    H170135   6.745   2.816  13.981  0.1079  0.2997  0.7687
16240TIP3    H270136   6.717   2.718  13.869  0.7670  1.2406 -0.2393
16241TIP3   OH270137   1.764   5.106  12.860  0.4785  0.2768  0.5150
16241TIP3    H170138   1.693   5.061  12.906  1.4098 -0.1621  1.5729
16241TIP3    H270139   1.814   5.150  12.929  0.8632  1.1099 -0.2769
16242TIP3   OH270140   0.980   2.996  16.915 -0.6411 -0.1909  0.3867
16242TIP3    H170141   0.937   3.072  16.876 -1.0542  0.5639  2.2075
16242TIP3    H270142   1.073   3.007  16.893 -0.7632  0.5991  0.2443
16243TIP3   OH270143   3.980   2.038   3.449  0.7350  0.1342 -0.1405
16243TIP3    H170144   4.022   1.985   3.516  0.4226 -0.2303 -0.2265
16243TIP3    H270145   3.914   2.089   3.496 -1.5978 -2.3118 -0.5148
16244TIP3   OH270146   4.173   6.724  17.015  0.0072 -0.0281  0.5406
16244TIP3    H170147   4.257   6.716  16.970  0.0581  0.5895  0.5243
16244TIP3    H270148   4.120   6.779  16.958 -0.5662 -0.7699  0.3345
16245TIP3   OH270149   0.293   6.470  12.567 -0.1892 -0.0730  0.5463
16245TIP3    H170150   0.324   6.556  12.595  1.9366 -0.4004 -0.6260
16245TIP3    H270151   0.349   6.408  12.614 -0.4156 -0.7599 -0.0754
16246TIP3   OH270152   3.138   3.477  11.149 -0.2465  0.1541  0.0824
16246TIP3    H170153   3.201   3.549  11.143 -0.0649 -0.0112 -0.0018
16246TIP3    H270154   3.173   3.410  11.090  0.7529 -0.9057  1.8087
16247TIP3   OH270155   1.104   1.667  16.899  0.7172  0.1730 -0.3986
16247TIP3    H170156   1.155   1.609  16.955  1.6097  0.1511 -1.2005
16247TIP3    H270157   1.025   1.686  16.949  0.7464 -1.1423  0.1797
16248TIP3   OH270158   4.622   2.109   3.423 -0.3319  0.3500 -0.2005
16248TIP3    H170159   4.574   2.100   3.505  1.8672 -1.4484  0.9683
16248TIP3    H270160   4.680   2.184   3.437  0.6343 -0.4698  0.2074
16249TIP3   OH270161   6.757   2.532  15.038 -0.2637 -0.1881  0.3929
16249TIP3    H170162   6.811   2.489  14.972  0.0627  0.3332  0.3187
16249TIP3    H270163   6.728   2.613  14.996 -1.7278 -0.7942  0.1464
16250TIP3   OH270164   1.174   5.900   2.645  0.0305  0.0015  0.1867
16250TIP3    H170165   1.164   5.970   2.709 -0.3703 -0.6207  0.8208
16250TIP3    H270166   1.114   5.923   2.574 -1.3169 -0.4920  1.1164
16251TIP3   OH270167   1.379   4.700  14.028  0.0194 -0.2671  0.0345
16251TIP3    H170168   1.408   4.661  13.945  1.7469  1.7760 -0.3936
16251TIP3    H270169   1.284   4.709  14.018  0.3311  1.3082 -2.3991
16252TIP3   OH270170   2.018   0.635   5.216  0.0536 -0.0854  0.1488
16252TIP3    H170171   1.990   0.571   5.150 -1.4244  0.1169  0.5497
16252TIP3    H270172   2.090   0.683   5.174 -1.2633  0.4760 -1.5918
16253TIP3   OH270173   0.298   6.568   5.053  0.5511  0.1110  0.2386
16253TIP3    H170174   0.217   6.563   5.001  0.5265  2.3447 -0.0130
16253TIP3    H270175   0.290   6.496   5.115 -0.5267 -1.1811 -1.2897
16254TIP3   OH270176   1.847   1.306   4.129  0.5370 -0.0573 -0.3061
16254TIP3    H170177   1.882   1.270   4.048 -2.7346 -1.7159 -1.1414
16254TIP3    H270178   1.875   1.245   4.197  0.3371 -0.6728 -0.7675
16255TIP3   OH270179   5.237   3.824   2.843 -0.9111 -0.7254  0.4464
16255TIP3    H170180   5.273   3.906   2.877  0.0326 -0.7850 -0.3541
16255TIP3    H270181   5.286   3.756   2.887 -0.1453 -0.8109 -0.5025
16256TIP3   OH270182   6.805   6.119  14.240 -0.1641 -0.7865  0.2080
16256TIP3    H170183   6.786   6.037  14.285  1.3528 -1.5661 -0.4873
16256TIP3    H270184   6.847   6.092  14.158  2.9467  0.6837  1.1553
16257TIP3   OH270185   5.412   1.247  10.464  0.2759 -0.6046 -0.6251
16257TIP3    H170186   5.469   1.236  10.388  1.1102  1.4984 -0.3761
16257TIP3    H270187   5.332   1.286  10.429  0.2407 -0.6064 -0.5482
16258TIP3   OH270188   4.537   5.010   3.301 -0.1460  0.6257  0.1754
16258TIP3    H170189   4.615   4.965   3.269 -0.0535  0.0081  1.2103
16258TIP3    H270190   4.502   5.056   3.225 -1.3870 -2.7787 -1.5008
16259TIP3   OH270191   2.238   6.702  11.398 -0.2474  0.0024 -0.2823
16259TIP3    H170192   2.323   6.719  11.438 -0.9746  2.7495  0.2840
16259TIP3    H270193   2.256   6.698  11.304  0.4854  1.0922 -0.2083
16260TIP3   OH270194   4.230   3.913  13.379  0.1470  0.4355  0.3114
16260TIP3    H170195   4.162   3.944  13.320 -1.2032 -1.7728  0.5972
16260TIP3    H270196   4.213   3.959  13.461 -0.0121  1.0450 -0.0513
16261TIP3   OH270197   5.444   1.394   2.603  0.5052  0.0556  0.8767
16261TIP3    H170198   5.470   1.383   2.695 -0.7275 -0.3201  1.1976
16261TIP3    H270199   5.456   1.487   2.586  0.3704  0.2001  1.5432
16262TIP3   OH270200   6.073   1.866  12.492  0.1362  0.6007  0.6744
16262TIP3    H170201   6.016   1.926  12.444 -1.3219 -1.1777  0.0613
16262TIP3    H270202   6.019   1.835  12.565  0.9584  0.2839  1.1614
16263TIP3   OH270203   5.037   6.796   1.679  0.0953 -0.5754  0.1298
16263TIP3    H170204   5.067   6.769   1.766 -1.7154 -1.3270  0.5810
16263TIP3    H270205   4.943   6.776   1.680 -0.4562  1.6335 -1.1487
16264TIP3   OH270206   2.429   0.126  12.427 -0.6405  0.1862 -0.5390
16264TIP3    H170207   2.499   0.087  12.480 -0.5541  1.9301  0.6881
16264TIP3    H270208   2.391   0.051  12.380  1.7094 -0.8894 -0.9032
16265TIP3   OH270209   2.936   2.716  11.134 -0.3319 -0.0533 -0.2252
16265TIP3    H170210   2.920   2.624  11.115 -0.7262 -0.2986  1.2405
16265TIP3    H270211   2.854   2.760  11.110 -0.1927 -0.0833 -0.7871
16266TIP3   OH270212   0.890   4.817  15.565  0.7247 -0.3625 -0.1369
16266TIP3    H170213   0.952   4.800  15.635  2.5546  1.3357 -1.2254
16266TIP3    H270214   0.932   4.779  15.487  0.1163  0.2679 -0.7822
16267TIP3   OH270215   3.173   6.606   1.768  0.1146  0.5205  0.4859
16267TIP3    H170216   3.083   6.637   1.778 -0.3187 -0.4510 -0.2548
16267TIP3    H270217   3.210   6.664   1.701  0.5472  1.8984  1.8489
16268TIP3   OH270218   3.154   6.465  16.447 -0.3747 -0.8763 -0.5666
16268TIP3    H170219   3.139   6.558  16.459 -0.6018 -0.8220 -1.2011
16268TIP3    H270220   3.078   6.435  16.396  0.5251 -1.0502 -1.8757
16269TIP3   OH270221   0.218   1.632  16.267 -0.2218  0.3255 -0.0146
16269TIP3    H170222   0.209   1.716  16.223  0.7844  0.2951 -0.3087
16269TIP3    H270223   0.258   1.652  16.351 -0.6515  0.2154  0.2165
16270TIP3   OH270224   0.528   1.831   0.614 -0.1901  0.6542 -0.2991
16270TIP3    H170225   0.504   1.887   0.540  0.3723  2.7813  1.0657
16270TIP3    H270226   0.456   1.842   0.676 -0.8843 -1.4730 -0.6335
16271TIP3   OH270227   0.413   6.409  13.294  0.3454 -0.3192 -0.0701
16271TIP3    H170228   0.448   6.495  13.271  1.3554 -1.0309 -1.2929
16271TIP3    H270229   0.408   6.362  13.211  1.0981 -1.9114  0.7375
16272TIP3   OH270230   2.954   2.332   4.647  0.1953 -0.4526  0.0000
16272TIP3    H170231   2.951   2.426   4.627  0.7721 -0.0632  1.5987
16272TIP3    H270232   3.023   2.298   4.590 -0.9098 -0.1972 -1.5608
16273TIP3   OH270233   6.586   2.077  14.386 -0.3085 -0.7062 -0.4150
16273TIP3    H170234   6.503   2.047  14.424  0.5337 -2.3066  0.2413
16273TIP3    H270235   6.614   2.150  14.442  0.9320 -3.0360  2.2117
16274TIP3   OH270236   3.365   3.389  15.523  0.4977 -0.1819  0.3400
16274TIP3    H170237   3.375   3.294  15.527 -1.2776 -0.3764  1.1306
16274TIP3    H270238   3.438   3.419  15.469  2.3047 -1.7569  1.7714
16275TIP3   OH270239   2.722   5.414   4.784 -0.3293  0.2421 -0.5490
16275TIP3    H170240   2.664   5.338   4.788  0.8622 -0.7252 -0.9862
16275TIP3    H270241   2.800   5.388   4.833  0.1750  1.1094 -0.8588
16276TIP3   OH270242   3.659   4.600  10.518 -0.3100 -0.5072  0.0260
16276TIP3    H170243   3.580   4.563  10.479 -0.6335  1.2663 -1.1353
16276TIP3    H270244   3.705   4.640  10.444  0.3214  0.8080  1.0950
16277TIP3   OH270245   5.472   1.120   2.075 -0.2379 -0.5155  0.1453
16277TIP3    H170246   5.404   1.185   2.093  1.5705  0.9047  2.3472
16277TIP3    H270247   5.506   1.142   1.989 -1.1029  0.0916 -0.0466
16278TIP3   OH270248   4.538   1.905   5.344 -0.9481  0.3778 -0.5011
16278TIP3    H170249   4.561   1.816   5.318  0.1882  0.7820 -0.9390
16278TIP3    H270250   4.508   1.897   5.435  0.7613 -0.2385  0.0551
16279TIP3   OH270251   6.451   5.064   4.238  0.3156 -0.0874 -0.0737
16279TIP3    H170252   6.394   5.086   4.312 -1.5844 -0.4302 -1.3583
16279TIP3    H270253   6.392   5.026   4.173  1.9726 -0.0517 -1.6787
16280TIP3   OH270254   3.003   1.890   4.566 -0.1614  0.3042  1.1771
16280TIP3    H170255   2.941   1.886   4.493 -0.6208  1.9650  1.4202
16280TIP3    H270256   2.947   1.898   4.643  0.2516 -3.1526  1.9806
16281TIP3   OH270257   2.028   6.711  13.180 -0.2661  0.1691  0.6664
16281TIP3    H170258   2.014   6.617  13.186 -0.0057  0.1584  1.1299
16281TIP3    H270259   1.942   6.747  13.159 -0.0831 -0.3051 -1.0819
16282TIP3   OH270260   2.233   5.699   2.440 -0.3440 -0.0564  0.1595
16282TIP3    H170261   2.319   5.735   2.419 -0.6849  0.1056 -0.9984
16282TIP3    H270262   2.236   5.609   2.410 -0.9617  0.2846 -0.9721
16283TIP3   OH270263   6.370   0.676  13.735  0.4945 -0.5951  0.1213
16283TIP3    H170264   6.355   0.720  13.818 -1.9538 -0.7036 -0.1970
16283TIP3    H270265   6.337   0.588  13.748 -2.3413  0.0857 -1.6245
16284TIP3   OH270266   5.737   4.730   3.608 -0.4739  0.3792  0.0791
16284TIP3    H170267   5.690   4.812   3.622 -0.1298  0.5260  0.3879
16284TIP3    H270268   5.711   4.675   3.682  0.3545  0.6993  0.6151
16285TIP3   OH270269   0.190   2.222  13.692 -0.3339  0.3200 -0.5211
16285TIP3    H170270   0.157   2.139  13.727 -0.6720  0.3259 -0.8242
16285TIP3    H270271   0.282   2.205  13.674  0.0823  0.5735  1.1869
16286TIP3   OH270272   5.259   0.442   4.284 -0.0188  0.1639 -0.7464
16286TIP3    H170273   5.183   0.396   4.248  0.8087 -1.7561 -0.1696
16286TIP3    H270274   5.331   0.380   4.273  1.1692  1.3598  0.0688
16287TIP3   OH270275   0.993   6.568  14.809 -0.0489  0.2254  0.5796
16287TIP3    H170276   1.081   6.542  14.780 -0.2751 -0.4553  0.4823
16287TIP3    H270277   0.935   6.531  14.743 -0.6255 -1.7924  2.1138
16288TIP3   OH270278   4.357   2.585  13.593  0.1005 -0.3267  0.3518
16288TIP3    H170279   4.395   2.594  13.680 -1.2707 -0.0090  0.9397
16288TIP3    H270280   4.271   2.547  13.608  0.7518 -2.5558 -1.0756
16289TIP3   OH270281   6.638   3.996   2.255  0.0528 -0.0035  1.0741
16289TIP3    H170282   6.577   3.926   2.233  0.3303  0.5165 -1.8514
16289TIP3    H270283   6.711   3.951   2.297 -1.1050 -1.0002  2.1171
16290TIP3   OH270284   2.282   2.826   0.370  0.1981 -0.6992  0.5465
16290TIP3    H170285   2.198   2.864   0.344 -0.6702 -2.8364 -0.0694
16290TIP3    H270286   2.333   2.824   0.289 -0.3074 -2.0658  0.2329
16291TIP3   OH270287   4.450   2.441   5.106 -0.5505 -0.0213  0.0413
16291TIP3    H170288   4.381   2.440   5.171 -0.8715 -0.5280 -0.2997
16291TIP3    H270289   4.428   2.370   5.046 -1.6336  1.9541 -2.0434
16292TIP3   OH270290   3.308   6.609  17.036  0.1747 -0.2025  0.1567
16292TIP3    H170291   3.231   6.560  17.009 -1.7540  0.6864  3.4435
16292TIP3    H270292   3.371   6.542  17.064 -0.8021 -0.9102  0.7060
16293TIP3   OH270293   5.674   2.072   1.580  0.0505 -0.5180 -0.5461
16293TIP3    H170294   5.755   2.081   1.629 -0.0342 -1.5887 -0.1942
16293TIP3    H270295   5.677   1.984   1.544 -0.3674 -0.1139 -1.6124
16294TIP3   OH270296   2.627   1.675  14.687  0.3024  0.3727  0.5254
16294TIP3    H170297   2.591   1.757  14.653  0.6042  0.5470  0.6244
16294TIP3    H270298   2.704   1.659  14.632 -0.9775 -1.0143 -1.0005
16295TIP3   OH270299   2.532   1.358   0.936  0.2159  0.0008 -0.0060
16295TIP3    H170300   2.611   1.362   0.990  0.9041 -0.7856 -0.9382
16295TIP3    H270301   2.462   1.338   0.999  0.8030  0.2967  0.7674
16296TIP3   OH270302   0.506   6.248   1.375  0.1983  0.0538  0.4642
16296TIP3    H170303   0.439   6.310   1.404 -0.8899  0.9410 -3.4162
16296TIP3    H270304   0.460   6.165   1.368 -0.2823  0.4096 -1.0457
16297TIP3   OH270305   0.518   3.437  11.708 -0.2529  0.1392 -0.1093
16297TIP3    H170306   0.598   3.477  11.673  0.1162 -0.2311  0.3028
16297TIP3    H270307   0.475   3.508  11.755 -0.0302  0.2734 -0.1052
16298TIP3   OH270308   1.128   0.617  14.903  0.6132 -0.0010 -0.1453
16298TIP3    H170309   1.199   0.585  14.848  0.6665  0.2804 -0.2397
16298TIP3    H270310   1.080   0.538  14.929  0.2447 -0.0867 -1.0662
16299TIP3   OH270311   6.297   6.618  13.794 -0.3867  0.2510 -0.3388
16299TIP3    H170312   6.382   6.640  13.756  0.2394 -0.2041  0.7618
16299TIP3    H270313   6.237   6.683  13.758  0.1299 -0.2517 -2.2387
16300TIP3   OH270314   1.555   5.293   1.068  0.1486  0.2882  0.7266
16300TIP3    H170315   1.537   5.387   1.076  0.1636  0.3545  0.0096
16300TIP3    H270316   1.500   5.253   1.135  0.2066  0.8135  1.1011
16301TIP3   OH270317   3.792   6.069   4.158 -0.0798  0.5875 -0.0467
16301TIP3    H170318   3.860   6.043   4.095  0.2364  0.5420  0.3082
16301TIP3    H270319   3.813   6.019   4.237 -1.2324 -0.3308 -0.2993
16302TIP3   OH270320   2.633   0.855  13.511  0.1728 -0.2932 -0.4626
16302TIP3    H170321   2.637   0.822  13.601  1.2236 -0.0681 -0.4041
16302TIP3    H270322   2.707   0.813  13.467  1.4744  1.7810 -0.4267
16303TIP3   OH270323   3.902   1.928  12.855  0.0673 -0.4622 -0.1245
16303TIP3    H170324   3.813   1.911  12.885 -0.6324 -0.1360 -1.9021
16303TIP3    H270325   3.928   1.848  12.810 -0.5193  0.4881 -2.2617
16304TIP3   OH270326   1.988   2.349   4.774  0.0157 -0.4582  0.0938
16304TIP3    H170327   2.077   2.312   4.771  0.3312  0.3138 -0.4312
16304TIP3    H270328   1.990   2.420   4.710 -1.0257 -0.5088 -0.0123
16305TIP3   OH270329   1.130   6.644  16.541 -0.5529  0.1595 -0.7795
16305TIP3    H170330   1.210   6.678  16.583 -0.3917  0.8137 -1.5985
16305TIP3    H270331   1.163   6.588  16.471 -0.8190 -0.2386 -0.5845
16306TIP3   OH270332   6.274   4.208   0.851 -1.1986  0.1729 -0.0621
16306TIP3    H170333   6.264   4.289   0.801 -0.8489  1.2992  1.6040
16306TIP3    H270334   6.185   4.185   0.878 -1.6486 -1.4592 -2.6068
16307TIP3   OH270335   6.711   4.419  11.228 -0.0925  0.1132  0.1502
16307TIP3    H170336   6.751   4.374  11.153 -1.4909  0.5938 -0.9298
16307TIP3    H270337   6.783   4.434  11.288  0.3625 -4.4077  1.0595
16308TIP3   OH270338   4.974   6.589  14.359 -0.0621  0.1671  0.1567
16308TIP3    H170339   5.067   6.571  14.372  0.2035  0.5666 -1.0679
16308TIP3    H270340   4.971   6.671  14.309 -1.0633  0.0725  0.0241
16309TIP3   OH270341   6.045   1.312   6.424 -0.0200  0.1974  0.1813
16309TIP3    H170342   5.985   1.241   6.402  0.3088 -0.0555  0.1142
16309TIP3    H270343   5.990   1.391   6.421 -0.4729 -0.0960  0.6342
16310TIP3   OH270344   2.478   2.619   1.366 -0.0482 -0.3167 -0.3014
16310TIP3    H170345   2.442   2.564   1.297 -0.3077 -0.3678 -0.1265
16310TIP3    H270346   2.447   2.579   1.448  0.2583 -0.2584 -0.1546
16311TIP3   OH270347   2.948   2.056   4.212  0.3654 -0.1094 -0.6552
16311TIP3    H170348   2.856   2.057   4.183  0.3938  0.7827 -0.7296
16311TIP3    H270349   2.970   1.963   4.217  0.3182 -0.3733 -3.3904
16312TIP3   OH270350   6.065   0.781   3.665  0.2189  0.2842 -0.2208
16312TIP3    H170351   6.001   0.830   3.716  0.2235 -0.4917  0.5692
16312TIP3    H270352   6.041   0.689   3.680  1.5704 -0.0205  0.1690
16313TIP3   OH270353   5.127   3.039   2.941  0.3961 -0.2547 -0.8252
16313TIP3    H170354   5.164   3.037   2.852  1.8981 -0.6530 -0.2227
16313TIP3    H270355   5.121   3.132   2.963  1.3869 -0.1816 -0.8172
16314TIP3   OH270356   6.733   5.501  12.750 -0.3048  0.4611 -0.2085
16314TIP3    H170357   6.743   5.496  12.845 -1.3258 -0.8810 -0.1367
16314TIP3    H270358   6.813   5.460  12.715 -0.0719  0.6738  0.0713
16315TIP3   OH270359   1.271   3.352  15.292  0.5612  0.3140  0.8950
16315TIP3    H170360   1.242   3.339  15.382  1.1296  1.5971  1.2904
16315TIP3    H270361   1.366   3.362  15.298  0.9189 -1.8661 -0.1437
16316TIP3   OH270362   5.683   6.078  11.059 -0.3367 -0.1577  0.5078
16316TIP3    H170363   5.679   6.053  11.151 -0.8701 -0.2255  0.4676
16316TIP3    H270364   5.614   6.027  11.017 -1.5569  1.4647  0.4459
16317TIP3   OH270365   5.943   5.706   1.618  0.5495 -0.7445  0.9729
16317TIP3    H170366   5.977   5.624   1.583 -1.2615 -2.6730  3.4130
16317TIP3    H270367   6.021   5.758   1.638  1.7824 -2.4215  0.6612
16318TIP3   OH270368   2.386   4.968   3.500  0.3761  0.0575  0.3769
16318TIP3    H170369   2.433   4.900   3.451 -0.7037 -1.1519  0.9660
16318TIP3    H270370   2.440   4.982   3.578  1.1158  0.6154 -0.2201
16319TIP3   OH270371   2.843   3.861   6.009  0.4509  0.3940 -0.3440
16319TIP3    H170372   2.909   3.856   6.078 -0.0015  1.3522  0.1711
16319TIP3    H270373   2.883   3.914   5.941 -0.0071  1.5010  0.2352
16320TIP3   OH270374   5.443   6.159  11.753  0.1233 -0.2026 -0.5998
16320TIP3    H170375   5.389   6.218  11.806 -1.1211 -0.6799 -1.2844
16320TIP3    H270376   5.455   6.082  11.808 -0.4415 -0.3483 -0.6698
16321TIP3   OH270377   5.779   3.618   1.020  0.0198  0.2168  0.2036
16321TIP3    H170378   5.818   3.662   1.095  0.5204  0.8515 -0.4221
16321TIP3    H270379   5.791   3.525   1.038 -0.6877  0.3286  1.3460
16322TIP3   OH270380   1.261   1.912  15.185 -0.4741  0.1036  0.6308
16322TIP3    H170381   1.171   1.936  15.162 -0.5074 -0.4674  0.1652
16322TIP3    H270382   1.284   1.973  15.256 -0.4313  1.7709 -0.7296
16323TIP3   OH270383   0.332   1.366   3.280 -0.5412  0.4863 -0.5429
16323TIP3    H170384   0.345   1.438   3.217 -0.1975  0.4118 -0.5601
16323TIP3    H270385   0.240   1.342   3.271 -0.6425  0.8899 -0.5766
16324TIP3   OH270386   2.627   3.252   6.055  0.3952  0.0937 -0.1718
16324TIP3    H170387   2.554   3.249   5.994 -2.2662  1.7140  2.6487
16324TIP3    H270388   2.680   3.326   6.024 -1.1029  1.1334 -0.3909
16325TIP3   OH270389   2.369   1.274   1.905  0.2371 -0.5459 -0.5622
16325TIP3    H170390   2.414   1.308   1.827  1.4765 -3.6841 -1.3794
16325TIP3    H270391   2.283   1.248   1.874  0.6191 -1.5051 -0.8551
16326TIP3   OH270392   1.761   1.613  10.805 -0.4349 -0.3259 -0.0964
16326TIP3    H170393   1.746   1.689  10.749  1.4211  1.2514  1.4284
16326TIP3    H270394   1.827   1.561  10.758  0.8198  0.7835  0.3828
16327TIP3   OH270395   6.104   3.445   6.417  0.2949  0.2218  0.0058
16327TIP3    H170396   6.136   3.429   6.328  0.8441 -0.3929  0.3060
16327TIP3    H270397   6.179   3.426   6.474 -0.3335 -0.3498  0.6662
16328TIP3   OH270398   6.735   0.600   5.505  0.1013  0.1128 -0.3125
16328TIP3    H170399   6.734   0.516   5.461  1.3173  0.0021 -0.1861
16328TIP3    H270400   6.800   0.651   5.457 -1.2099  1.2896 -0.9060
16329TIP3   OH270401   6.174   5.497  13.316 -0.0893 -0.8309  0.7867
16329TIP3    H170402   6.131   5.412  13.306 -1.3275 -0.1170 -0.4615
16329TIP3    H270403   6.111   5.550  13.366 -1.1124  0.4469 -1.6580
16330TIP3   OH270404   3.952   4.729  12.999 -0.0740 -0.7498 -0.4991
16330TIP3    H170405   4.023   4.715  12.936 -2.1588 -0.6360 -3.0308
16330TIP3    H270406   3.905   4.806  12.965 -0.7929 -0.1546  1.7117
16331TIP3   OH270407   4.748   1.273  16.271  0.4532 -0.1394  0.3954
16331TIP3    H170408   4.737   1.193  16.220 -2.0575 -0.2847  1.0230
16331TIP3    H270409   4.757   1.242  16.362 -0.8483  0.2510  0.6809
16332TIP3   OH270410   5.189   2.462  15.638 -0.6829 -0.6857 -0.3483
16332TIP3    H170411   5.221   2.551  15.652 -1.3323 -0.5884  0.6480
16332TIP3    H270412   5.163   2.460  15.545 -0.2496  0.0202 -0.4931
16333TIP3   OH270413   4.943   1.872   2.557  0.0051 -0.0498  0.4082
16333TIP3    H170414   4.906   1.959   2.573 -1.2447 -0.1126 -1.8177
16333TIP3    H270415   4.870   1.820   2.522  1.1998 -1.4306 -0.1665
16334TIP3   OH270416   3.176   5.360  15.235 -0.4402 -0.1807 -0.3178
16334TIP3    H170417   3.245   5.347  15.170 -0.5010  1.1801 -0.7046
16334TIP3    H270418   3.222   5.390  15.313 -0.5676  0.8189 -0.6043
16335TIP3   OH270419   2.941   0.683  14.411  0.2588  0.1874  0.2055
16335TIP3    H170420   2.873   0.742  14.376  0.0491 -0.3128 -0.2422
16335TIP3    H270421   2.895   0.601  14.427 -0.0480  0.8287  3.2471
16336TIP3   OH270422   0.493   1.926   6.067 -0.2456 -0.4871 -0.1625
16336TIP3    H170423   0.571   1.977   6.088 -0.7993 -0.2921  1.5255
16336TIP3    H270424   0.431   1.989   6.031 -0.3337 -0.2814  0.3536
16337TIP3   OH270425   2.985   4.195   0.073  0.0367  0.0255  0.0330
16337TIP3    H170426   2.993   4.213   0.167 -0.2815 -0.5519  0.1785
16337TIP3    H270427   2.894   4.167   0.062  0.5380 -1.6631 -0.1347
16338TIP3   OH270428   6.083   2.476  10.414  0.0139 -0.1804 -0.0609
16338TIP3    H170429   6.068   2.405  10.351  1.3740 -0.2639 -0.3292
16338TIP3    H270430   6.037   2.551  10.378  0.8915 -0.1876 -1.2482
16339TIP3   OH270431   0.810   3.798  14.795  0.2127  0.1483 -0.1421
16339TIP3    H170432   0.844   3.709  14.807 -2.2123 -0.7402  0.5619
16339TIP3    H270433   0.852   3.849  14.865  1.9312 -0.2858 -0.7953
16340TIP3   OH270434   2.572   0.879  14.777 -0.2934 -0.1022  0.5919
16340TIP3    H170435   2.544   0.908  14.864  0.7447 -0.6514  1.1287
16340TIP3    H270436   2.616   0.796  14.793  0.8445  0.3001 -0.3275
16341TIP3   OH270437   4.537   0.878   3.005 -0.5870 -0.5171  0.0630
16341TIP3    H170438   4.538   0.973   2.991 -1.6797 -0.2495  1.5583
16341TIP3    H270439   4.451   0.850   2.974 -0.7706 -0.8079  0.8176
16342TIP3   OH270440   3.401   3.015  12.776 -0.0278  0.6158  0.4824
16342TIP3    H170441   3.363   3.019  12.863  0.0865  0.0945  0.5550
16342TIP3    H270442   3.483   3.064  12.783  0.2905  0.0327  0.8246
16343TIP3   OH270443   4.189   1.022   4.312  0.7085 -0.0497  0.1150
16343TIP3    H170444   4.209   0.977   4.394  2.1959  1.9859  0.9609
16343TIP3    H270445   4.117   0.972   4.274  1.8965 -2.7904  1.1882
16344TIP3   OH270446   3.762   4.100  11.377 -0.4504 -0.1400 -0.1245
16344TIP3    H170447   3.778   4.168  11.312  1.2142 -0.2427  0.1153
16344TIP3    H270448   3.761   4.146  11.461  0.6311 -0.3786  0.0339
16345TIP3   OH270449   6.806   1.630  11.601 -0.5632 -0.3459 -0.9368
16345TIP3    H170450   6.890   1.599  11.635 -0.3787  1.9349  0.9191
16345TIP3    H270451   6.821   1.641  11.507  1.1088 -0.3061 -0.6912
16346TIP3   OH270452   5.634   2.011  16.713  0.1180 -0.0927 -0.0842
16346TIP3    H170453   5.561   1.952  16.695  1.1168 -0.8784 -1.7999
16346TIP3    H270454   5.621   2.039  16.804 -4.2254  2.6150 -1.2683
16347TIP3   OH270455   1.052   1.542   0.608 -0.3847 -0.4543  0.6307
16347TIP3    H170456   0.981   1.565   0.668 -0.5118  1.6311 -0.2381
16347TIP3    H270457   1.038   1.598   0.532 -0.0594 -2.8259 -1.2618
16348TIP3   OH270458   1.795   0.984  13.849  0.3268 -0.4780 -0.3000
16348TIP3    H170459   1.890   0.988  13.847  0.3093  0.2527 -0.1090
16348TIP3    H270460   1.770   1.045  13.919 -0.2803 -0.6162 -0.3902
16349TIP3   OH270461   2.205   1.320   4.108 -0.0922 -0.3261 -0.3815
16349TIP3    H170462   2.142   1.373   4.156  0.4878  0.7840 -0.8028
16349TIP3    H270463   2.230   1.374   4.033 -0.0377 -1.5097 -1.2440
16350TIP3   OH270464   2.892   6.202  15.617 -0.4870  0.0219  0.0700
16350TIP3    H170465   2.925   6.118  15.649 -4.1408 -1.4817  0.3909
16350TIP3    H270466   2.890   6.258  15.695  1.4480  0.2767 -0.0290
16351TIP3   OH270467   4.201   4.635   5.930  0.2588 -0.3959  0.3184
16351TIP3    H170468   4.246   4.614   5.848 -0.7607 -3.2551  0.3976
16351TIP3    H270469   4.120   4.585   5.926 -1.5145  2.1903  1.5649
16352TIP3   OH270470   0.321   5.482  16.145  0.2326 -0.3547  0.1803
16352TIP3    H170471   0.259   5.555  16.136  0.1027 -0.6007 -1.0749
16352TIP3    H270472   0.334   5.473  16.240 -0.8034  0.4102  0.4099
16353TIP3   OH270473   4.311   3.284   3.113  0.2055  0.2935 -0.7426
16353TIP3    H170474   4.243   3.338   3.153 -0.7230 -1.8384  0.7278
16353TIP3    H270475   4.394   3.323   3.142 -0.4193  1.2447 -0.2092
16354TIP3   OH270476   2.863   3.719   5.370  0.1203  0.4275 -0.5686
16354TIP3    H170477   2.929   3.687   5.309 -0.9983 -1.8317 -0.6941
16354TIP3    H270478   2.907   3.790   5.418  1.1917  1.9780 -3.5659
16355TIP3   OH270479   1.700   4.049  15.960 -0.1470 -0.1855  0.1516
16355TIP3    H170480   1.701   3.972  15.904 -1.1324 -0.2061  0.1374
16355TIP3    H270481   1.753   4.114  15.913 -0.3890 -0.4294 -0.4708
16356TIP3   OH270482   4.901   6.592   1.821  0.3472  0.1077  0.3899
16356TIP3    H170483   4.938   6.635   1.898  0.6036  0.5901  0.0001
16356TIP3    H270484   4.946   6.508   1.816 -0.3821 -0.3664  1.3414
16357TIP3   OH270485   5.637   3.276  11.171 -0.0631  0.2463  0.0301
16357TIP3    H170486   5.548   3.300  11.196  0.1918  2.9607 -1.3019
16357TIP3    H270487   5.689   3.354  11.190  1.6711 -0.6153 -0.9436
16358TIP3   OH270488   3.610   2.035  15.777  0.2913 -0.1135 -0.3929
16358TIP3    H170489   3.590   2.076  15.693  1.0717  1.0992 -0.0179
16358TIP3    H270490   3.630   2.109  15.835  0.5618 -0.9722  0.6402
16359TIP3   OH270491   0.643   6.562  11.519  0.1529  0.2849  0.7032
16359TIP3    H170492   0.631   6.602  11.605  0.3673 -0.8376  1.2775
16359TIP3    H270493   0.716   6.611  11.480 -1.5457  2.4660  0.0835
16360TIP3   OH270494   5.437   1.445  12.106  0.4772  0.2807  0.0618
16360TIP3    H170495   5.348   1.418  12.130  0.6596 -0.2926  0.1191
16360TIP3    H270496   5.468   1.496  12.181 -0.0633  1.1152 -0.2673
16361TIP3   OH270497   0.080   0.455   1.525 -0.1964 -0.6668  0.5743
16361TIP3    H170498   0.090   0.360   1.512  0.1141 -0.7131  1.1303
16361TIP3    H270499   0.079   0.466   1.620  1.8784  0.1052  0.5573
16362TIP3   OH270500   6.722   4.785   6.507 -0.0515 -0.3211  0.3038
16362TIP3    H170501   6.783   4.718   6.477 -0.2648  0.1214 -1.2055
16362TIP3    H270502   6.777   4.853   6.545  0.1491 -1.4651  2.2117
16363TIP3   OH270503   2.858   4.162   2.907 -0.2582  0.1655  0.5897
16363TIP3    H170504   2.881   4.115   2.988 -0.1528  1.2552  1.2135
16363TIP3    H270505   2.764   4.147   2.897 -0.0190 -1.1700  0.1035
16364TIP3   OH270506   4.208   0.842   2.573  0.5976  0.2772  0.2982
16364TIP3    H170507   4.200   0.860   2.479  0.6704 -1.3448 -0.0352
16364TIP3    H270508   4.290   0.793   2.581 -0.4329 -1.3981  0.9183
16365TIP3   OH270509   0.914   6.430  12.664 -0.1085 -0.1152 -0.6562
16365TIP3    H170510   0.909   6.408  12.571 -0.4519  2.7276 -1.3973
16365TIP3    H270511   0.998   6.394  12.693 -0.6801 -2.3636 -1.6151
16366TIP3   OH270512   6.172   0.762  10.785  0.8403 -0.4067  0.2378
16366TIP3    H170513   6.156   0.723  10.698  1.9340 -2.1185  0.7607
16366TIP3    H270514   6.247   0.820  10.771  0.2703  0.2460 -0.1940
16367TIP3   OH270515   1.676   6.448  15.657  0.5411 -0.1390 -0.6753
16367TIP3    H170516   1.721   6.369  15.686  1.3985  0.9359  1.1821
16367TIP3    H270517   1.681   6.446  15.561  0.5985 -2.2551 -0.6566
16368TIP3   OH270518   3.095   4.328  13.842 -0.5907  0.6107  0.9301
16368TIP3    H170519   3.118   4.292  13.928 -0.2287 -1.6986 -0.0532
16368TIP3    H270520   3.057   4.254  13.795 -0.5959  1.7604 -0.9687
16369TIP3   OH270521   0.282   0.380  13.480  0.1669 -0.6549  0.1775
16369TIP3    H170522   0.337   0.365  13.556  0.6598  0.4825  0.0600
16369TIP3    H270523   0.197   0.405  13.517  1.6014  4.8085  0.6053
16370TIP3   OH270524   6.342   2.891  11.728 -1.7229 -0.4200  0.5607
16370TIP3    H170525   6.366   2.934  11.646  1.9243 -2.7111  0.2174
16370TIP3    H270526   6.269   2.834  11.704 -0.1930 -1.6697 -1.3645
16371TIP3   OH270527   3.182   4.795  14.869 -0.9562  0.4338  0.3006
16371TIP3    H170528   3.170   4.890  14.872 -0.1820  0.5834 -0.6537
16371TIP3    H270529   3.096   4.759  14.892 -1.7799  1.3809 -1.1034
16372TIP3   OH270530   1.722   6.130  14.833 -0.3383  0.2972  0.7333
16372TIP3    H170531   1.655   6.129  14.764 -0.1018 -0.9920  0.4991
16372TIP3    H270532   1.673   6.113  14.914 -0.5227  1.1495  0.8129
16373TIP3   OH270533   4.899   4.346  12.158 -0.1096 -0.8203 -0.1732
16373TIP3    H170534   4.965   4.332  12.226  0.7622  2.9679 -0.0045
16373TIP3    H270535   4.949   4.364  12.079 -1.0067 -0.6998 -0.7224
16374TIP3   OH270536   3.860   4.335  16.957  0.3506 -0.4824  0.1763
16374TIP3    H170537   3.886   4.421  16.991  2.2818 -1.0638  0.3359
16374TIP3    H270538   3.795   4.303  17.019  0.1837  0.5462  0.5471
16375TIP3   OH270539   4.544   4.725   5.474  0.0436 -0.2739 -0.3258
16375TIP3    H170540   4.561   4.642   5.517 -0.3692 -0.0671  0.2640
16375TIP3    H270541   4.562   4.791   5.541 -3.0246 -0.0357  0.4252
16376TIP3   OH270542   0.598   2.314   2.578  0.0778  0.0365  0.3278
16376TIP3    H170543   0.569   2.356   2.496  1.3272  0.1889 -0.0596
16376TIP3    H270544   0.558   2.227   2.575 -0.6040  0.3444 -0.0106
16377TIP3   OH270545   2.226   3.131   2.908 -0.4773  0.2832  0.2215
16377TIP3    H170546   2.247   3.212   2.863  1.1910 -0.1889  0.0791
16377TIP3    H270547   2.185   3.158   2.990 -1.9213  1.1910 -0.7534
16378TIP3   OH270548   1.443   4.459   2.039  0.0074 -0.0135  0.4471
16378TIP3    H170549   1.491   4.376   2.045  0.7411  0.1830 -1.9179
16378TIP3    H270550   1.512   4.526   2.035 -0.4588  0.4081 -1.2036
16379TIP3   OH270551   6.556   1.429  11.660 -0.1408  0.2206 -0.0696
16379TIP3    H170552   6.464   1.447  11.643 -0.2936 -0.5386 -0.0774
16379TIP3    H270553   6.603   1.496  11.612 -0.6763  0.2162 -0.6057
16380TIP3   OH270554   0.430   5.120  17.033  0.5127 -0.4120 -0.2197
16380TIP3    H170555   0.461   5.174  16.961 -0.1988 -0.5388 -0.6389
16380TIP3    H270556   0.357   5.070  16.996 -1.2229  0.9911  1.0868
16381TIP3   OH270557   5.445   4.506  16.279 -0.4419 -0.2514 -0.2053
16381TIP3    H170558   5.481   4.559  16.350  1.2373 -0.0996 -1.1254
16381TIP3    H270559   5.355   4.488  16.306  0.2919 -0.6596  2.2274
16382TIP3   OH270560   2.854   2.758   1.441 -0.3853 -0.3792  0.3453
16382TIP3    H170561   2.891   2.672   1.420  1.6674  0.2482  1.1680
16382TIP3    H270562   2.843   2.756   1.537  0.3148  0.5051  0.4481
16383TIP3   OH270563   4.720   5.192   1.725 -0.3602  0.1627 -0.5439
16383TIP3    H170564   4.710   5.098   1.740  0.2237 -0.1631 -2.0686
16383TIP3    H270565   4.700   5.204   1.632 -0.8250  1.6161 -0.2794
16384TIP3   OH270566   1.291   2.185   5.532  0.1376 -0.1151  0.4693
16384TIP3    H170567   1.313   2.141   5.450  0.4865  3.8257 -1.7991
16384TIP3    H270568   1.195   2.182   5.536  0.0562  0.4472 -0.6344
16385TIP3   OH270569   0.078   6.200   2.870  0.1693  0.1329  0.3176
16385TIP3    H170570   0.037   6.135   2.813  0.6415 -0.8886  1.1080
16385TIP3    H270571   0.171   6.180   2.867  0.2238  0.1944  1.2745
16386TIP3   OH270572   2.375   1.501  15.998 -0.6183 -0.1662 -0.2591
16386TIP3    H170573   2.411   1.577  15.952 -0.2481  0.2187  0.6383
16386TIP3    H270574   2.372   1.432  15.932  2.8921 -0.5915 -0.1799
16387TIP3   OH270575   3.686   0.760  10.729  0.3476 -0.2523  0.9908
16387TIP3    H170576   3.737   0.838  10.749 -2.4500  1.3422  2.5276
16387TIP3    H270577   3.622   0.788  10.664  1.2596 -2.1665 -0.8548
16388TIP3   OH270578   0.480   2.945   0.449 -0.5149  0.5203  0.7312
16388TIP3    H170579   0.425   2.988   0.384 -0.3549 -0.0402  0.2207
16388TIP3    H270580   0.491   2.856   0.417  3.3220  1.3849 -0.9252
16389TIP3   OH270581   5.737   5.551   0.567 -0.1968  0.3383  0.1237
16389TIP3    H170582   5.806   5.485   0.561  0.0997  0.3556  2.5535
16389TIP3    H270583   5.762   5.617   0.501 -0.2321 -1.6325 -1.9828
16390TIP3   OH270584   5.467   4.038  13.916  0.0483 -0.7427 -0.3043
16390TIP3    H170585   5.415   3.959  13.906 -0.2450 -0.4893 -0.8150
16390TIP3    H270586   5.441   4.094  13.843 -0.6117  0.3173  0.7070
16391TIP3   OH270587   5.614   4.746  15.392  0.3823  0.6423  0.9200
16391TIP3    H170588   5.557   4.785  15.325  1.1217  1.0457  0.5097
16391TIP3    H270589   5.641   4.820  15.446  3.3897  1.1703 -1.0272
16392TIP3   OH270590   3.404   2.517  11.513  0.3417 -0.4942  0.3239
16392TIP3    H170591   3.318   2.508  11.470 -0.1701 -1.9666  1.5525
16392TIP3    H270592   3.387   2.492  11.604  2.2465 -1.6219  0.4072
16393TIP3   OH270593   5.741   5.390   5.523 -0.0612  0.6344  0.2227
16393TIP3    H170594   5.647   5.395   5.505 -0.2479 -0.9856  0.5345
16393TIP3    H270595   5.782   5.431   5.448 -0.9710 -1.2996 -1.4289
16394TIP3   OH270596   1.682   1.497  15.079  0.0201 -0.0457 -0.5602
16394TIP3    H170597   1.591   1.484  15.053 -0.2233  0.5185 -0.0291
16394TIP3    H270598   1.700   1.427  15.142 -0.3685  0.4204  0.0859
16395TIP3   OH270599   6.486   2.982  13.883 -1.4975  0.4944 -0.0658
16395TIP3    H170600   6.548   2.914  13.908 -1.4481  0.3265 -0.6444
16395TIP3    H270601   6.403   2.935  13.870 -1.2224  0.3603 -1.5279
16396TIP3   OH270602   5.292   4.411  11.715 -0.6263  0.3882  0.0830
16396TIP3    H170603   5.270   4.486  11.660  0.4384  1.3493  0.9228
16396TIP3    H270604   5.378   4.383  11.684 -0.3776  0.4273  0.7221
16397TIP3   OH270605   6.693   1.045  12.874  0.0652 -0.1649 -1.0965
16397TIP3    H170606   6.785   1.030  12.854 -0.4367 -1.7349 -2.4167
16397TIP3    H270607   6.683   1.017  12.965  0.6502 -1.0841 -1.3104
16398TIP3   OH270608   6.698   5.925  16.672  0.0830  0.8360 -0.0279
16398TIP3    H170609   6.696   5.940  16.577  0.8969 -1.0713 -0.3942
16398TIP3    H270610   6.612   5.889  16.692  0.5824 -0.6173 -0.4179
16399TIP3   OH270611   1.339   0.530   3.111 -0.0191  0.2190 -0.5540
16399TIP3    H170612   1.407   0.590   3.079  0.9439 -0.5076  0.0527
16399TIP3    H270613   1.380   0.444   3.107  0.7254  0.1391  3.7510
16400TIP3   OH270614   4.161   1.016  14.811  0.8618  0.0721  0.3307
16400TIP3    H170615   4.236   1.051  14.860 -0.4718  3.2336  0.3430
16400TIP3    H270616   4.106   0.975  14.877  2.0187 -1.3936  0.4549
16401TIP3   OH270617   2.700   1.417  11.754  0.2188 -0.1613  0.2461
16401TIP3    H170618   2.660   1.439  11.838  1.2113 -0.0969  0.7271
16401TIP3    H270619   2.631   1.431  11.689  0.2774  2.7630  0.6930
16402TIP3   OH270620   2.826   3.920  13.653 -0.1253 -0.2139  0.4825
16402TIP3    H170621   2.770   3.990  13.618 -1.1740 -0.4099  1.7090
16402TIP3    H270622   2.867   3.882  13.575  0.6234  1.8616 -0.2097
16403TIP3   OH270623   2.196   0.029  14.254  0.0326  0.0992 -0.2429
16403TIP3    H170624   2.258  -0.001  14.321  0.1579 -0.7260 -0.7170
16403TIP3    H270625   2.123  -0.032  14.260 -0.6469  0.9452  0.1664
16404TIP3   OH270626   5.910   0.028   3.500 -0.0950  0.1253  0.2229
16404TIP3    H170627   5.847   0.085   3.456  0.7106  0.5632 -0.4020
16404TIP3    H270628   5.880   0.023   3.591 -0.1584  1.5677  0.2928
16405TIP3   OH270629   5.130   6.126   4.678  0.0548 -0.5953  0.3979
16405TIP3    H170630   5.057   6.137   4.740  0.2910 -0.9871  0.7513
16405TIP3    H270631   5.125   6.203   4.622 -1.0739 -0.9531 -0.0382
16406TIP3   OH270632   6.278   0.507  14.183  0.6364 -0.8727  0.2617
16406TIP3    H170633   6.323   0.423  14.172  1.1456 -0.4821 -0.7761
16406TIP3    H270634   6.314   0.563  14.114  0.1126  0.1232  0.7691
16407TIP3   OH270635   5.928   5.639  14.929  0.1063 -0.0418  0.3558
16407TIP3    H170636   5.884   5.560  14.898 -1.0030 -0.0378  1.8285
16407TIP3    H270637   5.902   5.707  14.867 -2.1199 -0.0197  1.2257
16408TIP3   OH270638   1.655   0.653  12.249  0.5130  0.8693 -0.1402
16408TIP3    H170639   1.623   0.733  12.291  1.8598  1.7153 -0.6665
16408TIP3    H270640   1.750   0.654  12.264  0.6163 -0.3911 -0.5666
16409TIP3   OH270641   4.053   6.448   2.205  0.1142 -0.6422 -0.1562
16409TIP3    H170642   4.097   6.498   2.273  0.7058  0.3049 -1.1960
16409TIP3    H270643   4.004   6.381   2.252 -1.9876  1.8292  1.4624
16410TIP3   OH270644   3.209   1.610  15.527 -0.4737 -0.2254 -0.5763
16410TIP3    H170645   3.209   1.695  15.482  0.4381  0.3212  0.4237
16410TIP3    H270646   3.250   1.627  15.611 -1.4147 -1.4110  0.1574
16411TIP3   OH270647   0.459   2.217  11.629  0.0821  0.0208 -0.6332
16411TIP3    H170648   0.430   2.298  11.588  0.5007 -0.1175 -1.2084
16411TIP3    H270649   0.424   2.221  11.718  0.9027  1.2856 -0.3481
16412TIP3   OH270650   1.400   1.055  14.262  0.4367  0.3397  0.1221
16412TIP3    H170651   1.350   1.070  14.343 -2.3276  1.4536 -1.6429
16412TIP3    H270652   1.411   1.142  14.225  1.1353 -0.2150 -1.0148
16413TIP3   OH270653   4.394   5.476   3.360 -0.5866  0.2252 -0.2610
16413TIP3    H170654   4.453   5.500   3.288 -1.5623 -0.6464 -1.4033
16413TIP3    H270655   4.442   5.411   3.411 -0.7044 -0.8525 -1.4726
16414TIP3   OH270656   5.511   2.387   0.081  0.2943  0.3938  0.2067
16414TIP3    H170657   5.550   2.459   0.032  1.3087  0.1384  0.6240
16414TIP3    H270658   5.436   2.360   0.027 -1.7400  3.3852  1.2152
16415TIP3   OH270659   3.001   1.554  11.986 -0.0962 -0.0385  0.1062
16415TIP3    H170660   2.990   1.628  12.046  0.3854  0.2475 -0.1484
16415TIP3    H270661   2.937   1.489  12.015 -1.7267  1.1366 -0.6588
16416TIP3   OH270662   2.540   1.214  13.979 -0.0559 -0.2179 -0.0780
16416TIP3    H170663   2.552   1.251  14.067  0.8345  0.1563 -0.3450
16416TIP3    H270664   2.620   1.237  13.933 -0.6118 -0.2219 -1.0613
16417TIP3   OH270665   4.898   6.613  16.558  0.2615 -0.2386  0.7154
16417TIP3    H170666   4.944   6.593  16.477  1.7311 -0.0619  1.4728
16417TIP3    H270667   4.901   6.709  16.564 -0.8191 -0.1735  0.4499
16418TIP3   OH270668   4.470   1.970   5.023 -0.3116 -0.5090  0.2925
16418TIP3    H170669   4.501   1.882   5.000  0.5692  0.1474 -1.1685
16418TIP3    H270670   4.477   1.973   5.118  0.0971 -1.8647  0.3270
16419TIP3   OH270671   1.985   6.584  16.603 -0.0211 -0.1716  0.4974
16419TIP3    H170672   1.959   6.669  16.638  1.8754  2.5747 -3.9107
16419TIP3    H270673   2.079   6.579  16.618  0.1752 -0.6550 -0.7552
16420TIP3   OH270674   4.274   3.023   3.196 -0.4377 -0.1239 -0.1487
16420TIP3    H170675   4.293   3.108   3.156 -2.1896  0.9504  1.1538
16420TIP3    H270676   4.356   2.975   3.191  0.5301  1.5501 -1.1438
16421TIP3   OH270677   1.935   0.323  14.665 -0.4570 -0.1425  0.0067
16421TIP3    H170678   1.958   0.241  14.709 -0.2336  0.3817  0.8961
16421TIP3    H270679   1.843   0.311  14.639  0.2172 -1.5342 -1.9260
16422TIP3   OH270680   5.351   3.356  11.195  0.4677  0.4204  0.3001
16422TIP3    H170681   5.298   3.430  11.223  0.3287  1.3201 -2.1268
16422TIP3    H270682   5.343   3.292  11.266  0.0685  2.4408  2.1624
16423TIP3   OH270683   5.032   2.135   0.383  0.0286  0.5658  0.4102
16423TIP3    H170684   4.992   2.181   0.457 -3.0192  1.3910 -1.5481
16423TIP3    H270685   5.105   2.190   0.356 -1.3048  2.3834  0.3823
16424TIP3   OH270686   1.041   4.519   0.759  0.5766  1.0985  0.1330
16424TIP3    H170687   1.081   4.488   0.678 -1.0764  1.2346 -0.7637
16424TIP3    H270688   0.998   4.441   0.796  0.2998  1.3065  0.2551
16425TIP3   OH270689   5.483   5.747   2.824  0.3013 -0.4245  0.7915
16425TIP3    H170690   5.407   5.750   2.765  1.1696 -1.5299 -0.4517
16425TIP3    H270691   5.555   5.783   2.772  0.9132 -0.6401  1.4778
16426TIP3   OH270692   3.633   4.020  12.793 -0.4886 -0.1521  0.0833
16426TIP3    H170693   3.664   3.955  12.729  2.3152  1.2420 -0.1298
16426TIP3    H270694   3.623   3.970  12.874 -0.8508 -1.2986 -0.6253
16427TIP3   OH270695   4.169   0.746  16.153  0.5585  0.2417  0.0732
16427TIP3    H170696   4.100   0.691  16.115 -0.1537  0.5981  0.8045
16427TIP3    H270697   4.122   0.804  16.213  0.6475  4.3463 -3.4021
16428TIP3   OH270698   5.813   0.894   3.526 -0.2655 -0.0894 -0.0767
16428TIP3    H170699   5.905   0.920   3.516 -0.3068  0.3541  0.5545
16428TIP3    H270700   5.801   0.821   3.466  0.2842  0.3759 -0.7641
16429TIP3   OH270701   1.548   3.148  14.337 -0.0961  0.2981 -0.3502
16429TIP3    H170702   1.614   3.139  14.405 -1.3935 -0.5402  0.8709
16429TIP3    H270703   1.488   3.214  14.370 -1.4924 -1.0841  0.0158
16430TIP3   OH270704   0.296   4.907  16.391  0.1328  0.6059 -0.2780
16430TIP3    H170705   0.206   4.940  16.396  0.8279  2.6648 -0.1791
16430TIP3    H270706   0.347   4.981  16.357  1.8560 -0.3708  0.0413
16431TIP3   OH270707   2.643   2.112  11.188 -0.2715  0.2686  0.3752
16431TIP3    H170708   2.642   2.081  11.278  4.1078  1.4925  1.1033
16431TIP3    H270709   2.602   2.198  11.191 -0.4351  0.1673  1.1089
16432TIP3   OH270710   0.357   1.771   3.934  0.0338  0.6670  0.0721
16432TIP3    H170711   0.373   1.787   4.027 -0.3123  1.7352 -0.0398
16432TIP3    H270712   0.265   1.794   3.922 -0.3666 -0.9659 -0.2316
16433TIP3   OH270713   2.869   0.351   4.294  0.1838  0.4043 -0.4325
16433TIP3    H170714   2.893   0.344   4.201 -0.0269 -0.2965 -0.4405
16433TIP3    H270715   2.932   0.413   4.330 -0.2925  1.3735 -1.2307
16434TIP3   OH270716   0.079   5.091   1.531  0.3440 -0.2058  0.2465
16434TIP3    H170717   0.159   5.142   1.523 -0.1972  0.3674 -2.5881
16434TIP3    H270718   0.109   5.000   1.532  1.1057  0.0352  1.4389
16435TIP3   OH270719   1.691   0.020  14.849 -0.0286  0.3285  0.1367
16435TIP3    H170720   1.636  -0.003  14.775  0.6165  0.6113 -0.4382
16435TIP3    H270721   1.634   0.073  14.906 -0.4096  0.4424 -0.3498
16436TIP3   OH270722   3.643   3.011   5.667  0.3944  0.4338  0.5269
16436TIP3    H170723   3.580   3.082   5.651 -0.2992 -0.2565  0.1215
16436TIP3    H270724   3.723   3.041   5.625 -0.2763  0.4101 -0.8435
16437TIP3   OH270725   3.096   5.711   2.645  0.1238 -0.1024  0.0001
16437TIP3    H170726   3.054   5.727   2.729 -0.2521 -0.1319 -0.1809
16437TIP3    H270727   3.070   5.785   2.590 -0.2966 -0.4983 -0.3417
16438TIP3   OH270728   5.822   1.543   5.179 -0.0097  0.5149 -0.2087
16438TIP3    H170729   5.781   1.472   5.229 -0.7497 -0.4746 -2.1117
16438TIP3    H270730   5.910   1.550   5.216 -0.9752  0.9219  2.2464
16439TIP3   OH270731   6.281   4.332   2.646  0.3122  0.5766 -0.0000
16439TIP3    H170732   6.373   4.342   2.621 -0.3512  3.1905 -1.8636
16439TIP3    H270733   6.253   4.421   2.669 -1.8374 -0.1045  0.2369
16440TIP3   OH270734   2.905   6.088   2.214  0.8596 -0.4615 -0.1635
16440TIP3    H170735   2.845   6.107   2.142  1.7023 -0.1024 -0.7836
16440TIP3    H270736   2.916   6.172   2.259  1.1008 -0.4624 -0.2169
16441TIP3   OH270737   4.481   1.473   4.875 -0.6846  0.0494  0.1707
16441TIP3    H170738   4.397   1.428   4.866 -1.0878  1.0400 -1.3881
16441TIP3    H270739   4.537   1.434   4.808 -0.3296  0.3161  0.3124
16442TIP3   OH270740   1.901   4.680  12.110  0.5220  0.2906 -0.2981
16442TIP3    H170741   1.874   4.758  12.063 -0.0495 -0.0268 -0.4947
16442TIP3    H270742   1.842   4.676  12.186  0.0565 -0.3583 -0.6885
16443TIP3   OH270743   3.236   6.682   5.320  0.0352 -0.8256  0.1726
16443TIP3    H170744   3.230   6.692   5.415 -1.7426  0.7564 -0.0525
16443TIP3    H270745   3.241   6.587   5.307  0.9277 -1.0581  1.8513
16444TIP3   OH270746   0.197   5.798   6.272 -0.2866  0.3428 -0.2795
16444TIP3    H170747   0.246   5.728   6.315 -1.6673  0.7751  2.2029
16444TIP3    H270748   0.124   5.753   6.228  0.8291 -0.0489 -1.8192
16445TIP3   OH270749   4.275   0.600  16.934 -0.6965  0.2034 -0.0250
16445TIP3    H170750   4.341   0.586  16.866  0.5824  1.5167  0.8939
16445TIP3    H270751   4.228   0.679  16.906 -1.6499 -0.5092 -0.4800
16446TIP3   OH270752   6.770   5.675  15.298 -0.0357  0.6453  0.7333
16446TIP3    H170753   6.726   5.650  15.379 -0.4679  1.2350  0.6830
16446TIP3    H270754   6.822   5.752  15.322 -0.0343  0.7221  0.4837
16447TIP3   OH270755   1.248   1.780  12.761  0.6816 -0.6469  0.1679
16447TIP3    H170756   1.253   1.706  12.700  0.6582  0.3334 -1.0716
16447TIP3    H270757   1.288   1.852  12.713 -1.1160  0.6585  0.5340
16448TIP3   OH270758   0.018   2.163  13.391 -0.7428 -0.5104 -0.0296
16448TIP3    H170759  -0.049   2.134  13.453 -0.5137 -1.3048 -0.1331
16448TIP3    H270760   0.071   2.085  13.376  0.2632  0.1315  0.1112
16449TIP3   OH270761   6.528   2.149  14.866  0.2014  0.3146  0.7382
16449TIP3    H170762   6.484   2.089  14.805  2.9891  0.7722 -1.9551
16449TIP3    H270763   6.566   2.091  14.933  1.7072 -0.8658 -1.0619
16450TIP3   OH270764   2.342   5.999  12.242 -0.1968 -0.7113 -0.5690
16450TIP3    H170765   2.297   5.950  12.311  0.8938  0.3917  1.0141
16450TIP3    H270766   2.275   6.056  12.206 -0.7279 -1.1055 -0.2256
16451TIP3   OH270767   0.891   0.847   4.931  0.2210  0.0164 -0.0666
16451TIP3    H170768   0.850   0.932   4.917 -3.8695 -1.5261  1.0017
16451TIP3    H270769   0.954   0.838   4.859  0.3200  3.5610 -0.5966
16452TIP3   OH270770   6.793   0.617   2.560 -0.1849 -0.3854  0.1754
16452TIP3    H170771   6.869   0.587   2.609 -1.5622 -2.0691  1.3961
16452TIP3    H270772   6.828   0.647   2.476  1.6723 -2.4104  0.1539
16453TIP3   OH270773   0.051   3.609   6.409 -0.4032  0.2646 -0.5779
16453TIP3    H170774   0.014   3.545   6.470  0.6981 -1.8817 -2.0636
16453TIP3    H270775  -0.017   3.676   6.401 -1.4097 -0.4387  1.3852
16454TIP3   OH270776   2.347   5.391  11.829  0.2814 -0.7908  0.0335
16454TIP3    H170777   2.262   5.430  11.849  0.7569 -0.3629  1.2682
16454TIP3    H270778   2.334   5.348  11.744 -0.4959  1.2684 -0.9454
16455TIP3   OH270779   3.360   3.709  11.376 -0.0049  0.3563 -0.1390
16455TIP3    H170780   3.411   3.780  11.414 -0.0199  1.5907 -2.2951
16455TIP3    H270781   3.273   3.718  11.415  0.8583 -0.6467  2.1804
16456TIP3   OH270782   4.645   2.412   1.708  0.2199 -0.7961 -0.3762
16456TIP3    H170783   4.707   2.476   1.674  0.3453 -0.1339  1.0126
16456TIP3    H270784   4.593   2.386   1.632  0.1081  1.0369 -0.9749
16457TIP3   OH270785   0.412   1.599   2.738 -0.5359  0.0432  0.1859
16457TIP3    H170786   0.488   1.563   2.782  0.6968  0.6099 -1.3865
16457TIP3    H270787   0.408   1.550   2.655 -1.4720  0.5047 -0.0528
16458TIP3   OH270788   0.322   0.268   2.693 -0.2065  0.1740  0.4852
16458TIP3    H170789   0.398   0.271   2.635  0.2262 -0.5711  0.9846
16458TIP3    H270790   0.345   0.328   2.765 -0.8656  1.3181 -0.2434
16459TIP3   OH270791   6.354   0.024  17.008 -0.1351 -0.1017 -0.3420
16459TIP3    H170792   6.420   0.091  17.026 -0.4353  0.3261 -0.8393
16459TIP3    H270793   6.275   0.056  17.051 -0.5112  0.2974 -1.3149
16460TIP3   OH270794   5.606   5.376   4.919 -0.5086 -0.6870  0.4585
16460TIP3    H170795   5.574   5.306   4.862 -0.7465  0.5990 -1.0808
16460TIP3    H270796   5.550   5.451   4.897  0.8666  0.4603  0.7555
16461TIP3   OH270797   2.397   6.115  13.502  0.4567  0.1876 -0.0400
16461TIP3    H170798   2.381   6.099  13.595  1.7544  0.4790  0.2499
16461TIP3    H270799   2.369   6.205  13.488  1.0293  0.4161  0.2653
16462TIP3   OH270800   6.747   2.481   4.075  0.0816  0.0215 -0.3170
16462TIP3    H170801   6.817   2.440   4.023  1.7056 -1.9803  3.1260
16462TIP3    H270802   6.793   2.535   4.139 -1.7630  1.1505  0.1264
16463TIP3   OH270803   0.290   4.992   5.533  0.0291 -0.3385  0.5370
16463TIP3    H170804   0.243   5.008   5.452  0.8656  1.3258  0.3234
16463TIP3    H270805   0.222   4.987   5.601 -0.5737 -0.0967 -0.0440
16464TIP3   OH270806   6.600   4.127  15.435  0.2509 -0.1148 -1.2294
16464TIP3    H170807   6.645   4.043  15.421 -0.3482 -0.4194 -1.3617
16464TIP3    H270808   6.592   4.133  15.531  0.7428  0.0322 -1.1970
16465TIP3   OH270809   3.352   0.289   4.117  0.2170  0.3574  0.3073
16465TIP3    H170810   3.420   0.259   4.178  0.1958  2.0041  1.1969
16465TIP3    H270811   3.398   0.299   4.034  0.4984 -0.8637  0.2913
16466TIP3   OH270812   1.389   5.723   4.773 -0.6181 -0.4274  0.8228
16466TIP3    H170813   1.481   5.694   4.773 -0.4410  0.1196  0.8019
16466TIP3    H270814   1.355   5.693   4.689 -0.4973 -0.7468  0.8850
16467TIP3   OH270815   2.047   4.004  12.498 -0.5649  0.6863 -0.1774
16467TIP3    H170816   2.029   3.986  12.406 -2.1348  0.8614  0.0683
16467TIP3    H270817   1.968   4.048  12.530 -0.9874 -1.3263  1.8060
16468TIP3   OH270818   1.850   5.766  11.857 -0.1317  0.7769  0.4933
16468TIP3    H170819   1.802   5.720  11.788 -1.3167  1.2331  0.9721
16468TIP3    H270820   1.783   5.818  11.901  0.9999  2.2512  0.5530
16469TIP3   OH270821   4.753   4.619   3.405  0.4190 -0.4566  0.0425
16469TIP3    H170822   4.822   4.686   3.414  0.2367 -0.4486  1.9894
16469TIP3    H270823   4.738   4.590   3.495 -2.7086  0.1375 -0.1823
16470TIP3   OH270824   0.032   0.324  11.945  0.1307  0.0965  0.0305
16470TIP3    H170825   0.064   0.380  12.016  1.1254  0.3898 -0.6326
16470TIP3    H270826   0.110   0.282  11.909 -0.5926 -1.7325  0.4898
16471TIP3   OH270827   6.188   3.512  14.379  0.1192 -0.1307  0.6004
16471TIP3    H170828   6.267   3.459  14.387  0.1084 -0.0867  0.9859
16471TIP3    H270829   6.169   3.512  14.285  0.5687 -0.1513  0.5068
16472TIP3   OH270830   2.167   2.536   1.973  0.4537 -0.5453  0.0573
16472TIP3    H170831   2.089   2.496   1.936 -0.0451 -0.3753  0.8895
16472TIP3    H270832   2.189   2.481   2.048  0.4376  0.0659  0.5242
16473TIP3   OH270833   6.686   4.546  15.861 -0.3019 -0.3308 -0.6924
16473TIP3    H170834   6.609   4.598  15.838  0.0622  0.6733  0.2838
16473TIP3    H270835   6.731   4.597  15.928  1.9590 -0.2348 -2.1674
16474TIP3   OH270836   5.372   6.053   4.802 -0.1319 -0.4939  0.4248
16474TIP3    H170837   5.434   6.070   4.731 -0.9608 -1.6420 -0.6123
16474TIP3    H270838   5.286   6.053   4.760 -0.4661 -3.8587  0.8412
16475TIP3   OH270839   4.035   1.190   6.461  0.2419  0.2706 -0.3927
16475TIP3    H170840   4.111   1.240   6.431  0.1257  0.2938 -0.6530
16475TIP3    H270841   3.960   1.231   6.416 -0.1794  1.4968  1.3082
16476TIP3   OH270842   2.677   4.137   0.391  0.2690 -0.1067 -0.1267
16476TIP3    H170843   2.594   4.092   0.403 -0.4170  0.7021 -1.5981
16476TIP3    H270844   2.740   4.083   0.439 -0.2439 -3.4783 -2.8194
16477TIP3   OH270845   6.459   3.638   1.232 -0.1212  0.3561 -0.4371
16477TIP3    H170846   6.438   3.697   1.160  0.3117  1.1587  0.0834
16477TIP3    H270847   6.554   3.646   1.244 -0.4075  1.5971  1.3662
16478TIP3   OH270848   4.988   5.797   3.716 -0.2335 -1.1946  0.1353
16478TIP3    H170849   4.975   5.817   3.809 -1.0730  1.4652 -0.4708
16478TIP3    H270850   4.971   5.879   3.671  0.1362 -2.4118 -2.4167
16479TIP3   OH270851   6.367   4.523   1.058 -0.5318  0.9429 -0.2558
16479TIP3    H170852   6.431   4.499   0.992  0.6493 -0.7381  1.3983
16479TIP3    H270853   6.302   4.452   1.055 -0.3332  0.7167  0.5250
16480TIP3   OH270854   3.239   4.691   1.329  0.2469  0.4863 -0.4282
16480TIP3    H170855   3.253   4.597   1.335 -1.2478  0.2949  0.6496
16480TIP3    H270856   3.313   4.729   1.375  1.5228 -0.0625 -1.9093
16481TIP3   OH270857   1.304   4.660   3.031 -0.1231  0.2571 -0.5803
16481TIP3    H170858   1.323   4.686   2.941  1.5190  0.4160 -0.2245
16481TIP3    H270859   1.209   4.662   3.038 -0.2297  1.1858 -2.0273
16482TIP3   OH270860   0.037   1.628   5.569  0.2034  0.1682 -0.0251
16482TIP3    H170861   0.004   1.546   5.605 -0.6226 -0.2638 -1.6511
16482TIP3    H270862  -0.020   1.695   5.606 -2.9136 -0.5719 -2.9361
16483TIP3   OH270863   6.700   3.079   2.921  1.0557 -0.0751 -0.5477
16483TIP3    H170864   6.793   3.060   2.908  0.8532 -0.7380 -1.0573
16483TIP3    H270865   6.659   2.994   2.931  1.0389  0.2358  3.8256
16484TIP3   OH270866   2.196   3.394  15.561  0.0102 -0.3140  0.1032
16484TIP3    H170867   2.247   3.452  15.619 -0.9493  0.4293  0.2356
16484TIP3    H270868   2.111   3.439  15.551 -0.6838 -1.5987  0.0296
16485TIP3   OH270869   5.872   1.034   6.050 -0.5654 -0.1261  0.3515
16485TIP3    H170870   5.937   1.103   6.065 -0.0415  0.3232 -3.2310
16485TIP3    H270871   5.907   0.959   6.097  0.8201  1.0091  1.2531
16486TIP3   OH270872   3.813   2.615   1.693 -0.3853 -0.2721  0.1744
16486TIP3    H170873   3.886   2.676   1.679 -1.0818  0.3104 -1.2400
16486TIP3    H270874   3.853   2.528   1.693  0.1798 -0.1097 -2.4454
16487TIP3   OH270875   1.716   5.434  12.982 -0.3370  0.5033 -0.6603
16487TIP3    H170876   1.762   5.513  12.953  1.4820  0.5196  1.9112
16487TIP3    H270877   1.624   5.455  12.971  0.1427  2.0463 -2.2665
16488TIP3   OH270878   2.854   4.406   4.851 -0.0495 -0.3772 -0.2772
16488TIP3    H170879   2.890   4.438   4.934  0.0698  0.7949 -0.7668
16488TIP3    H270880   2.897   4.322   4.837  1.6136  0.4417 -0.2589
16489TIP3   OH270881   5.072   6.391   1.847  0.3713  0.0928  0.6985
16489TIP3    H170882   5.088   6.348   1.764 -0.8632  0.5986  0.1813
16489TIP3    H270883   5.157   6.431   1.870  0.9088 -0.6690  0.0660
16490TIP3   OH270884   0.467   1.938  16.011  0.0288  0.8874  0.5506
16490TIP3    H170885   0.508   1.885  16.079  1.7438  0.0799 -1.0036
16490TIP3    H270886   0.378   1.905  16.005  0.3173 -0.0863  1.3463
16491TIP3   OH270887   0.519   5.451  14.962 -0.3867  0.5670 -0.1329
16491TIP3    H170888   0.530   5.357  14.955 -1.2058  0.4725 -0.2247
16491TIP3    H270889   0.608   5.485  14.971 -0.1890 -0.3904  2.3098
16492TIP3   OH270890   2.105   2.944  10.707 -0.3532  0.3031  0.0183
16492TIP3    H170891   2.094   3.021  10.652  1.0662  0.4844 -0.0475
16492TIP3    H270892   2.194   2.915  10.690 -1.4881 -2.6685 -1.6138
16493TIP3   OH270893   0.555   1.810   4.394  0.1091  0.0550 -0.6191
16493TIP3    H170894   0.604   1.877   4.346 -1.3432  0.4523 -1.6201
16493TIP3    H270895   0.469   1.850   4.409 -0.5517 -1.3160 -0.5904
16494TIP3   OH270896   5.429   2.246   1.403 -0.0150  0.4372  0.1869
16494TIP3    H170897   5.456   2.207   1.486  0.1045 -0.2344 -0.1602
16494TIP3    H270898   5.484   2.323   1.393 -1.8926  2.1772  2.0821
16495TIP3   OH270899   3.970   2.674  14.559  0.3359 -0.1918 -0.0232
16495TIP3    H170900   3.884   2.654  14.521  1.3620  0.5842 -3.0354
16495TIP3    H270901   4.002   2.589  14.591 -0.2742 -1.1088 -1.7287
16496TIP3   OH270902   6.084   5.717   6.315 -0.1741  0.8111 -0.9277
16496TIP3    H170903   6.082   5.629   6.278 -0.3954  0.1913  0.4710
16496TIP3    H270904   5.992   5.744   6.317 -0.0682  1.2254 -1.7001
16497TIP3   OH270905   4.889   2.961   3.065 -0.0718 -0.7722 -0.4790
16497TIP3    H170906   4.978   2.985   3.038 -0.1766  1.1593  0.6972
16497TIP3    H270907   4.834   2.982   2.990  0.0839  1.2355 -0.0982
16498TIP3   OH270908   2.727   1.580   1.203  0.0940  0.0894  0.2903
16498TIP3    H170909   2.749   1.532   1.123 -0.3925  0.1974  0.0905
16498TIP3    H270910   2.783   1.658   1.201  2.1193 -1.2103  1.4227
16499TIP3   OH270911   6.082   3.231   0.713  0.3380  0.1690 -0.0710
16499TIP3    H170912   6.172   3.199   0.717 -0.5284 -2.4756  1.3773
16499TIP3    H270913   6.042   3.179   0.643 -0.3920  0.3308  0.2215
16500TIP3   OH270914   0.334   1.053  13.880 -0.1328 -0.0053 -0.2777
16500TIP3    H170915   0.293   1.116  13.939  1.2035  0.5474  0.1037
16500TIP3    H270916   0.366   1.106  13.807  0.9051 -0.2206 -0.0073
16501TIP3   OH270917   5.444   4.822  12.943  0.4530  0.2404  0.1915
16501TIP3    H170918   5.432   4.727  12.946  3.8226 -0.2835  2.8248
16501TIP3    H270919   5.377   4.857  13.001 -1.1321 -0.3796 -1.1762
16502TIP3   OH270920   4.415   4.362  11.806 -0.0757  0.1410  0.5591
16502TIP3    H170921   4.483   4.294  11.803 -1.5384 -1.3768 -0.2710
16502TIP3    H270922   4.397   4.374  11.899  0.4181 -0.4036  0.7306
16503TIP3   OH270923   1.039   1.538  16.609  0.1293  1.0477  0.9797
16503TIP3    H170924   1.065   1.602  16.543 -0.1539  0.7325  0.5581
16503TIP3    H270925   1.014   1.591  16.685  0.0466  1.4302  0.6886
16504TIP3   OH270926   4.457   5.131   5.949  0.0249  0.2751  0.0270
16504TIP3    H170927   4.431   5.222   5.963  1.6487  0.9916 -1.2210
16504TIP3    H270928   4.553   5.135   5.942  0.3941 -1.9041  2.4197
16505TIP3   OH270929   1.609   1.595   0.904  1.1974  0.0899  0.4574
16505TIP3    H170930   1.686   1.647   0.927  1.3235 -0.0538  0.3639
16505TIP3    H270931   1.609   1.594   0.808 -0.1882  1.9746  0.3855
16506TIP3   OH270932   4.402   3.982   1.937 -0.3361  0.6226 -0.0748
16506TIP3    H170933   4.433   3.897   1.969  1.8098  1.0397 -0.8227
16506TIP3    H270934   4.385   3.967   1.844  0.1447  1.0078 -0.2294
16507TIP3   OH270935   4.322   1.604  12.703  0.2169  0.2100  0.4696
16507TIP3    H170936   4.291   1.529  12.651 -0.3384  1.0786 -0.4950
16507TIP3    H270937   4.251   1.620  12.765 -0.8169  1.4421 -0.9487
16508TIP3   OH270938   6.330   2.227   3.997 -0.2636 -0.0606  0.4753
16508TIP3    H170939   6.339   2.307   4.049  0.7181 -0.5988  1.1836
16508TIP3    H270940   6.357   2.252   3.909  0.2168  0.3611  0.7345
16509TIP3   OH270941   2.824   2.208   6.055 -0.1538  0.7072 -0.1095
16509TIP3    H170942   2.800   2.256   6.135  0.5442  0.3676  0.3073
16509TIP3    H270943   2.773   2.251   5.986 -0.4038  1.3147  0.4394
16510TIP3   OH270944   5.182   3.331  13.614  0.2619 -0.1861  0.0806
16510TIP3    H170945   5.092   3.307  13.636  0.0596  1.2289  0.9152
16510TIP3    H270946   5.174   3.419  13.576  1.3759  0.3013  0.9588
16511TIP3   OH270947   0.702   0.479  13.898 -0.0411 -0.2094  0.5188
16511TIP3    H170948   0.662   0.549  13.846 -1.3784 -0.4255  1.2316
16511TIP3    H270949   0.743   0.524  13.972 -0.3883 -0.1339  0.6638
16512TIP3   OH270950   3.209   2.183  12.741  0.7461 -0.1751 -0.5612
16512TIP3    H170951   3.229   2.254  12.678  2.2505 -0.0933 -0.0316
16512TIP3    H270952   3.222   2.103  12.691 -1.0664 -0.1137 -1.1941
16513TIP3   OH270953   0.925   4.758   4.232  0.9275  0.7032 -0.3081
16513TIP3    H170954   0.882   4.702   4.297  0.5913  0.5013 -0.6979
16513TIP3    H270955   0.920   4.846   4.269 -1.0291  0.9053 -0.9167
16514TIP3   OH270956   1.603   3.003   1.043  0.1340 -0.0668 -0.0016
16514TIP3    H170957   1.652   3.035   1.119  2.9278 -0.6671 -1.4234
16514TIP3    H270958   1.574   2.915   1.069 -0.3975  0.3680  0.9379
16515TIP3   OH270959   0.325   2.165  15.944 -0.5279  0.0544  0.6473
16515TIP3    H170960   0.351   2.241  15.996  0.8783 -0.6017  0.9485
16515TIP3    H270961   0.376   2.093  15.979 -0.7945 -0.7490 -0.5463
16516TIP3   OH270962   3.202   5.210  15.608 -0.0612 -0.2062 -0.7358
16516TIP3    H170963   3.152   5.128  15.611  0.3717 -0.5065  2.9124
16516TIP3    H270964   3.135   5.277  15.594 -1.0168 -0.8979  0.2962
16517TIP3   OH270965   6.230   2.347  15.602  0.2290  0.1335 -0.3367
16517TIP3    H170966   6.268   2.264  15.571 -2.3675 -1.2889  0.0180
16517TIP3    H270967   6.261   2.355  15.692 -0.2634 -0.9928 -0.0493
16518TIP3   OH270968   1.743   2.567  14.115  0.8010  0.1443 -0.8592
16518TIP3    H170969   1.684   2.642  14.113 -0.8175 -1.0923 -2.3660
16518TIP3    H270970   1.744   2.534  14.025 -0.7298 -3.2395  0.1953
16519TIP3   OH270971   2.367   5.341  14.165  0.4667  0.5381  0.0941
16519TIP3    H170972   2.348   5.295  14.083 -1.0271 -1.4805  1.4714
16519TIP3    H270973   2.436   5.288  14.207 -0.2167  0.3650  1.0296
16520TIP3   OH270974   6.276   0.235   2.178 -0.4919  0.3108 -0.1682
16520TIP3    H170975   6.292   0.295   2.250  2.7416 -0.0978 -0.4191
16520TIP3    H270976   6.319   0.275   2.103  0.7034 -1.7123 -0.6182
16521TIP3   OH270977   2.432   5.630   2.798 -0.1560  0.1188  0.3721
16521TIP3    H170978   2.459   5.550   2.842  1.5970  0.4787  0.0242
16521TIP3    H270979   2.496   5.696   2.825  0.2004  0.6712 -1.6019
16522TIP3   OH270980   1.798   2.122  15.643  0.4952 -0.7224  0.0226
16522TIP3    H170981   1.722   2.067  15.623  0.0154 -0.2175  0.4549
16522TIP3    H270982   1.869   2.083  15.591 -0.2969 -0.5591 -1.2211
16523TIP3   OH270983   1.518   4.489   4.933  0.4155  0.5679  0.0029
16523TIP3    H170984   1.483   4.576   4.950  0.2613  0.7851 -1.3038
16523TIP3    H270985   1.502   4.440   5.013 -0.8368  1.3194  0.2377
16524TIP3   OH270986   4.536   2.794  11.830  0.5791 -0.4976  0.1349
16524TIP3    H170987   4.479   2.743  11.886  0.3919 -0.5240 -0.0775
16524TIP3    H270988   4.489   2.800  11.746  1.0789 -0.8950 -0.1833
16525TIP3   OH270989   4.556   1.176  10.424 -0.0452  0.3039  0.1303
16525TIP3    H170990   4.519   1.121  10.356 -2.3127  2.8976 -0.9500
16525TIP3    H270991   4.595   1.250  10.377  1.6737  0.3704  1.5450
16526TIP3   OH270992   5.673   5.014  12.932  0.1085 -0.6882  0.7776
16526TIP3    H170993   5.635   4.927  12.923  0.1784 -0.6438 -0.0556
16526TIP3    H270994   5.768   5.000  12.928  0.1994 -0.2661 -3.6686
16527TIP3   OH270995   1.759   5.575  15.455  0.0239 -0.1071  0.7360
16527TIP3    H170996   1.805   5.638  15.400  0.6553 -0.6577  0.6150
16527TIP3    H270997   1.779   5.602  15.545 -2.0547  1.5677  0.7770
16528TIP3   OH270998   3.728   5.789  14.370 -0.2016  0.0885  0.3720
16528TIP3    H170999   3.795   5.768  14.434  0.1310  0.3901  0.1251
16528TIP3    H271000   3.733   5.884  14.361 -0.4871  0.0842  0.1588
16529TIP3   OH271001   5.476   0.029  13.397 -0.0754 -0.0089 -0.1404
16529TIP3    H171002   5.442   0.109  13.356 -0.2829 -0.7495 -1.4718
16529TIP3    H271003   5.398  -0.019  13.424  0.0563  1.1075  2.5416
16530TIP3   OH271004   4.720   6.276  14.951  0.4169 -0.1412 -0.8471
16530TIP3    H171005   4.777   6.326  14.894  0.4594 -1.5513 -2.1182
16530TIP3    H271006   4.664   6.225  14.891 -1.5475  0.4931  0.3561
16531TIP3   OH271007   3.857   1.366   6.360  0.0759 -0.8556 -0.3723
16531TIP3    H171008   3.857   1.445   6.306 -0.7293 -0.1570  0.5985
16531TIP3    H271009   3.847   1.398   6.449 -0.6846 -2.0709  0.0115
16532TIP3   OH271010   6.105   3.780  11.860  0.1700 -0.4060 -0.0436
16532TIP3    H171011   6.055   3.839  11.803  0.2863  0.3584  0.6265
16532TIP3    H271012   6.114   3.700  11.809  0.3154  0.2728 -1.1253
16533TIP3   OH271013   4.523   0.917   3.584 -0.5483  0.3140  0.1707
16533TIP3    H171014   4.452   0.975   3.612 -0.4420  1.0210 -0.9602
16533TIP3    H271015   4.520   0.919   3.489  0.2398 -0.5946  0.1106
16534TIP3   OH271016   2.326   0.009  17.077 -0.8575  0.2099  0.5661
16534TIP3    H171017   2.365  -0.068  17.119 -0.6570 -0.1304 -0.2122
16534TIP3    H271018   2.311   0.071  17.148  1.8609  0.6893  0.7965
16535TIP3   OH271019   3.229   2.935   4.484  0.2511 -0.0023  0.0636
16535TIP3    H171020   3.321   2.957   4.474  0.4105  0.2704  1.7333
16535TIP3    H271021   3.226   2.840   4.475  0.9859 -0.2047  1.5315
16536TIP3   OH271022   4.829   5.660   1.634  0.7501 -0.2822  0.1133
16536TIP3    H171023   4.795   5.616   1.712  1.0149 -0.4074  0.1559
16536TIP3    H271024   4.883   5.731   1.668 -1.7851  1.7920  0.1008
16537TIP3   OH271025   0.451   5.149   4.704 -0.7037 -0.4808  0.0401
16537TIP3    H171026   0.491   5.183   4.784  0.0484 -1.6046  0.1678
16537TIP3    H271027   0.463   5.218   4.639  2.5898 -1.1916 -0.2658
16538TIP3   OH271028   3.918   0.114  15.575  0.0298 -0.0824 -0.0188
16538TIP3    H171029   4.008   0.136  15.600  0.0995 -0.7123  0.2882
16538TIP3    H271030   3.925   0.034  15.524 -0.1620  0.9759 -1.7772
16539TIP3   OH271031   5.812   6.105  12.875  0.6801  0.1693 -0.3384
16539TIP3    H171032   5.859   6.179  12.913  1.0133 -0.8514  1.3867
16539TIP3    H271033   5.878   6.059  12.823  1.0606 -0.0857  0.3515
16540TIP3   OH271034   3.158   5.362  10.795 -0.0846 -0.3296  0.2071
16540TIP3    H171035   3.209   5.419  10.853 -1.5341 -0.4194  1.6594
16540TIP3    H271036   3.187   5.385  10.707  1.1262  0.8910  0.8826
16541TIP3   OH271037   1.925   3.156   2.255 -0.2862 -0.6678 -0.3459
16541TIP3    H171038   1.998   3.160   2.316 -1.1206  2.4666  0.6435
16541TIP3    H271039   1.868   3.088   2.289  0.9292 -1.3572  0.3485
16542TIP3   OH271040   0.174   2.101   4.415 -0.0038  0.1799  0.6091
16542TIP3    H171041   0.115   2.175   4.401  1.0289  0.9060 -0.0373
16542TIP3    H271042   0.252   2.140   4.456  0.8841 -0.3935 -0.4766
16543TIP3   OH271043   6.057   4.890   3.867 -0.3095  0.4962 -0.1173
16543TIP3    H171044   6.043   4.825   3.936 -2.2504  0.6795 -0.2876
16543TIP3    H271045   6.076   4.838   3.788  0.4602  0.2411  0.2266
16544TIP3   OH271046   0.395   2.692  14.876 -0.1088 -0.1862  0.0437
16544TIP3    H171047   0.326   2.673  14.939 -1.7458  2.9637 -0.5887
16544TIP3    H271048   0.469   2.720  14.928 -0.6550  0.1494  0.6495
16545TIP3   OH271049   2.947   3.979   0.473  0.2905 -0.4571 -0.3600
16545TIP3    H171050   2.892   3.910   0.437  0.8474  0.2497 -2.7925
16545TIP3    H271051   3.000   3.936   0.540 -0.5672 -1.9943 -0.6385
16546TIP3   OH271052   0.859   5.792  12.037  0.0555 -0.1521 -0.1253
16546TIP3    H171053   0.816   5.714  12.074  1.1556 -0.6568  0.1230
16546TIP3    H271054   0.951   5.767  12.028  0.1472  0.5941 -1.5178
16547TIP3   OH271055   1.930   0.578   2.631  0.1968  0.1472  0.2466
16547TIP3    H171056   2.010   0.529   2.652 -0.4888 -1.1422 -0.0651
16547TIP3    H271057   1.962   0.664   2.605  1.4603 -0.1974  0.5422
16548TIP3   OH271058   1.135   2.057   0.678 -0.2434 -0.6321 -0.4717
16548TIP3    H171059   1.137   2.022   0.767  0.8621 -0.6129 -0.4755
16548TIP3    H271060   1.054   2.108   0.674  0.0850  0.0269  0.7881
16549TIP3   OH271061   2.178   0.387   2.079  0.0466 -0.2496 -0.0129
16549TIP3    H171062   2.084   0.390   2.060  0.2394 -1.3434 -1.2611
16549TIP3    H271063   2.184   0.336   2.160 -0.5167  1.1894  0.9826
16550TIP3   OH271064   1.035   3.502  12.467 -0.3427  0.1218  0.2862
16550TIP3    H171065   1.005   3.462  12.549  1.0489 -2.2605 -0.2578
16550TIP3    H271066   1.085   3.579  12.494 -1.3765  0.3858  1.5436
16551TIP3   OH271067   2.783   0.751  12.277 -0.1740 -0.2011  0.6847
16551TIP3    H171068   2.710   0.786  12.330 -0.7863 -0.5714  0.0988
16551TIP3    H271069   2.816   0.827  12.229 -0.5488 -0.1337  0.5283
16552TIP3   OH271070   4.419   6.276   3.806 -0.0531 -0.1374  0.0810
16552TIP3    H171071   4.401   6.324   3.725  0.5217 -1.3073 -0.7790
16552TIP3    H271072   4.404   6.184   3.783  0.5039 -0.5227  1.1927
16553TIP3   OH271073   5.879   1.086  13.166 -0.4380  0.2358 -0.7934
16553TIP3    H171074   5.833   1.089  13.082 -0.3141 -0.9404 -0.9197
16553TIP3    H271075   5.962   1.129  13.149  0.3595 -1.5856 -1.8049
16554TIP3   OH271076   1.862   4.358   2.489  0.1568  0.8368 -0.1342
16554TIP3    H171077   1.795   4.420   2.460 -0.2461  0.4481 -0.0485
16554TIP3    H271078   1.867   4.371   2.584  0.2871  0.9466 -0.1556
16555TIP3   OH271079   6.562   0.244  16.184 -0.2738 -0.4738  0.0586
16555TIP3    H171080   6.547   0.231  16.090 -1.9000  1.6108 -0.0281
16555TIP3    H271081   6.596   0.160  16.214  1.2205 -0.9279 -2.5579
16556TIP3   OH271082   5.875   6.737   5.552 -0.5641  0.3132 -0.1580
16556TIP3    H171083   5.837   6.774   5.472  1.7170  1.4963 -0.7729
16556TIP3    H271084   5.840   6.791   5.623 -0.2690  1.1976 -0.6779
16557TIP3   OH271085   6.613   0.092   1.668  0.1631 -0.2262  0.2217
16557TIP3    H171086   6.558   0.160   1.630  1.0065  0.8669  0.8768
16557TIP3    H271087   6.697   0.102   1.623  0.0871 -1.3162 -0.1765
16558TIP3   OH271088   3.576   6.636  10.670 -0.1928 -0.2119  0.0528
16558TIP3    H171089   3.646   6.573  10.652  0.9443  0.8050  0.8047
16558TIP3    H271090   3.589   6.706  10.607 -0.0586  0.3487  0.6960
16559TIP3   OH271091   4.122   5.833  15.837 -0.1727  0.3505  0.2022
16559TIP3    H171092   4.108   5.909  15.781 -1.2709  0.2493  0.3240
16559TIP3    H271093   4.038   5.787  15.837  0.5119 -0.9446  0.0075
16560TIP3   OH271094   0.714   6.352  13.115 -0.1228 -0.4799  0.0692
16560TIP3    H171095   0.715   6.341  13.211  0.0869  2.4152  0.4785
16560TIP3    H271096   0.800   6.390  13.095 -0.0885 -1.2464 -1.3229
16561TIP3   OH271097   4.760   2.169  11.924 -0.1120 -0.4969  0.1043
16561TIP3    H171098   4.839   2.130  11.961 -0.0812 -1.1594 -0.6400
16561TIP3    H271099   4.694   2.158  11.993  0.6701  0.9670  1.1329
16562TIP3   OH271100   1.926   1.140   4.323 -0.4266 -0.1263 -0.0438
16562TIP3    H171101   1.999   1.079   4.313 -0.4956  0.0760 -2.2306
16562TIP3    H271102   1.954   1.199   4.394 -0.1388 -2.2921  1.7447
16563TIP3   OH271103   4.313   6.672  11.016 -0.6647  0.3880 -0.1017
16563TIP3    H171104   4.380   6.638  11.075  0.3836  1.1727 -0.7974
16563TIP3    H271105   4.328   6.626  10.933 -2.7914 -1.4811  0.4738
16564TIP3   OH271106   4.003   1.074  13.970  0.3880  0.1843  0.8241
16564TIP3    H171107   4.041   1.126  13.900 -2.5506  0.1606 -0.9945
16564TIP3    H271108   4.020   1.124  14.050  1.7763  1.4486 -0.2039
16565TIP3   OH271109   5.294   5.836  16.929  0.1513  0.5582 -0.0107
16565TIP3    H171110   5.373   5.878  16.894  1.4675 -0.2262  1.8434
16565TIP3    H271111   5.280   5.877  17.013 -1.4297  0.6383 -0.2898
16566TIP3   OH271112   6.080   3.560  16.804 -0.5443  0.1925  0.3053
16566TIP3    H171113   6.078   3.655  16.818 -0.9063 -0.0017  1.7429
16566TIP3    H271114   6.158   3.545  16.751  0.1859  1.1798  1.0642
16567TIP3   OH271115   4.807   1.944   3.316  0.0433  0.2290 -0.3702
16567TIP3    H171116   4.724   1.988   3.331  0.6934  1.1287  0.7029
16567TIP3    H271117   4.785   1.851   3.313 -0.5978  0.1349  3.4201
16568TIP3   OH271118   4.856   0.086  12.774  0.2314 -0.0225  0.2011
16568TIP3    H171119   4.812   0.071  12.690  0.6453  0.1457 -0.0476
16568TIP3    H271120   4.791   0.060  12.840 -0.2464  0.2452 -0.1586
16569TIP3   OH271121   1.298   1.968  13.626 -0.3903 -0.3708  0.5513
16569TIP3    H171122   1.372   1.912  13.647 -0.5237 -0.9691 -0.5119
16569TIP3    H271123   1.325   2.014  13.547  0.1447  1.9033  1.9581
16570TIP3   OH271124   2.619   5.481  13.556 -0.0863  0.7013 -0.0234
16570TIP3    H171125   2.617   5.438  13.470 -0.7468  0.1811  0.2367
16570TIP3    H271126   2.680   5.428  13.607 -0.4464  0.4122  0.1166
16571TIP3   OH271127   2.410   4.483   4.189 -0.0351  0.8980  0.0944
16571TIP3    H171128   2.338   4.420   4.187 -0.7790  1.7079  0.2362
16571TIP3    H271129   2.422   4.503   4.282 -0.2016  1.3856  0.0155
16572TIP3   OH271130   1.080   0.520   0.174  1.0413 -0.1685 -0.0189
16572TIP3    H171131   1.050   0.597   0.126 -0.4950 -0.3472  0.5959
16572TIP3    H271132   1.056   0.537   0.265  3.6929  0.0653  0.7338
16573TIP3   OH271133   1.663   6.464  15.390  0.2773  0.1214  0.4056
16573TIP3    H171134   1.728   6.478  15.321 -0.7523  4.5808 -0.0246
16573TIP3    H271135   1.579   6.459  15.343 -0.0898 -1.2028  1.1599
16574TIP3   OH271136   2.287   3.072  12.435 -0.1378  0.4567  0.0010
16574TIP3    H171137   2.223   3.086  12.365  0.9123 -2.4554 -1.6944
16574TIP3    H271138   2.372   3.074  12.391  0.8461  1.9032  1.8214
16575TIP3   OH271139   0.464   1.717  13.485  0.3180 -0.6077  0.1713
16575TIP3    H171140   0.557   1.707  13.466  0.8411  0.7411  1.8283
16575TIP3    H271141   0.461   1.762  13.569 -1.8040  1.4682 -0.8872
16576TIP3   OH271142   2.285   2.847   2.566 -0.0073  0.1208 -0.0706
16576TIP3    H171143   2.321   2.921   2.615 -1.0660 -0.0588  1.0321
16576TIP3    H271144   2.294   2.773   2.625 -0.8161 -0.2137 -0.3521
16577TIP3   OH271145   2.364   2.231   2.804 -0.4979 -0.0861 -0.3512
16577TIP3    H171146   2.370   2.275   2.889  0.8373  0.5251 -0.7463
16577TIP3    H271147   2.414   2.150   2.815  0.7883  0.5995 -0.9020
16578TIP3   OH271148   2.246   2.471  14.557  0.3742 -0.0313  0.1031
16578TIP3    H171149   2.186   2.494  14.486  1.7449 -1.1050 -1.4926
16578TIP3    H271150   2.189   2.436  14.626 -0.9174 -0.1679 -0.9893
16579TIP3   OH271151   2.214   3.960  13.373 -0.4023  0.7299  0.3540
16579TIP3    H171152   2.239   4.051  13.358 -1.1364  0.7746 -0.7367
16579TIP3    H271153   2.121   3.956  13.351 -0.0518 -0.5744 -1.1393
16580TIP3   OH271154   3.197   3.687  15.971 -0.1938 -0.0741  0.0166
16580TIP3    H171155   3.123   3.730  15.928 -0.8081 -0.0046  1.0999
16580TIP3    H271156   3.217   3.611  15.916 -1.7466 -0.6760  0.2583
16581TIP3   OH271157   1.863   6.270   1.558 -0.5594  0.3253 -0.0044
16581TIP3    H171158   1.853   6.181   1.523 -0.3066  0.4517 -0.3995
16581TIP3    H271159   1.957   6.288   1.551 -0.5694  0.5185  0.3377
16582TIP3   OH271160   4.191   2.599  12.481  0.3287  0.2650  0.0140
16582TIP3    H171161   4.131   2.657  12.527 -0.3282 -0.3466 -0.0376
16582TIP3    H271162   4.196   2.521  12.537  0.8406  0.1911 -0.1322
16583TIP3   OH271163   6.137   5.896   1.657 -0.7820  0.5194  0.0641
16583TIP3    H171164   6.145   5.888   1.561  0.3948  0.2928  0.1663
16583TIP3    H271165   6.215   5.854   1.691 -1.2872  0.4252  1.1514
16584TIP3   OH271166   2.343   2.879  14.252  0.1568 -0.7664 -0.1544
16584TIP3    H171167   2.294   2.958  14.229  0.6571 -0.4201 -0.0363
16584TIP3    H271168   2.314   2.859  14.341  0.8869 -0.0390  0.2637
16585TIP3   OH271169   3.982   1.229  10.788 -0.0530  0.1184  0.1705
16585TIP3    H171170   3.986   1.252  10.695  0.4398  2.2360  0.6643
16585TIP3    H271171   3.952   1.309  10.831 -1.2664 -1.1337  1.7534
16586TIP3   OH271172   0.581   3.666  10.933  0.7595  0.0117 -0.0496
16586TIP3    H171173   0.536   3.594  10.976  1.6946 -1.5642 -1.5717
16586TIP3    H271174   0.615   3.720  11.004 -0.7152 -0.5397  1.1100
16587TIP3   OH271175   0.099   3.297  12.730  0.2531  0.3076 -0.0860
16587TIP3    H171176   0.079   3.374  12.784  0.3854  0.6049 -0.4608
16587TIP3    H271177   0.027   3.237  12.747  0.0307  0.6047  0.0344
16588TIP3   OH271178   2.958   4.178   1.720  0.3126  0.2634 -0.6096
16588TIP3    H171179   2.938   4.150   1.631  0.0862 -2.1996  0.1353
16588TIP3    H271180   2.931   4.105   1.775 -0.6957  2.1692  1.6363
16589TIP3   OH271181   3.365   0.437  14.943 -0.2614  0.5733  0.0072
16589TIP3    H171182   3.431   0.487  14.895 -0.7236  1.1383 -0.0690
16589TIP3    H271183   3.284   0.486  14.929 -1.1218 -1.2029 -1.6053
16590TIP3   OH271184   4.772   1.056   4.022  0.1685 -0.0233  0.3704
16590TIP3    H171185   4.841   0.997   4.052  0.1525 -0.3900 -0.2969
16590TIP3    H271186   4.693   1.002   4.021 -0.4111  0.6984  2.2983
16591TIP3   OH271187   5.776   5.544  11.795  0.3623 -0.2779 -0.2951
16591TIP3    H171188   5.798   5.482  11.865 -0.9271  0.1655  0.5399
16591TIP3    H271189   5.850   5.540  11.736  2.5778  0.9780  2.2104
16592TIP3   OH271190   6.701   0.636  16.471 -0.3469  0.1463  0.0909
16592TIP3    H171191   6.756   0.559  16.455  0.4725  0.6047  0.6526
16592TIP3    H271192   6.659   0.618  16.555 -1.5764 -0.4823 -0.6218
16593TIP3   OH271193   3.061   2.523  14.413 -0.2337 -0.2303  0.1422
16593TIP3    H171194   3.095   2.540  14.501  2.6486  2.4787 -1.2961
16593TIP3    H271195   3.099   2.439  14.387 -1.1545 -1.0775  1.4268
16594TIP3   OH271196   6.683   2.428  12.098  0.3037 -0.1146 -0.3969
16594TIP3    H171197   6.730   2.457  12.177  2.9700  0.9132 -2.2213
16594TIP3    H271198   6.670   2.334  12.111 -0.1118  0.1768  1.6074
16595TIP3   OH271199   3.852   1.398   2.217  0.2962 -0.0840  0.0484
16595TIP3    H171200   3.914   1.444   2.160  1.2386  1.4265  2.1378
16595TIP3    H271201   3.874   1.429   2.305 -1.2074 -2.1574  1.2336
16596TIP3   OH271202   5.096   3.933   0.135  0.7633  0.2932 -0.7394
16596TIP3    H171203   5.009   3.927   0.096  0.0642 -2.2666  0.9492
16596TIP3    H271204   5.157   3.916   0.064 -0.2370  0.0726 -1.5583
16597TIP3   OH271205   6.516   1.350  11.972  0.9129 -0.1003  0.5581
16597TIP3    H171206   6.457   1.424  11.955  1.0336  0.1649  1.2683
16597TIP3    H271207   6.469   1.274  11.937  0.0943  0.0937  1.2044
16598TIP3   OH271208   5.565   4.883  13.883  0.3313 -0.8028 -0.3171
16598TIP3    H171209   5.478   4.920  13.868  0.4244 -0.2486  0.4559
16598TIP3    H271210   5.581   4.897  13.976  2.3942  1.6000 -0.9385
16599TIP3   OH271211   5.889   3.958   1.962  0.3175 -0.2911 -0.2741
16599TIP3    H171212   5.825   3.886   1.961 -0.4020  0.3282  0.5576
16599TIP3    H271213   5.963   3.924   1.911 -0.6572 -1.0278 -1.2644
16600TIP3   OH271214   4.892   0.977   2.437  0.4947  0.1685  0.3041
16600TIP3    H171215   4.891   0.930   2.354  1.3849 -0.0542  0.4114
16600TIP3    H271216   4.944   1.055   2.420 -1.6732  1.5943 -0.1060
16601TIP3   OH271217   3.939   0.446  10.366  0.3307 -0.4510  0.1478
16601TIP3    H171218   3.855   0.447  10.321 -0.2860  1.0497  1.2606
16601TIP3    H271219   3.986   0.371  10.328 -1.4921 -1.3304 -0.4665
16602TIP3   OH271220   0.682   3.635  16.532  0.7583 -0.0167  0.8768
16602TIP3    H171221   0.702   3.553  16.487 -0.1798 -0.1210  0.6321
16602TIP3    H271222   0.730   3.629  16.615  2.5226  0.1907 -0.0791
16603TIP3   OH271223   2.561   3.524  16.483  0.1188 -0.7650 -0.2171
16603TIP3    H171224   2.531   3.512  16.393 -0.8096 -0.2216  0.0084
16603TIP3    H271225   2.655   3.508  16.479 -0.0110 -1.3830 -1.1609
16604TIP3   OH271226   5.554   3.881   4.111  0.0081 -0.2250 -0.7640
16604TIP3    H171227   5.579   3.788   4.112 -1.7992 -0.7447  0.2911
16604TIP3    H271228   5.525   3.899   4.200  1.1094  1.6190 -0.7367
16605TIP3   OH271229   0.716   1.874  15.015 -0.3200 -0.3752 -0.1058
16605TIP3    H171230   0.662   1.917  14.949  1.0192  1.9735  0.2166
16605TIP3    H271231   0.803   1.870  14.975  0.0641 -0.8007  0.7512
16606TIP3   OH271232   4.008   0.622  13.970 -0.0259 -0.0393 -0.5947
16606TIP3    H171233   4.097   0.606  14.001  0.0587 -1.4531 -1.4573
16606TIP3    H271234   4.009   0.594  13.878 -1.5280 -0.7416 -0.4261
16607TIP3   OH271235   3.839   0.378   0.899  0.4018 -0.3709 -0.0579
16607TIP3    H171236   3.863   0.286   0.901  1.2169 -0.1520  0.8348
16607TIP3    H271237   3.906   0.422   0.950  0.3248  0.7957 -0.9081
16608TIP3   OH271238   6.087   6.250  14.198  0.7904 -0.1437 -0.6492
16608TIP3    H171239   6.101   6.188  14.270  1.8063  0.5763 -0.1852
16608TIP3    H271240   6.151   6.225  14.132 -0.3478 -0.9943 -1.4715
16609TIP3   OH271241   4.286   4.694   2.450  0.0894  0.4134 -0.8898
16609TIP3    H171242   4.315   4.642   2.375 -1.7521  1.3538 -2.3386
16609TIP3    H271243   4.349   4.766   2.455  0.3955  0.1856 -1.3593
16610TIP3   OH271244   2.855   1.542   6.004 -0.1138 -0.1530 -0.3127
16610TIP3    H171245   2.849   1.581   6.091  0.0875 -1.5039  0.3446
16610TIP3    H271246   2.842   1.448   6.020  2.4098 -0.7687 -1.3603
16611TIP3   OH271247   3.888   6.679  15.510 -0.4871  0.0781 -0.3125
16611TIP3    H171248   3.978   6.656  15.487 -0.4334  1.1178 -1.2235
16611TIP3    H271249   3.843   6.685  15.426 -0.5020  3.1220 -0.1904
16612TIP3   OH271250   5.826   5.855   2.488 -0.2493  0.0257 -0.3026
16612TIP3    H171251   5.794   5.924   2.429  0.2264 -1.0689 -1.9046
16612TIP3    H271252   5.910   5.828   2.451 -1.6052 -3.2486 -1.3804
16613TIP3   OH271253   4.455   0.791  12.759  0.3486 -0.0388  0.8176
16613TIP3    H171254   4.523   0.828  12.815 -0.9754  1.3953  1.5475
16613TIP3    H271255   4.425   0.864  12.706  0.8944 -1.1599 -1.1158
16614TIP3   OH271256   3.975   4.844  15.226  0.4038  0.2849 -0.0049
16614TIP3    H171257   3.904   4.795  15.185 -0.1931  2.2737 -1.4880
16614TIP3    H271258   4.055   4.799  15.197 -0.1660 -1.3315  0.8081
16615TIP3   OH271259   1.705   6.027  14.293 -0.2132 -0.2643  0.0092
16615TIP3    H171260   1.757   5.975  14.354  0.7694 -0.9225 -1.3414
16615TIP3    H271261   1.686   5.968  14.220  1.2967  1.3074 -1.7831
16616TIP3   OH271262   1.474   4.852  14.758  0.0088 -0.4883 -0.0449
16616TIP3    H171263   1.524   4.904  14.821  1.7422  0.4361 -2.0712
16616TIP3    H271264   1.405   4.812  14.810  1.2918  0.2858  2.4191
16617TIP3   OH271265   5.300   2.198   6.295  0.6721  0.3950  0.4470
16617TIP3    H171266   5.377   2.147   6.321  1.9025  1.1215 -1.5603
16617TIP3    H271267   5.227   2.154   6.339  1.9403 -1.6644  0.6598
16618TIP3   OH271268   0.291   4.377   0.512  0.1925  0.5761  0.0173
16618TIP3    H171269   0.352   4.420   0.452  0.6329  0.1802  0.1824
16618TIP3    H271270   0.204   4.400   0.478  0.4362  0.4249 -0.7241
16619TIP3   OH271271   1.872   1.355  13.872  0.4369  0.1735  0.2405
16619TIP3    H171272   1.791   1.319  13.907 -0.4738 -0.3397 -2.2467
16619TIP3    H271273   1.856   1.449  13.864  0.8316  0.3771  1.5420
16620TIP3   OH271274   2.466   3.278   1.012  0.0349 -0.1878  0.3900
16620TIP3    H171275   2.500   3.229   1.087 -0.0758 -0.2537  0.3974
16620TIP3    H271276   2.542   3.326   0.979 -0.2719  1.1535  1.5667
16621TIP3   OH271277   2.835   6.225  12.290 -0.3334 -0.1878  0.4378
16621TIP3    H171278   2.772   6.154  12.293  0.9463 -1.3518  0.6861
16621TIP3    H271279   2.846   6.244  12.197 -0.8581 -0.1491  0.3832
16622TIP3   OH271280   3.900   6.005  14.912  0.3437 -0.3517  0.1502
16622TIP3    H171281   3.907   6.015  14.817  1.6458 -1.9944  0.0295
16622TIP3    H271282   3.941   5.921  14.931 -0.8362 -0.5664  2.0751
16623TIP3   OH271283   3.821   6.591  16.034  0.1798 -0.4049 -0.5392
16623TIP3    H171284   3.831   6.573  15.940 -0.2928  0.3219 -0.7446
16623TIP3    H271285   3.763   6.667  16.037 -0.8434 -1.1937  0.3935
16624TIP3   OH271286   1.661   2.076   3.580 -0.0398 -0.2928 -0.0960
16624TIP3    H171287   1.670   2.101   3.672 -0.4721 -1.2746  0.2241
16624TIP3    H271288   1.593   2.133   3.546 -2.1475 -1.9968  1.0283
16625TIP3   OH271289   2.460   4.767   4.592  0.1441 -0.1028  0.0992
16625TIP3    H171290   2.465   4.674   4.569  0.1483  0.0999 -0.7318
16625TIP3    H271291   2.547   4.801   4.574  0.6054 -0.2496  1.8646
16626TIP3   OH271292   1.061   0.632   5.290 -0.3819 -0.0474 -0.1999
16626TIP3    H171293   0.994   0.566   5.310 -1.2310  1.4773  2.4815
16626TIP3    H271294   1.144   0.587   5.305 -0.8607 -1.0518 -0.4394
16627TIP3   OH271295   0.763   1.454  12.979 -0.0006 -0.0361  0.0657
16627TIP3    H171296   0.714   1.478  12.901 -0.2625 -0.4080  0.1171
16627TIP3    H271297   0.849   1.427  12.946  0.7697  2.1429  0.0793
16628TIP3   OH271298   3.082   3.800  11.218 -0.1947  0.3804  0.1706
16628TIP3    H171299   3.078   3.891  11.248 -2.3283  0.7161 -0.9139
16628TIP3    H271300   3.011   3.756  11.266  1.8858 -1.2239  2.0044
16629TIP3   OH271301   3.473   5.277   1.356 -0.1049  0.9916  0.2108
16629TIP3    H171302   3.567   5.281   1.373  0.0222 -1.0010  0.1817
16629TIP3    H271303   3.440   5.210   1.416 -1.5110  1.6265  0.1940
16630TIP3   OH271304   3.067   5.005   4.811 -0.4222 -0.0886 -0.1190
16630TIP3    H171305   3.134   4.962   4.758  0.5312  1.5602 -0.3318
16630TIP3    H271306   3.106   5.010   4.899 -0.5276  0.3150 -0.0942
16631TIP3   OH271307   1.268   5.125  14.332 -0.3555  0.2684 -0.6334
16631TIP3    H171308   1.247   5.043  14.377 -2.0312  0.8964 -0.2135
16631TIP3    H271309   1.349   5.154  14.374 -1.3473  0.3393  1.3698
16632TIP3   OH271310   0.549   0.826  12.823 -0.5569  0.3807 -0.3546
16632TIP3    H171311   0.480   0.784  12.874 -0.6447  0.4089 -0.4503
16632TIP3    H271312   0.612   0.856  12.889  0.0372 -0.8350 -0.3438
16633TIP3   OH271313   2.178   3.254  15.028 -0.4489  0.2686 -0.1857
16633TIP3    H171314   2.199   3.330  15.083  0.1072  0.3915 -0.5597
16633TIP3    H271315   2.197   3.283  14.939 -0.5608 -0.1990 -0.3639
16634TIP3   OH271316   0.003   4.954  15.511  0.4152 -0.4453 -0.0949
16634TIP3    H171317  -0.060   4.994  15.571  0.2610 -0.4826 -0.2297
16634TIP3    H271318  -0.028   4.865  15.499 -2.7988  0.8863 -4.4189
16635TIP3   OH271319   0.612   3.056  13.165  0.2108  0.3864  0.1555
16635TIP3    H171320   0.706   3.074  13.155 -0.1325  1.2861 -2.0610
16635TIP3    H271321   0.596   2.982  13.107 -0.5600  0.6407  0.0379
16636TIP3   OH271322   6.025   2.162   2.683  0.2066  0.4143  0.2790
16636TIP3    H171323   5.973   2.096   2.637  0.2327  0.1463  0.6282
16636TIP3    H271324   6.112   2.156   2.644  0.3284 -0.0771  0.6233
16637TIP3   OH271325   0.141   5.308   3.744 -0.8777  0.4912 -0.3794
16637TIP3    H171326   0.158   5.214   3.754 -0.0892  0.6687 -0.0015
16637TIP3    H271327   0.074   5.327   3.811 -0.6173  0.3099 -0.0641
16638TIP3   OH271328   6.064   0.501  12.670  0.5814 -0.0107  0.1665
16638TIP3    H171329   5.978   0.543  12.668  0.6748  0.3649  1.9389
16638TIP3    H271330   6.096   0.516  12.760  1.5632 -1.9933  0.2033
16639TIP3   OH271331   1.287   2.370   4.288  0.1744 -0.0700 -0.4411
16639TIP3    H171332   1.226   2.387   4.216 -0.5177 -0.9393 -0.0753
16639TIP3    H271333   1.239   2.394   4.367  0.0980 -1.2371 -0.1143
16640TIP3   OH271334   5.787   4.646  14.383  0.0171 -0.2451  0.3544
16640TIP3    H171335   5.759   4.725  14.337 -0.9151 -0.7157  0.0854
16640TIP3    H271336   5.824   4.590  14.314 -0.2916 -0.4683  0.3684
16641TIP3   OH271337   3.852   3.259   3.145  0.2163 -0.5047  0.1336
16641TIP3    H171338   3.869   3.348   3.175 -0.1029 -0.2428 -0.4603
16641TIP3    H271339   3.861   3.263   3.050  0.3410 -1.1381  0.1152
16642TIP3   OH271340   5.951   2.005  14.790  0.3740  0.4156 -0.1349
16642TIP3    H171341   5.912   2.084  14.829 -0.4295 -0.3680  0.6969
16642TIP3    H271342   5.889   1.979  14.722 -0.1329 -0.3329  0.5973
16643TIP3   OH271343   1.674   3.767   1.744 -0.1109 -0.4933  0.0849
16643TIP3    H171344   1.725   3.687   1.754 -1.4236 -1.1375  2.2719
16643TIP3    H271345   1.692   3.817   1.824 -1.4621  0.0695  0.0677
16644TIP3   OH271346   0.292   2.578  15.095  0.2420 -0.2213 -0.4153
16644TIP3    H171347   0.272   2.488  15.069  0.5267 -1.2419  2.6138
16644TIP3    H271348   0.224   2.601  15.158  0.6080  1.4483 -0.5844
16645TIP3   OH271349   5.927   1.967  15.612  0.1428  0.1798 -0.2967
16645TIP3    H171350   5.961   1.970  15.701 -0.7993 -2.2204  0.2218
16645TIP3    H271351   5.849   1.912  15.618  0.0686 -0.0603 -2.6037
16646TIP3   OH271352   1.304   0.076  11.671  0.1466 -0.0923  0.4431
16646TIP3    H171353   1.375   0.028  11.713  0.6550  0.9087  0.7577
16646TIP3    H271354   1.333   0.167  11.672 -2.0555  0.6909  2.5299
16647TIP3   OH271355   4.604   3.272  15.938 -0.4848  0.2563  0.4501
16647TIP3    H171356   4.574   3.234  16.020 -0.9010 -1.8879 -0.6187
16647TIP3    H271357   4.571   3.212  15.870  2.0582  0.4622 -1.1163
16648TIP3   OH271358   2.476   6.052  14.553  0.4233  0.1030 -0.7069
16648TIP3    H171359   2.417   6.095  14.614  0.7858 -2.1734  1.3915
16648TIP3    H271360   2.522   6.124  14.510 -1.1319  1.8391  0.3746
16649TIP3   OH271361   3.897   2.724  12.242  0.4651  0.5516  0.5994
16649TIP3    H171362   3.937   2.758  12.322  0.6177 -0.2966  0.8931
16649TIP3    H271363   3.858   2.801  12.200 -0.0127  0.9401  1.7128
16650TIP3   OH271364   5.029   4.293   3.490  0.2853 -0.0427  0.2309
16650TIP3    H171365   4.971   4.271   3.417 -0.9155  0.3176  1.0398
16650TIP3    H271366   5.110   4.322   3.449 -1.2280  2.7075 -1.0835
16651TIP3   OH271367   2.869   5.215   0.575  0.3423  0.6007 -0.0330
16651TIP3    H171368   2.927   5.149   0.613 -0.9351 -0.3152  0.3773
16651TIP3    H271369   2.923   5.294   0.569  1.1359  0.2726  1.9777
16652TIP3   OH271370   4.935   4.055  15.372  0.3413 -0.6817  0.1606
16652TIP3    H171371   4.853   4.053  15.422  0.4803 -0.5817  0.3929
16652TIP3    H271372   4.925   3.985  15.307 -0.4516  0.1405 -0.6479
16653TIP3   OH271373   2.463   6.482   4.023  0.2350 -0.1545 -0.1802
16653TIP3    H171374   2.474   6.576   4.007  0.6123 -0.3752 -1.3016
16653TIP3    H271375   2.488   6.441   3.941  0.7540 -1.2908  0.5234
16654TIP3   OH271376   4.717   0.071  15.685 -0.5161  0.0838  0.0171
16654TIP3    H171377   4.630   0.032  15.695 -0.0817 -0.6341  1.2825
16654TIP3    H271378   4.777  -0.004  15.691  0.3208  0.8369  2.1880
16655TIP3   OH271379   1.367   5.064   3.034  0.0189 -0.4022  0.0671
16655TIP3    H171380   1.404   5.119   3.104 -2.2798  3.0541 -1.1960
16655TIP3    H271381   1.302   5.009   3.079 -1.6395  1.9643  0.7525
16656TIP3   OH271382   3.279   0.903  12.036  0.1749  0.2815  0.1578
16656TIP3    H171383   3.286   0.981  11.982  2.2446 -0.6317 -1.0256
16656TIP3    H271384   3.189   0.873  12.023  0.2125  0.8380 -1.7602
16657TIP3   OH271385   3.126   4.094   4.163 -0.1376  0.0901 -0.7524
16657TIP3    H171386   3.043   4.047   4.172  0.6648 -1.2106  0.1533
16657TIP3    H271387   3.104   4.185   4.178 -1.5572 -0.1026 -1.4665
16658TIP3   OH271388   6.747   2.764   2.779 -0.1546  0.4213 -0.0977
16658TIP3    H171389   6.682   2.758   2.710 -0.3281  0.4224  0.0651
16658TIP3    H271390   6.816   2.819   2.742  0.2383 -0.4286 -0.6432
16659TIP3   OH271391   3.251   1.744  10.883 -0.0604 -0.4882  0.0468
16659TIP3    H171392   3.292   1.734  10.797  1.1921 -1.5834  0.7351
16659TIP3    H271393   3.278   1.831  10.913 -0.9086  0.0984 -0.8546
16660TIP3   OH271394   4.694   4.995   0.482  0.1852 -0.2931 -0.0533
16660TIP3    H171395   4.773   5.030   0.441  0.8462 -0.8861  0.6932
16660TIP3    H271396   4.682   5.048   0.561 -0.4765  0.1382 -0.4276
16661TIP3   OH271397   1.915   1.873   0.583  0.6854 -0.1677  0.3242
16661TIP3    H171398   2.000   1.917   0.575  0.1321  0.7567 -0.8160
16661TIP3    H271399   1.913   1.813   0.508 -0.4580  1.2819 -0.8757
16662TIP3   OH271400   0.102   1.306  17.041  0.0094 -0.4143  0.1809
16662TIP3    H171401   0.055   1.298  17.123 -0.3271 -0.0568  0.0276
16662TIP3    H271402   0.118   1.400  17.031 -1.7067 -0.1979 -1.1081
16663TIP3   OH271403   4.823   4.548   3.058 -0.3450 -0.2171  0.3303
16663TIP3    H171404   4.898   4.603   3.036 -1.3391  1.5158  1.0922
16663TIP3    H271405   4.780   4.531   2.974  0.9445 -1.3556 -0.1316
16664TIP3   OH271406   6.417   3.962   0.851 -0.5184 -0.2326 -0.7563
16664TIP3    H171407   6.377   4.048   0.859  1.4550  0.5839  1.6500
16664TIP3    H271408   6.465   3.965   0.768 -0.1672  1.1606 -0.5227
16665TIP3   OH271409   2.474   0.324  13.758 -0.1242  0.1007  0.0631
16665TIP3    H171410   2.464   0.230  13.748 -0.4567  0.2994 -1.6840
16665TIP3    H271411   2.425   0.362  13.686  0.1677  1.6159  0.6148
16666TIP3   OH271412   5.563   5.272  17.086  0.2776 -0.4085  0.0077
16666TIP3    H171413   5.570   5.232  17.173 -0.4186 -2.0918 -0.6760
16666TIP3    H271414   5.593   5.205  17.025 -0.2499  0.3627 -1.1502
16667TIP3   OH271415   3.892   2.216   5.557  0.4679  0.0443  0.2400
16667TIP3    H171416   3.812   2.268   5.551 -0.0091 -0.7396 -0.3936
16667TIP3    H271417   3.940   2.253   5.631 -0.5673  0.4049  0.7390
16668TIP3   OH271418   4.729   0.289  16.475 -0.3396  0.1320 -0.0897
16668TIP3    H171419   4.815   0.299  16.516 -0.5097  1.5208 -0.0290
16668TIP3    H271420   4.747   0.281  16.381 -0.1440  0.4522 -0.0800
16669TIP3   OH271421   6.634   0.901   4.856  0.6043 -0.3152  0.3641
16669TIP3    H171422   6.618   0.995   4.853  2.8101  0.1026  0.3370
16669TIP3    H271423   6.622   0.871   4.765 -0.2225 -0.1099  0.3974
16670TIP3   OH271424   2.061   0.530  12.033  0.4440  0.3151  0.3979
16670TIP3    H171425   2.056   0.454  12.091  0.5342 -0.2063 -0.2524
16670TIP3    H271426   2.155   0.540  12.015  0.3560 -0.0236 -0.2802
16671TIP3   OH271427   1.372   1.621  15.716 -0.2658 -0.6474 -0.4556
16671TIP3    H171428   1.464   1.599  15.730 -0.0746  0.8704  1.0502
16671TIP3    H271429   1.368   1.650  15.625  1.1194  0.8317 -0.0930
16672TIP3   OH271430   4.706   0.369   5.500 -0.0511 -0.2462 -0.2206
16672TIP3    H171431   4.676   0.440   5.557 -0.4371 -1.4507  1.1154
16672TIP3    H271432   4.699   0.406   5.412  1.9895  2.2003  0.5183
16673TIP3   OH271433   6.195   3.100   3.046  0.1637  0.3418 -0.6240
16673TIP3    H171434   6.172   3.178   3.098  1.6671  0.3354  0.0895
16673TIP3    H271435   6.130   3.099   2.975 -0.5806  1.5965  0.0026
16674TIP3   OH271436   1.919   6.243  11.733  0.2904 -0.5502  0.1781
16674TIP3    H171437   2.001   6.290  11.717 -0.3399  1.0270  1.3670
16674TIP3    H271438   1.943   6.174  11.795  0.6936  0.0582  0.7127
16675TIP3   OH271439   4.263   3.271  11.571 -0.8200 -0.3330  0.3140
16675TIP3    H171440   4.201   3.200  11.551 -0.8483 -0.1568 -0.2590
16675TIP3    H271441   4.349   3.233  11.556 -0.7337 -0.8022  1.8257
16676TIP3   OH271442   0.645   5.013   2.109  0.5692  0.3219 -0.1838
16676TIP3    H171443   0.589   4.982   2.179 -0.7099  1.3978 -0.6830
16676TIP3    H271444   0.636   4.947   2.040  0.7279 -0.0276  0.1285
16677TIP3   OH271445   1.462   5.848  14.816 -0.1593  0.5940  0.7637
16677TIP3    H171446   1.409   5.804  14.883  0.7212 -0.0419  1.0666
16677TIP3    H271447   1.466   5.785  14.744 -0.7720  1.1178  0.2574
16678TIP3   OH271448   6.631   5.228   3.416 -0.0860  0.2617 -0.1299
16678TIP3    H171449   6.629   5.188   3.329  1.3436  1.8553 -0.9620
16678TIP3    H271450   6.626   5.322   3.399  3.2059  0.8300  1.2332
16679TIP3   OH271451   0.220   0.060  13.424  0.2000  0.2220 -0.8411
16679TIP3    H171452   0.210   0.141  13.374 -2.8570  0.5701  0.1410
16679TIP3    H271453   0.178  -0.007  13.370 -2.1888  0.4063  0.6307
16680TIP3   OH271454   1.655   1.674   1.337 -0.1513  0.5342  0.1511
16680TIP3    H171455   1.718   1.688   1.266  1.3256  0.1131  1.3260
16680TIP3    H271456   1.669   1.584   1.364 -1.1475  0.4931  0.5633
16681TIP3   OH271457   0.785   4.392   0.903 -0.1815  0.3802 -0.0848
16681TIP3    H171458   0.715   4.330   0.924 -0.3557  0.3335 -0.8072
16681TIP3    H271459   0.847   4.382   0.976 -0.3424 -0.4399 -0.0466
16682TIP3   OH271460   1.648   4.429   4.004  0.1001 -0.4323  0.5107
16682TIP3    H171461   1.590   4.504   3.995  0.0920 -0.2760  1.7558
16682TIP3    H271462   1.650   4.389   3.917 -1.6293 -0.2706  0.3767
16683TIP3   OH271463   6.576   5.432  15.076 -0.6853  0.4199 -0.3363
16683TIP3    H171464   6.607   5.523  15.080 -2.2507  0.9366  2.1028
16683TIP3    H271465   6.588   5.398  15.165 -3.0136 -0.7125 -0.3727
16684TIP3   OH271466   5.080   2.264  16.862  0.0980  0.1182 -0.1654
16684TIP3    H171467   5.018   2.199  16.829 -0.0321 -0.2224  0.7156
16684TIP3    H271468   5.159   2.214  16.883 -0.4422 -0.0289  1.7625
16685TIP3   OH271469   0.326   0.275   3.982  0.3104  0.0024 -0.0883
16685TIP3    H171470   0.381   0.331   3.927  0.1389  0.7011  0.4417
16685TIP3    H271471   0.236   0.298   3.959  0.2370  0.1148  0.2998
16686TIP3   OH271472   0.054   2.969   1.946 -0.2390  0.1869 -0.2243
16686TIP3    H171473  -0.006   2.992   1.876  0.0177  2.0980  0.1436
16686TIP3    H271474   0.115   3.042   1.952  0.6089 -0.5656  1.0668
16687TIP3   OH271475   5.144   4.015  14.552  0.4432  0.4149 -0.2361
16687TIP3    H171476   5.095   4.044  14.629 -0.0544  2.1125 -1.1607
16687TIP3    H271477   5.110   3.927  14.534 -1.5959  1.1737 -0.2814
16688TIP3   OH271478   1.127   6.177   0.938  0.1419 -0.2474 -0.4499
16688TIP3    H171479   1.036   6.181   0.967  0.1929  4.6043 -0.1311
16688TIP3    H271480   1.121   6.155   0.845 -1.6968  2.2300 -1.0179
16689TIP3   OH271481   2.463   4.695  15.564 -0.1009 -0.0998  0.6714
16689TIP3    H171482   2.474   4.766  15.627  1.4505 -0.0507  0.3651
16689TIP3    H271483   2.456   4.616  15.619 -0.7580  0.1475  0.9627
16690TIP3   OH271484   0.674   6.353  16.399 -1.0808  0.3598 -0.1751
16690TIP3    H171485   0.662   6.276  16.455 -1.2805 -0.7983 -1.7350
16690TIP3    H271486   0.747   6.400  16.438  0.0297 -1.4131  0.0174
16691TIP3   OH271487   4.982   5.706  14.983  0.4513 -0.2858  0.2920
16691TIP3    H171488   4.924   5.719  14.909  1.0532  0.7145 -0.0336
16691TIP3    H271489   4.940   5.753  15.056  0.0190 -0.9947  0.4987
16692TIP3   OH271490   6.162   1.559  16.242  0.3885  0.3995  0.0180
16692TIP3    H171491   6.198   1.647  16.237 -2.8595  1.9811  1.1728
16692TIP3    H271492   6.207   1.518  16.316  2.5665  0.6862 -1.0826
16693TIP3   OH271493   0.568   3.953  13.456 -0.0423 -0.0926 -0.0795
16693TIP3    H171494   0.619   4.033  13.445 -1.1310  0.8068  1.1063
16693TIP3    H271495   0.529   3.937  13.370 -0.6995  1.3075 -0.0757
16694TIP3   OH271496   0.250   2.586   1.749 -0.1762  0.0791 -0.0480
16694TIP3    H171497   0.255   2.492   1.769  2.5619  0.0331 -0.5567
16694TIP3    H271498   0.208   2.624   1.825 -1.6800 -1.5820  0.0167
16695TIP3   OH271499   6.702   6.778   0.265 -0.9239  0.1192  0.1113
16695TIP3    H171500   6.677   6.831   0.190 -0.4597 -0.2170 -0.2888
16695TIP3    H271501   6.762   6.713   0.229 -0.3893  0.1999  0.8472
16696TIP3   OH271502   2.017   0.468   4.973  0.3072 -0.6134  0.1679
16696TIP3    H171503   2.068   0.389   4.988  0.2678 -0.8173 -0.7020
16696TIP3    H271504   1.934   0.437   4.935  0.6051 -0.1264 -0.9248
16697TIP3   OH271505   2.379   2.122   4.675  0.0232  0.0442 -0.2970
16697TIP3    H171506   2.433   2.151   4.601 -1.2574  1.8479 -0.5800
16697TIP3    H271507   2.313   2.066   4.635  0.0719  0.0145 -0.3360
16698TIP3   OH271508   6.560   4.401  13.016  0.0172  0.3464 -0.6212
16698TIP3    H171509   6.598   4.345  13.083 -0.2733 -1.8978 -2.1909
16698TIP3    H271510   6.518   4.472  13.064 -0.3571 -1.2500  1.5691
16699TIP3   OH271511   3.060   2.342  11.189 -0.0555  0.0479 -0.0244
16699TIP3    H171512   2.992   2.275  11.188 -0.5124  0.5045 -0.7643
16699TIP3    H271513   3.076   2.361  11.096  0.8851  0.1433  0.1504
16700TIP3   OH271514   1.917   4.432  11.939 -0.6592 -0.5481 -0.0910
16700TIP3    H171515   1.956   4.495  12.000 -0.4707 -0.5064 -0.2555
16700TIP3    H271516   1.826   4.462  11.930  0.2061  1.7005 -2.7232
16701TIP3   OH271517   2.485   6.665   3.544 -0.2087  0.0589 -0.3249
16701TIP3    H171518   2.422   6.689   3.612 -0.8637 -1.8612 -0.1950
16701TIP3    H271519   2.475   6.733   3.477 -3.4911 -0.8853 -0.9694
16702TIP3   OH271520   4.502   1.900  15.590  0.2164  0.3159  0.3158
16702TIP3    H171521   4.570   1.884  15.525 -0.2839 -0.8203  0.0460
16702TIP3    H271522   4.452   1.818  15.592 -0.2398  0.6081  1.5715
16703TIP3   OH271523   1.505   1.102   5.052 -0.0956 -0.5760 -0.3544
16703TIP3    H171524   1.510   1.170   5.119 -0.0767  1.3148 -2.1779
16703TIP3    H271525   1.593   1.100   5.013 -0.1123 -1.6360 -0.3725
16704TIP3   OH271526   1.577   4.479  12.486  0.2315 -0.5647 -0.0411
16704TIP3    H171527   1.523   4.460  12.562 -0.2960 -0.4351 -0.3752
16704TIP3    H271528   1.515   4.482  12.413  0.5228  0.6886 -0.2640
16705TIP3   OH271529   6.365   0.361  16.383 -0.2618 -0.2182  0.2849
16705TIP3    H171530   6.281   0.324  16.355 -0.4517  0.0547  0.4856
16705TIP3    H271531   6.428   0.331  16.317 -0.4076 -0.9008  0.4420
16706TIP3   OH271532   2.424   3.332   0.738 -0.2268  0.0525 -0.5828
16706TIP3    H171533   2.519   3.329   0.733 -0.2643  0.1028 -1.7046
16706TIP3    H271534   2.403   3.308   0.828  0.8880  1.2612  0.0145
16707TIP3   OH271535   2.567   0.700   1.537 -0.2330 -0.2926 -0.6680
16707TIP3    H171536   2.642   0.733   1.489  1.1724 -1.0663  0.8838
16707TIP3    H271537   2.573   0.741   1.623 -0.8829 -1.3054 -0.1177
16708TIP3   OH271538   6.379   4.568   1.452 -0.1045 -0.0389 -0.3244
16708TIP3    H171539   6.387   4.493   1.510 -0.3525  0.4719  0.3771
16708TIP3    H271540   6.449   4.557   1.388 -0.7874 -1.4257 -0.8659
16709TIP3   OH271541   5.932   6.539  15.369 -0.0700 -0.5373  0.2129
16709TIP3    H171542   5.977   6.466  15.326 -0.3983 -1.1497  0.8860
16709TIP3    H271543   5.841   6.510  15.377 -0.1794 -0.1039  0.5868
16710TIP3   OH271544   6.557   1.559  16.263  0.0466 -0.2504  0.0943
16710TIP3    H171545   6.566   1.554  16.167 -1.1777 -0.2591 -0.0272
16710TIP3    H271546   6.621   1.495  16.295  1.0716  0.3458 -0.6728
16711TIP3   OH271547   1.925   5.762   4.243 -0.0077  0.1654 -0.7576
16711TIP3    H171548   1.864   5.763   4.169 -0.2137  1.7576 -0.6017
16711TIP3    H271549   1.987   5.832   4.224  1.2127 -0.7885 -0.4284
16712TIP3   OH271550   2.574   6.495  15.747 -0.2160 -0.2977 -0.8368
16712TIP3    H171551   2.662   6.502  15.709 -0.6329 -1.9084 -2.2184
16712TIP3    H271552   2.528   6.572  15.714  0.3551 -0.0162 -1.0002
16713TIP3   OH271553   5.669   5.764  11.476  0.4064 -0.2936 -0.5287
16713TIP3    H171554   5.723   5.699  11.432  0.4911 -0.2769 -0.4512
16713TIP3    H271555   5.623   5.715  11.544  2.2183  0.0945  1.0844
16714TIP3   OH271556   3.925   5.577  17.018 -0.5706  0.1537 -0.8424
16714TIP3    H171557   3.914   5.502  16.960  1.7371 -0.9223  0.0035
16714TIP3    H271558   4.014   5.608  17.001 -0.7972  1.5211  0.2105
16715TIP3   OH271559   2.580   6.343  13.048 -0.1261  0.6676  0.0382
16715TIP3    H171560   2.604   6.309  12.962 -0.4828  0.0292  0.1874
16715TIP3    H271561   2.485   6.333  13.053 -0.2599  1.7886  0.0505
16716TIP3   OH271562   1.073   2.250   0.132  0.9715 -0.0150 -0.1799
16716TIP3    H171563   1.088   2.342   0.154  2.3081 -0.3323  0.3221
16716TIP3    H271564   1.159   2.216   0.107  0.2649 -0.7973 -1.7290
16717TIP3   OH271565   2.216   0.034   1.803 -0.2724 -0.0156 -0.4687
16717TIP3    H171566   2.247  -0.055   1.820  0.5017 -0.0244 -1.8248
16717TIP3    H271567   2.295   0.084   1.785 -0.7972  0.6594 -0.9547
16718TIP3   OH271568   0.665   5.170  15.442  0.2779 -0.6804 -0.2805
16718TIP3    H171569   0.607   5.198  15.371  0.9884 -0.2602 -0.7140
16718TIP3    H271570   0.613   5.108  15.493 -0.9101  0.4753 -0.0412
16719TIP3   OH271571   0.321   1.647  15.333 -0.6434  0.1389  0.0899
16719TIP3    H171572   0.297   1.614  15.246  1.0718 -1.9200  0.3001
16719TIP3    H271573   0.392   1.708  15.317  0.8162 -1.4812  0.0653
16720TIP3   OH271574   0.439   1.346   1.227  0.0021 -0.4089  0.2348
16720TIP3    H171575   0.408   1.264   1.266 -0.1835 -0.9862 -1.0986
16720TIP3    H271576   0.407   1.344   1.137  1.3127  0.4089 -0.2741
16721TIP3   OH271577   5.152   6.800  13.398 -1.1287 -0.1058  0.2779
16721TIP3    H171578   5.182   6.739  13.331 -2.6370 -1.8814  1.1209
16721TIP3    H271579   5.072   6.838  13.361  0.1233  1.8983 -0.4959
16722TIP3   OH271580   5.809   3.649   2.409  0.2000 -0.1407  0.0738
16722TIP3    H171581   5.761   3.642   2.326 -0.6862 -0.0679  0.5665
16722TIP3    H271582   5.899   3.625   2.387 -0.0131 -0.0682 -0.9206
16723TIP3   OH271583   6.067   4.910   0.294 -0.6510 -0.4578 -0.2597
16723TIP3    H171584   5.989   4.893   0.240 -0.9698 -1.0254  0.3645
16723TIP3    H271585   6.107   4.987   0.255 -0.8617 -0.8707 -1.3289
16724TIP3   OH271586   2.186   2.120  16.778 -0.7312  0.2081  0.4366
16724TIP3    H171587   2.256   2.103  16.841 -0.5760  0.9532  0.4838
16724TIP3    H271588   2.122   2.172  16.827 -0.4529  1.0783 -0.0931
16725TIP3   OH271589   0.041   2.217   4.937 -0.4117  0.1054  0.1239
16725TIP3    H171590  -0.049   2.188   4.922 -0.4860  0.9754 -1.2154
16725TIP3    H271591   0.094   2.159   4.884 -0.3733  0.9414 -0.7693
16726TIP3   OH271592   4.336   4.996  10.623  0.1002  0.2177 -0.3249
16726TIP3    H171593   4.371   5.043  10.548  0.2908  3.1085  1.3943
16726TIP3    H271594   4.253   5.040  10.642 -0.3491 -0.9858  0.6892
16727TIP3   OH271595   1.758   4.862   3.611 -0.4200  0.1624  0.5095
16727TIP3    H171596   1.760   4.768   3.593 -0.9319 -0.2330  2.3271
16727TIP3    H271597   1.696   4.871   3.684 -0.3204  1.9011  0.4138
16728TIP3   OH271598   5.457   4.837   3.182 -0.2309 -0.1078  0.4170
16728TIP3    H171599   5.550   4.823   3.167 -0.1658 -0.2194  0.8999
16728TIP3    H271600   5.420   4.851   3.095  0.0276 -1.3562  0.0924
16729TIP3   OH271601   2.285   0.353  13.566 -0.2413 -0.1260  0.5270
16729TIP3    H171602   2.262   0.289  13.498 -0.7370 -0.0532  0.6236
16729TIP3    H271603   2.278   0.437  13.522 -2.8207  0.0947  1.2426
16730TIP3   OH271604   5.406   1.340   5.726  0.3553  0.0727  0.0819
16730TIP3    H171605   5.404   1.383   5.640  0.3603  2.8876  1.3968
16730TIP3    H271606   5.498   1.342   5.752  0.3094 -0.5036  0.3010
16731TIP3   OH271607   1.050   4.988   5.690 -0.1623 -0.5220 -0.3792
16731TIP3    H171608   0.978   5.046   5.666 -1.1199 -0.5586  2.0879
16731TIP3    H271609   1.129   5.036   5.666 -0.9247  1.7899  1.3178
16732TIP3   OH271610   3.001   2.738  11.517 -0.0603  0.1080  0.2169
16732TIP3    H171611   2.973   2.649  11.495 -0.6879  0.0687  1.1154
16732TIP3    H271612   3.086   2.728  11.559 -0.4993 -0.1716  1.0762
16733TIP3   OH271613   2.252   5.696   3.565  0.5375  0.3859 -0.0382
16733TIP3    H171614   2.281   5.662   3.480  1.0548  0.8586 -0.0555
16733TIP3    H271615   2.317   5.665   3.627 -0.7743 -1.4672  0.5065
16734TIP3   OH271616   1.672   5.346  16.016 -0.1328  1.0351  0.3616
16734TIP3    H171617   1.723   5.267  16.033 -0.4511  0.8445  0.4459
16734TIP3    H271618   1.649   5.380  16.102 -1.6597  0.1232  0.3591
16735TIP3   OH271619   3.283   3.076   3.461  0.0720 -0.0971  0.5298
16735TIP3    H171620   3.338   3.148   3.431 -1.5071  0.6716 -0.6981
16735TIP3    H271621   3.316   2.999   3.415  0.9916  0.0691  0.8992
16736TIP3   OH271622   3.927   4.205   2.410 -0.3754 -0.3004  0.4146
16736TIP3    H171623   3.860   4.259   2.368  0.7915  0.2072 -0.8489
16736TIP3    H271624   3.992   4.190   2.342 -0.8049 -3.6167  0.5643
16737TIP3   OH271625   3.775   3.744  11.909  0.5910 -0.7353  0.6846
16737TIP3    H171626   3.739   3.675  11.965  0.7681 -0.3409  1.2897
16737TIP3    H271627   3.861   3.762  11.946 -0.4250  1.6315  2.1903
16738TIP3   OH271628   1.081   3.491  16.599  0.0281 -0.1755  0.7900
16738TIP3    H171629   0.999   3.467  16.556  0.0857  1.3333 -0.2335
16738TIP3    H271630   1.083   3.586  16.597  2.3599 -0.1552 -0.3347
16739TIP3   OH271631   4.951   4.973  12.630 -0.0184  0.3259  0.5129
16739TIP3    H171632   4.882   4.971  12.697 -0.2093  0.9994  0.3373
16739TIP3    H271633   4.998   5.054  12.647 -1.0885  1.3489 -1.1893
16740TIP3   OH271634   5.136   1.511  16.725  0.6543  0.7438 -0.1617
16740TIP3    H171635   5.155   1.424  16.759  0.4918  0.4229 -0.8723
16740TIP3    H271636   5.045   1.527  16.751  0.8735  0.9668  0.5008
16741TIP3   OH271637   2.095   6.198  14.381 -0.2874  0.3534 -0.4370
16741TIP3    H171638   2.050   6.130  14.431  1.8651 -0.5299  0.4331
16741TIP3    H271639   2.119   6.155  14.299  1.7214 -0.2628  0.4088
16742TIP3   OH271640   0.258   5.068  15.880 -0.3287  0.2413 -0.4165
16742TIP3    H171641   0.205   5.040  15.806  0.4027 -0.5899 -0.6503
16742TIP3    H271642   0.349   5.052  15.852 -0.0048  0.6531  0.3565
16743TIP3   OH271643   2.328   4.052   0.860 -0.0994 -0.0461 -0.0845
16743TIP3    H171644   2.237   4.083   0.864 -0.2961 -0.7481  2.2157
16743TIP3    H271645   2.381   4.129   0.876 -0.3943  0.0169  0.6417
16744TIP3   OH271646   1.844   1.582   3.117 -0.4303 -0.4835  0.0465
16744TIP3    H171647   1.795   1.653   3.076  0.3491  1.3583  2.1251
16744TIP3    H271648   1.779   1.535   3.169 -0.3439  1.0345  1.6063
16745TIP3   OH271649   3.382   2.287  14.277 -0.6440  0.4571 -0.4751
16745TIP3    H171650   3.364   2.367  14.228 -1.6267  1.8230  1.9915
16745TIP3    H271651   3.297   2.258  14.310  0.0583  0.0367  1.0740
16746TIP3   OH271652   4.820   5.056  16.893 -0.3258 -0.1805  0.5534
16746TIP3    H171653   4.811   4.999  16.969  0.0257  0.5805  1.1694
16746TIP3    H271654   4.735   5.051  16.849 -0.3897 -0.9516  0.7557
16747TIP3   OH271655   1.023   2.243  15.452  0.1607  0.1408  0.2133
16747TIP3    H171656   1.013   2.280  15.540  0.5788 -0.0762  0.3543
16747TIP3    H271657   1.026   2.149  15.466  0.8689  0.1335  0.0331
16748TIP3   OH271658   5.400   1.326  14.691  0.0085 -0.2848  0.2335
16748TIP3    H171659   5.403   1.232  14.709  0.1689 -0.4481 -0.6187
16748TIP3    H271660   5.488   1.357  14.713  0.5470 -0.6776 -1.2087
16749TIP3   OH271661   6.693   0.176  15.185 -0.2977  0.1420  0.5335
16749TIP3    H171662   6.630   0.185  15.113 -2.3239  0.1352  2.2244
16749TIP3    H271663   6.716   0.083  15.185  1.6558  0.5144 -1.5513
16750TIP3   OH271664   1.424   3.420   1.479 -0.3581 -0.3569  0.5559
16750TIP3    H171665   1.378   3.497   1.513  0.0183 -0.0805  0.4428
16750TIP3    H271666   1.460   3.448   1.395 -0.5419 -0.7731  0.3375
16751TIP3   OH271667   4.577   0.570  14.095 -0.2772 -0.1478  0.0614
16751TIP3    H171668   4.570   0.520  14.177 -1.9125 -0.8746 -0.4952
16751TIP3    H271669   4.526   0.649  14.112 -1.4043 -0.7261 -0.5451
16752TIP3   OH271670   3.014   1.797  11.473  0.4842  0.5045 -0.3184
16752TIP3    H171671   3.029   1.844  11.555  2.4346 -1.2709  0.4326
16752TIP3    H271672   3.090   1.740  11.464 -2.1420 -3.2862 -0.6381
16753TIP3   OH271673   0.727   5.423   4.426 -0.6439  0.0561  0.2514
16753TIP3    H171674   0.673   5.444   4.503  0.7078  1.2719  0.9279
16753TIP3    H271675   0.750   5.509   4.389  0.8019 -0.4062 -0.0028
16754TIP3   OH271676   0.360   1.269   4.597  0.2379  0.0050 -0.1776
16754TIP3    H171677   0.281   1.313   4.567  1.6913  1.4711 -2.1415
16754TIP3    H271678   0.415   1.338   4.634  1.8703 -0.3664 -1.7530
16755TIP3   OH271679   0.109   2.243  12.264  0.3568  0.2224  0.2332
16755TIP3    H171680   0.116   2.161  12.216 -0.4313  0.4443 -0.2836
16755TIP3    H271681   0.120   2.311  12.198 -0.7215  0.5324  0.3440
16756TIP3   OH271682   1.880   1.197  10.394 -1.0203 -0.4922 -0.6684
16756TIP3    H171683   1.959   1.156  10.430 -2.5666 -3.1339  0.0211
16756TIP3    H271684   1.829   1.221  10.471 -1.6598 -0.4488 -1.0984
16757TIP3   OH271685   5.446   0.595   5.117  0.4074 -0.0596 -0.2766
16757TIP3    H171686   5.408   0.507   5.121 -1.0281  0.4965 -0.9466
16757TIP3    H271687   5.418   0.636   5.199 -0.1302  0.2183 -0.5914
16758TIP3   OH271688   6.251   5.561  12.401 -0.0342 -0.4145  0.2872
16758TIP3    H171689   6.305   5.530  12.474  0.2631 -2.2682 -0.6573
16758TIP3    H271690   6.161   5.545  12.429  0.0067  0.2281  0.8085
16759TIP3   OH271691   5.242   4.455   3.388 -0.0304  0.2605 -0.0350
16759TIP3    H171692   5.255   4.549   3.377 -2.4759  0.5463 -1.3438
16759TIP3    H271693   5.311   4.415   3.335 -1.6242  1.4860 -3.3211
16760TIP3   OH271694   4.178   6.511  14.141  0.4275  0.3329  0.4762
16760TIP3    H171695   4.211   6.582  14.085 -0.6358  1.7572  1.5728
16760TIP3    H271696   4.090   6.540  14.166  0.1414 -1.1910  1.3313
16761TIP3   OH271697   5.405   4.235   5.881 -0.4426  0.5344 -0.1653
16761TIP3    H171698   5.475   4.254   5.818 -0.7846 -0.2973 -0.8241
16761TIP3    H271699   5.451   4.218   5.963 -0.0907  3.4422  0.3300
16762TIP3   OH271700   1.467   4.503  11.511 -0.7669  0.0044 -0.0526
16762TIP3    H171701   1.374   4.478  11.515 -1.0535  1.1263  0.6808
16762TIP3    H271702   1.512   4.433  11.559 -1.2066 -0.6391 -0.5658
16763TIP3   OH271703   0.916   6.256   1.300 -0.4479 -0.4143  0.4160
16763TIP3    H171704   1.000   6.284   1.264 -0.2544 -1.6802 -0.1707
16763TIP3    H271705   0.891   6.180   1.247 -0.9026 -1.3805  1.9305
16764TIP3   OH271706   4.917   3.442   4.176 -0.3623 -0.0383  0.2270
16764TIP3    H171707   4.839   3.496   4.163  0.7409  1.4864 -0.3069
16764TIP3    H271708   4.931   3.442   4.271 -1.4108 -0.9623  0.4079
16765TIP3   OH271709   5.004   3.804  12.166  0.4177  0.5511  0.2039
16765TIP3    H171710   5.085   3.753  12.170 -1.5081 -2.9719 -0.8520
16765TIP3    H271711   4.965   3.778  12.082 -1.0162  3.5245 -0.1531
16766TIP3   OH271712   1.999   6.191   3.162  0.5081 -0.3132 -0.8437
16766TIP3    H171713   2.047   6.257   3.112 -0.3021  0.7867 -0.2146
16766TIP3    H271714   1.935   6.156   3.099 -0.0703  0.5990 -0.7866
16767TIP3   OH271715   4.691   6.405  14.307 -0.1815 -0.2305  0.1216
16767TIP3    H171716   4.689   6.460  14.386 -0.6410 -1.3294  0.9075
16767TIP3    H271717   4.607   6.421  14.265  0.0698  0.3705 -0.1544
16768TIP3   OH271718   4.460   4.727  14.778 -0.1924 -0.3761 -0.0056
16768TIP3    H171719   4.415   4.644  14.791 -0.8164  0.2048  1.7610
16768TIP3    H271720   4.548   4.713  14.813 -0.6908  0.0633  1.4570
16769TIP3   OH271721   1.197   4.605  12.326  0.0622  0.8098  0.3815
16769TIP3    H171722   1.175   4.698  12.313 -1.0208  1.2162  3.8168
16769TIP3    H271723   1.115   4.567  12.358  1.3126 -0.5390  2.1242
16770TIP3   OH271724   2.015   5.073   1.230 -0.7755 -0.2019  0.1157
16770TIP3    H171725   2.030   5.143   1.294 -0.2055 -0.7289  0.5646
16770TIP3    H271726   1.960   5.009   1.276 -2.3140  0.4907 -0.6793
16771TIP3   OH271727   3.535   4.529  11.767  0.0746 -0.0525 -0.3151
16771TIP3    H171728   3.614   4.477  11.781 -0.2690 -0.5251 -0.1186
16771TIP3    H271729   3.475   4.470  11.723 -0.2674  0.2253 -0.2241
16772TIP3   OH271730   0.425   0.754  16.130 -0.3980  0.2022  0.1449
16772TIP3    H171731   0.436   0.663  16.104  1.1322  0.2684  0.4685
16772TIP3    H271732   0.345   0.754  16.183 -0.4172 -0.9465  0.1347
16773TIP3   OH271733   6.281   2.830  16.400 -0.6746  0.0069  0.7288
16773TIP3    H171734   6.337   2.834  16.322  0.5734 -0.9133  1.5372
16773TIP3    H271735   6.244   2.918  16.407  1.1959  0.8560  0.5154
16774TIP3   OH271736   1.644   1.779   4.456  0.7020  0.2591  0.5478
16774TIP3    H171737   1.736   1.752   4.459  0.8368  0.7335  0.7588
16774TIP3    H271738   1.640   1.857   4.511  0.3515  0.7522 -0.1606
16775TIP3   OH271739   2.524   6.714   6.200 -0.3347  0.4719  0.3550
16775TIP3    H171740   2.460   6.672   6.142 -1.5553 -0.4147  2.2688
16775TIP3    H271741   2.472   6.756   6.268  1.1124 -0.0830  1.8711
16776TIP3   OH271742   5.606   5.319   0.875  0.2677  0.3477  0.0436
16776TIP3    H171743   5.601   5.258   0.949  0.7000  0.5428  0.2363
16776TIP3    H271744   5.685   5.294   0.828 -0.4296 -0.3024 -0.8340
16777TIP3   OH271745   4.099   4.987  12.368 -0.1955  0.1812  0.5615
16777TIP3    H171746   4.008   5.012  12.382  0.3460  1.1504  2.7711
16777TIP3    H271747   4.127   4.949  12.451  1.2856 -0.5657 -0.2355
16778TIP3   OH271748   0.491   2.278  13.412 -0.0883 -0.1702 -0.8374
16778TIP3    H171749   0.442   2.221  13.352 -0.0293 -0.6460 -0.4457
16778TIP3    H271750   0.576   2.234  13.422 -0.5466 -0.8020  0.5886
16779TIP3   OH271751   3.293   1.066  11.773  0.0291  0.2909  0.6652
16779TIP3    H171752   3.329   0.989  11.729  1.5799  1.5185 -0.3308
16779TIP3    H271753   3.360   1.091  11.837 -0.2161  1.0914  0.6276
16780TIP3   OH271754   1.311   0.956  12.341 -0.1613  0.5065 -0.2938
16780TIP3    H171755   1.363   1.019  12.392 -1.7011  0.9562  0.7810
16780TIP3    H271756   1.305   0.995  12.253  1.9088  0.0778 -0.6749
16781TIP3   OH271757   3.918   3.380  14.479  0.2286 -0.1887 -0.3768
16781TIP3    H171758   3.882   3.345  14.397 -0.7603 -0.7097  0.2521
16781TIP3    H271759   3.841   3.400  14.532  0.8500 -0.5134  0.6865
16782TIP3   OH271760   0.738   1.629  13.206  0.4423  0.0274 -0.1212
16782TIP3    H171761   0.757   1.591  13.120  0.0577  0.2238 -0.2973
16782TIP3    H271762   0.643   1.641  13.205  0.5955  1.3026 -0.1965
16783TIP3   OH271763   4.745   6.373  15.574 -0.2883 -0.0512 -0.0928
16783TIP3    H171764   4.812   6.317  15.612  0.9346  0.7874 -0.9286
16783TIP3    H271765   4.667   6.318  15.569  0.4701 -1.2056  0.4536
16784TIP3   OH271766   0.819   4.933  16.110  0.2185  0.4317 -0.1329
16784TIP3    H171767   0.843   4.990  16.183  0.2735  1.1324 -0.6862
16784TIP3    H271768   0.853   4.847  16.134  0.5540  0.7351  0.4990
16785TIP3   OH271769   0.665   1.372   2.387  0.0221 -0.4070  0.3256
16785TIP3    H171770   0.694   1.335   2.304 -0.7331 -1.4437  0.5009
16785TIP3    H271771   0.578   1.406   2.369  0.1588  0.0394  0.5085
16786TIP3   OH271772   6.241   6.546  11.678  0.7343  0.3409 -0.2988
16786TIP3    H171773   6.174   6.587  11.732 -1.7741 -1.4900 -1.8113
16786TIP3    H271774   6.278   6.477  11.733 -0.4552 -0.2790 -0.2457
16787TIP3   OH271775   6.324   4.454  16.777 -0.3817  0.1835 -0.2316
16787TIP3    H171776   6.246   4.403  16.800 -0.2479  0.5357  1.1162
16787TIP3    H271777   6.300   4.500  16.697 -1.4377  0.0118 -0.0295
16788TIP3   OH271778   1.513   0.346   4.447 -0.2193  0.6139 -0.5245
16788TIP3    H171779   1.554   0.429   4.468  0.5870  0.3453 -1.0021
16788TIP3    H271780   1.428   0.350   4.490  0.5906  0.8711  1.1560
16789TIP3   OH271781   0.722   2.477  15.925  0.0960 -0.2323  0.4555
16789TIP3    H171782   0.717   2.567  15.957 -2.3852  0.2351 -0.9395
16789TIP3    H271783   0.695   2.484  15.833  2.7485 -2.0436 -0.5650
16790TIP3   OH271784   3.877   5.618  11.984 -0.3437 -0.0348 -0.1670
16790TIP3    H171785   3.934   5.598  12.058 -1.6412 -0.3166  0.7945
16790TIP3    H271786   3.819   5.542  11.977 -0.9352  0.4577 -0.7799
16791TIP3   OH271787   1.845   6.654   1.193 -0.3191  0.0294  0.0208
16791TIP3    H171788   1.795   6.695   1.264 -2.8166 -1.3229 -0.8327
16791TIP3    H271789   1.844   6.561   1.212 -0.5754 -0.3100 -1.4891
16792TIP3   OH271790   0.588   6.073  11.615  0.6991 -0.3654  0.3152
16792TIP3    H171791   0.669   6.083  11.564  0.7183  1.2058  0.5976
16792TIP3    H271792   0.612   6.101  11.704  0.0993 -0.8931  0.6502
16793TIP3   OH271793   5.347   4.696   1.034 -0.4289  0.0939  0.3397
16793TIP3    H171794   5.295   4.647   0.970 -0.9231 -0.1596  0.9262
16793TIP3    H271795   5.330   4.788   1.013 -1.5511  0.0242  0.8489
16794TIP3   OH271796   5.687   4.938   0.342  0.0803  0.6510 -0.2734
16794TIP3    H171797   5.619   4.903   0.400  0.8083  0.8151  0.7043
16794TIP3    H271798   5.712   4.864   0.287  0.0728  0.2171  0.2951
16795TIP3   OH271799   4.167   6.407   3.934  0.2978 -0.2812  0.1562
16795TIP3    H171800   4.203   6.468   3.869 -0.9574  0.4333  0.0923
16795TIP3    H271801   4.086   6.375   3.894 -0.7077  0.4852  1.5017
16796TIP3   OH271802   5.902   5.467  13.534 -0.2889  0.0089  0.2439
16796TIP3    H171803   5.964   5.540  13.534 -0.3942  0.1099  1.5253
16796TIP3    H271804   5.840   5.488  13.603  1.0300 -2.4001  2.3379
16797TIP3   OH271805   6.735   5.834  12.851  0.4217  0.3105  0.5610
16797TIP3    H171806   6.771   5.774  12.917 -0.3643 -0.3523  0.3902
16797TIP3    H271807   6.810   5.852  12.793  1.5412  2.0601  2.4126
16798TIP3   OH271808   0.604   6.657  10.579  0.1090 -0.6099  0.9953
16798TIP3    H171809   0.559   6.738  10.599 -1.2365 -1.1697  0.3547
16798TIP3    H271810   0.535   6.591  10.577  1.1217 -1.7066  1.1457
16799TIP3   OH271811   2.664   4.390   4.153  0.7384  0.3320  0.1884
16799TIP3    H171812   2.572   4.367   4.139  0.9953  0.6008 -2.3312
16799TIP3    H271813   2.662   4.482   4.182  0.2133  0.1791  0.6554
16800TIP3   OH271814   3.316   2.399  10.490 -0.0645  0.0516 -0.2415
16800TIP3    H171815   3.286   2.369  10.576  0.1327  0.0492 -0.1727
16800TIP3    H271816   3.352   2.320  10.449  2.0024  0.4992  0.5950
16801TIP3   OH271817   0.655   3.544   6.266  0.3797 -0.1000  0.3492
16801TIP3    H171818   0.723   3.538   6.198  0.7772  0.0403  0.7257
16801TIP3    H271819   0.636   3.637   6.273 -0.5403 -0.2145 -0.4110
16802TIP3   OH271820   2.811   4.736  14.589 -0.0955 -0.0175  0.0704
16802TIP3    H171821   2.785   4.708  14.501  0.6824  1.0605 -0.5318
16802TIP3    H271822   2.882   4.676  14.613 -2.2921 -2.3263  1.3123
16803TIP3   OH271823   1.331   2.041  12.338 -0.3262  0.2347 -0.5388
16803TIP3    H171824   1.269   2.114  12.344  0.4306  0.9478 -1.2560
16803TIP3    H271825   1.278   1.964  12.360 -1.1092  0.9894  0.3578
16804TIP3   OH271826   0.376   0.705  11.838  0.0405  0.4946 -0.1228
16804TIP3    H171827   0.368   0.642  11.910 -1.0034  0.6753 -0.0637
16804TIP3    H271828   0.382   0.651  11.759 -0.9057  0.3086 -0.0786
16805TIP3   OH271829   1.693   1.489   0.374  0.2552 -0.1832  0.3992
16805TIP3    H171830   1.679   1.434   0.297 -0.0109  0.0695  0.2632
16805TIP3    H271831   1.725   1.572   0.338 -0.2635  0.0752  0.5257
16806TIP3   OH271832   1.743   4.565   2.943 -0.2639 -0.0850  0.1843
16806TIP3    H171833   1.678   4.499   2.967 -0.5209 -0.1360 -0.6265
16806TIP3    H271834   1.691   4.643   2.923 -0.0172  0.1056  0.2864
16807TIP3   OH271835   6.611   6.614  15.476  0.0318 -0.1279 -0.1867
16807TIP3    H171836   6.663   6.546  15.434 -1.2386 -0.2766 -1.5914
16807TIP3    H271837   6.674   6.663  15.529  2.0287  0.8619 -3.2078
16808TIP3   OH271838   4.998   4.469  15.106  0.9553 -0.1483 -0.1351
16808TIP3    H171839   5.018   4.376  15.106  1.3782 -0.0886  1.9996
16808TIP3    H271840   4.902   4.473  15.113  0.9528 -0.4010 -0.0317
16809TIP3   OH271841   1.086   3.709  12.671  0.2606  0.3342  0.5568
16809TIP3    H171842   1.030   3.702  12.748  1.0964  0.2032  1.1727
16809TIP3    H271843   1.153   3.773  12.696 -0.2239  1.3281 -0.5653
16810TIP3   OH271844   5.292   3.065   6.687 -0.1658  0.3604  0.9177
16810TIP3    H171845   5.282   3.120   6.765 -0.5908  1.4593  0.1081
16810TIP3    H271846   5.385   3.042   6.685 -0.2667 -0.2277  2.0955
16811TIP3   OH271847   5.499   2.964   0.027  0.4057 -0.8763  0.2398
16811TIP3    H171848   5.416   3.009   0.010  1.3861 -0.0980 -3.4072
16811TIP3    H271849   5.473   2.879   0.062 -1.9055 -0.4092 -0.1489
16812TIP3   OH271850   4.657   2.963   5.218 -0.1036  0.2790 -0.4372
16812TIP3    H171851   4.723   2.995   5.281  1.0445 -0.2080 -1.3454
16812TIP3    H271852   4.590   2.922   5.272 -0.2468  1.7895  0.5940
16813TIP3   OH271853   0.890   1.773  10.432  0.2032 -0.0378  0.2515
16813TIP3    H171854   0.911   1.710  10.501 -1.9540 -0.3943  0.6428
16813TIP3    H271855   0.866   1.720  10.357 -0.3115  0.3169  0.1580
16814TIP3   OH271856   3.278   4.106   2.571  0.2581  0.0012  0.2394
16814TIP3    H171857   3.345   4.155   2.619  0.4030 -1.1854  1.2904
16814TIP3    H271858   3.195   4.144   2.599  0.4491  1.5427 -1.1390
16815TIP3   OH271859   5.161   5.589  16.150 -0.2691 -0.1418  0.1335
16815TIP3    H171860   5.144   5.679  16.123 -1.4911 -0.2471  0.4750
16815TIP3    H271861   5.244   5.594  16.198  0.2907  0.5785 -0.8577
16816TIP3   OH271862   5.576   3.281  12.980  0.4240  0.3239  0.0599
16816TIP3    H171863   5.482   3.295  12.969  0.4863  2.0046  1.2386
16816TIP3    H271864   5.616   3.339  12.915  0.6467 -0.3964 -0.4469
16817TIP3   OH271865   4.183   5.774  12.517 -0.5214 -0.4825 -0.5292
16817TIP3    H171866   4.212   5.863  12.499 -0.1589 -0.3624  0.5801
16817TIP3    H271867   4.220   5.722  12.445 -0.3125  0.1791 -0.9095
16818TIP3   OH271868   6.588   5.878   0.617 -0.3701  0.2074  0.5403
16818TIP3    H171869   6.629   5.817   0.556  0.7716  1.5819 -0.1402
16818TIP3    H271870   6.594   5.835   0.702  3.2015  0.5588  0.6239
16819TIP3   OH271871   2.374   1.719   0.481  0.1220 -0.1506 -0.2411
16819TIP3    H171872   2.467   1.729   0.462  0.4521  0.9031  1.6708
16819TIP3    H271873   2.370   1.648   0.544 -0.2010  0.7018  0.7235
16820TIP3   OH271874   5.319   6.137  16.116 -0.5756 -0.0421  0.1455
16820TIP3    H171875   5.241   6.150  16.171 -0.2194  0.3389  0.5744
16820TIP3    H271876   5.289   6.083  16.043 -2.3360  3.6398 -2.1283
16821TIP3   OH271877   2.285   2.785   0.660  0.4199  0.0715  0.4026
16821TIP3    H171878   2.379   2.784   0.678  0.2606 -2.4117  1.4795
16821TIP3    H271879   2.279   2.807   0.566  2.2275 -1.9716 -0.2713
16822TIP3   OH271880   4.332   6.444   5.070 -0.2663 -0.6922  0.4039
16822TIP3    H171881   4.401   6.491   5.117 -0.8188  0.4133  0.1395
16822TIP3    H271882   4.280   6.403   5.140 -0.5202  0.1481  0.7213
16823TIP3   OH271883   1.915   0.236  15.192 -0.4254  0.0395  0.3370
16823TIP3    H171884   1.983   0.231  15.125  0.1146  0.2530  0.8694
16823TIP3    H271885   1.844   0.285  15.150 -0.5492 -0.8089 -0.4655
16824TIP3   OH271886   6.361   2.732  12.566 -0.0467  0.0597  0.2634
16824TIP3    H171887   6.400   2.716  12.480 -0.7788 -0.1084 -0.0490
16824TIP3    H271888   6.403   2.669  12.624  0.6648  0.3715  0.0965
16825TIP3   OH271889   2.495   4.831  11.689  0.4631 -0.1052 -0.2835
16825TIP3    H171890   2.420   4.882  11.719  0.5384 -0.3829  0.3744
16825TIP3    H271891   2.507   4.763  11.755  1.5379  0.1669 -0.1704
16826TIP3   OH271892   0.520   0.830   6.212 -0.1969 -0.2059  0.7935
16826TIP3    H171893   0.479   0.917   6.212 -0.3659 -0.2567 -0.9429
16826TIP3    H271894   0.554   0.820   6.124  0.2932 -1.7010  1.1371
16827TIP3   OH271895   1.349   0.463  13.772 -0.6284 -0.1297 -0.6402
16827TIP3    H171896   1.369   0.523  13.844 -0.6987 -1.7952  0.8324
16827TIP3    H271897   1.329   0.520  13.698 -1.3019  1.6594  0.8460
16828TIP3   OH271898   2.912   5.251   1.649 -0.1352 -0.5462  0.2609
16828TIP3    H171899   2.963   5.215   1.721 -0.8788 -2.4496 -0.1218
16828TIP3    H271900   2.854   5.315   1.691  2.2294  1.4772  0.7426
16829TIP3   OH271901   0.044   2.585  12.882  0.1715 -0.1442 -0.3239
16829TIP3    H171902   0.100   2.571  12.958  1.0802 -1.0630 -1.1220
16829TIP3    H271903   0.004   2.671  12.896  0.2291 -0.3500  1.2257
16830TIP3   OH271904   1.720   4.148  13.794 -0.0826 -0.3574 -0.4850
16830TIP3    H171905   1.807   4.131  13.756 -0.8256 -1.3909 -1.7983
16830TIP3    H271906   1.731   4.230  13.842  1.2924  0.2645 -1.7625
16831TIP3   OH271907   1.132   6.782   2.677 -0.2310 -0.5702  0.4565
16831TIP3    H171908   1.148   6.863   2.630  3.0764 -1.1946  0.2595
16831TIP3    H271909   1.076   6.730   2.619 -0.1831  0.5217 -0.5866
16832TIP3   OH271910   4.896   1.045  15.281 -0.0920 -0.0785  0.2768
16832TIP3    H171911   4.855   0.966  15.315 -1.1871 -0.2834 -1.4026
16832TIP3    H271912   4.988   1.037  15.305 -0.5765 -0.7917  2.0158
16833TIP3   OH271913   5.230   0.566   1.358  0.5741 -0.3349 -0.0654
16833TIP3    H171914   5.223   0.659   1.336 -1.4896 -0.4705 -0.1953
16833TIP3    H271915   5.301   0.534   1.302  1.2876  1.1288 -0.0626
16834TIP3   OH271916   0.303   1.894   4.546 -0.5351  0.5533  0.0146
16834TIP3    H171917   0.251   1.962   4.503 -1.0366 -0.9721 -1.9797
16834TIP3    H271918   0.244   1.819   4.554  0.2361  0.0426  1.3529
16835TIP3   OH271919   1.944   5.845  14.004 -0.1765  0.3812 -0.2119
16835TIP3    H171920   1.988   5.869  14.086 -0.2481  1.0631 -0.3628
16835TIP3    H271921   1.916   5.929  13.967 -1.7281 -0.0517 -0.0623
16836TIP3   OH271922   0.693   5.441  11.828 -0.5095 -0.3043  0.2146
16836TIP3    H171923   0.685   5.536  11.831  2.1567 -0.0182  2.7637
16836TIP3    H271924   0.754   5.424  11.756 -0.6981 -0.0829 -0.0005
16837TIP3   OH271925   0.625   5.830  17.169 -0.1482 -0.0926 -0.3346
16837TIP3    H171926   0.719   5.848  17.161 -0.0477 -0.2579  0.4128
16837TIP3    H271927   0.612   5.811  17.262 -0.4932 -2.4655 -0.8039
16838TIP3   OH271928   6.400   4.541  14.797 -0.0108  0.1494 -0.3132
16838TIP3    H171929   6.328   4.600  14.778 -0.3460 -0.1741 -0.0586
16838TIP3    H271930   6.364   4.453  14.781  0.0321 -0.0685  0.7177
16839TIP3   OH271931   0.678   2.054  13.662  0.2171 -0.1162  0.5474
16839TIP3    H171932   0.644   2.129  13.711 -2.5223  0.0873 -1.4165
16839TIP3    H271933   0.717   2.092  13.584 -2.6652 -0.6372 -1.2964
16840TIP3   OH271934   6.396   3.052  14.393 -0.1529  0.8411  0.0090
16840TIP3    H171935   6.356   3.015  14.472  0.4625  2.1970  1.0058
16840TIP3    H271936   6.327   3.051  14.328 -0.3048 -1.5520  0.1158
16841TIP3   OH271937   2.234   3.704  14.542  0.4008  0.0756  0.2658
16841TIP3    H171938   2.285   3.778  14.508  0.7937  0.5048  1.7114
16841TIP3    H271939   2.190   3.668  14.465 -0.1025  2.0615 -0.4374
16842TIP3   OH271940   4.885   6.457   4.050  0.0171 -0.5381 -0.1505
16842TIP3    H171941   4.792   6.471   4.068 -0.2340  2.6973 -2.7349
16842TIP3    H271942   4.886   6.418   3.962  1.0348  0.1770 -0.4746
16843TIP3   OH271943   3.660   0.161  14.740 -0.1113 -0.4305  0.4969
16843TIP3    H171944   3.604   0.087  14.718 -0.4381 -0.0093 -0.1181
16843TIP3    H271945   3.635   0.184  14.829  0.1748 -1.2122  0.7896
16844TIP3   OH271946   5.047   0.631   5.554 -0.3744 -0.0679  0.0289
16844TIP3    H171947   4.970   0.617   5.608  1.4635 -1.1437  2.5644
16844TIP3    H271948   5.104   0.688   5.606 -0.0874  2.2359 -2.5141
16845TIP3   OH271949   3.762   6.288  17.176 -0.4888  0.4063  0.0625
16845TIP3    H171950   3.733   6.228  17.107  2.2355 -1.2850  0.2400
16845TIP3    H271951   3.801   6.231  17.242  2.4215  2.3299  0.1734
16846TIP3   OH271952   2.616   0.022  13.468 -0.5057 -0.7985  0.2746
16846TIP3    H171953   2.614  -0.071  13.445 -0.5242 -1.1625  1.6805
16846TIP3    H271954   2.708   0.046  13.462 -0.5935 -0.6706 -0.8987
16847TIP3   OH271955   0.924   3.254  11.855  0.2317 -0.1554  0.3206
16847TIP3    H171956   0.977   3.229  11.930 -1.2334  1.8241  2.1489
16847TIP3    H271957   0.867   3.324  11.888  0.1456  1.4812 -2.8768
16848TIP3   OH271958   0.784   3.543   6.909 -0.4936 -0.4005  0.1774
16848TIP3    H171959   0.717   3.610   6.904 -1.8484 -1.7574 -0.5813
16848TIP3    H271960   0.865   3.591   6.926 -1.5648  1.3134  0.6348
16849TIP3   OH271961   3.772   1.469   0.977  0.0485  0.4969  0.4205
16849TIP3    H171962   3.864   1.470   0.951 -0.0273 -0.7211  0.0650
16849TIP3    H271963   3.771   1.512   1.063  0.7611  1.6049 -0.1026
16850TIP3   OH271964   5.752   1.359   2.116 -0.0847 -0.3297  0.1010
16850TIP3    H171965   5.717   1.367   2.204  0.4180  0.7104  0.2162
16850TIP3    H271966   5.843   1.335   2.129 -0.1760 -0.8200 -0.1525
16851TIP3   OH271967   2.536   5.649  15.555  0.6361 -0.2944  0.3878
16851TIP3    H171968   2.619   5.697  15.547 -0.3567  1.5648  0.6424
16851TIP3    H271969   2.560   5.557  15.541  2.6670  0.2300  0.0703
16852TIP3   OH271970   2.069   2.970   0.350  0.4534 -0.1445  0.2005
16852TIP3    H171971   2.031   2.976   0.438 -2.4301  2.7368 -1.0090
16852TIP3    H271972   2.007   2.915   0.302  1.0690 -0.2850 -0.4322
16853TIP3   OH271973   3.564   4.818  15.965 -0.1295  0.3982 -0.3211
16853TIP3    H171974   3.557   4.784  15.876 -0.6767 -0.5290  0.0692
16853TIP3    H271975   3.551   4.913  15.955 -1.9685  0.1160 -1.0454
16854TIP3   OH271976   5.890   2.935  13.381  0.1984 -0.0477  0.1142
16854TIP3    H171977   5.909   2.876  13.308  0.0559  0.0034  0.0360
16854TIP3    H271978   5.809   2.901  13.418  1.0058 -0.9206  1.1235
16855TIP3   OH271979   2.352   4.174   2.407 -0.5230 -0.0459  0.1707
16855TIP3    H171980   2.266   4.189   2.368 -0.0707  1.3419 -0.3313
16855TIP3    H271981   2.333   4.148   2.497 -1.5739 -2.8076 -0.7215
16856TIP3   OH271982   5.933   4.807   2.103 -0.2702  0.0347 -0.8169
16856TIP3    H171983   5.940   4.777   2.193 -1.0048  0.1633 -0.7118
16856TIP3    H271984   6.024   4.812   2.072 -0.1017 -3.2544 -1.1876
16857TIP3   OH271985   3.209   3.152   3.105 -0.0408 -0.5117 -0.3036
16857TIP3    H171986   3.139   3.190   3.053 -1.1454  0.0973  1.5420
16857TIP3    H271987   3.288   3.200   3.078 -1.0434  1.7066  0.4747
16858TIP3   OH271988   2.209   6.441   2.109  0.1077 -0.0163  0.0641
16858TIP3    H171989   2.147   6.388   2.057 -1.0551  0.1880  1.1832
16858TIP3    H271990   2.220   6.392   2.190 -1.6375  1.7630  1.4796
16859TIP3   OH271991   5.119   4.676  15.509 -0.1779 -0.1001 -0.7897
16859TIP3    H171992   5.040   4.681  15.455 -0.3885 -0.4703 -0.5114
16859TIP3    H271993   5.089   4.693  15.598  0.5489  3.2940 -1.0705
16860TIP3   OH271994   3.204   2.239   1.106 -0.4145 -0.2911  0.1180
16860TIP3    H171995   3.142   2.303   1.140 -1.1672 -1.0612  0.2322
16860TIP3    H271996   3.160   2.201   1.030  0.9300  0.8883 -1.3444
16861TIP3   OH271997   3.785   1.680  13.670 -0.0898  0.5723  0.0625
16861TIP3    H171998   3.844   1.650  13.602  2.4091  2.5257  1.1908
16861TIP3    H271999   3.734   1.749  13.629 -0.0124  0.3814 -0.3572
16862TIP3   OH272000   0.691   2.198   6.064  0.0906 -0.5072 -0.1434
16862TIP3    H172001   0.709   2.276   6.117  0.9332 -1.1201  0.5058
16862TIP3    H272002   0.776   2.155   6.056 -0.2031 -0.9079 -1.2362
16863TIP3   OH272003   2.847   2.723   5.454 -0.0774 -0.0612 -0.3144
16863TIP3    H172004   2.853   2.719   5.549 -1.7552 -1.2543 -0.2072
16863TIP3    H272005   2.788   2.796   5.436  0.3973  0.2915 -0.4597
16864TIP3   OH272006   3.380   5.967   4.722 -0.6748 -0.8772 -0.0280
16864TIP3    H172007   3.357   5.876   4.700  0.9784 -1.2821 -0.1797
16864TIP3    H272008   3.475   5.968   4.724 -0.6756  0.7516  0.4998
16865TIP3   OH272009   5.159   3.457   1.556  0.1911 -0.0914  0.8511
16865TIP3    H172010   5.128   3.438   1.467  1.6813  0.5460  0.1633
16865TIP3    H272011   5.122   3.542   1.577 -0.6650 -0.5090  1.1165
16866TIP3   OH272012   0.831   2.168  16.566 -0.3365  0.1877 -0.5063
16866TIP3    H172013   0.780   2.103  16.614  0.4272 -0.2103 -0.2114
16866TIP3    H272014   0.797   2.165  16.477 -0.7770 -0.1184 -0.3301
16867TIP3   OH272015   5.368   0.982  13.414 -0.1050 -0.2763 -0.1926
16867TIP3    H172016   5.447   0.931  13.396  0.9589  1.3748 -0.4283
16867TIP3    H272017   5.300   0.917  13.432  1.1160 -1.7536 -0.7735
16868TIP3   OH272018   6.417   6.775  14.768 -0.1081 -0.2941  0.4515
16868TIP3    H172019   6.324   6.755  14.757 -0.1902  0.8122 -1.1822
16868TIP3    H272020   6.461   6.728  14.697  0.3828  0.4471  0.2560
16869TIP3   OH272021   0.773   1.824   3.243  0.0337 -0.3986  0.3144
16869TIP3    H172022   0.719   1.832   3.321  0.1481 -0.9752  0.4577
16869TIP3    H272023   0.715   1.781   3.179  0.5904 -1.8895  0.7644
16870TIP3   OH272024   5.178   2.944  14.295  0.4933  0.1238 -0.4813
16870TIP3    H172025   5.106   2.993  14.255  0.0671  0.5063  0.6807
16870TIP3    H272026   5.135   2.888  14.360  1.0948 -0.9661 -1.0036
16871TIP3   OH272027   4.583   6.056  16.550  0.0673 -0.1922  0.2251
16871TIP3    H172028   4.574   5.964  16.575  0.4326 -0.0673  0.8236
16871TIP3    H272029   4.494   6.091  16.555  0.1795 -0.0590  1.8258
16872TIP3   OH272030   5.311   1.052   4.099  0.7378  0.3544 -0.1008
16872TIP3    H172031   5.364   1.131   4.092  2.9071 -1.0603 -0.7706
16872TIP3    H272032   5.314   1.030   4.193  2.0141 -0.0910 -0.2195
16873TIP3   OH272033   1.873   6.434   2.563 -0.4852  0.4285 -0.0279
16873TIP3    H172034   1.866   6.529   2.571 -0.9079  0.2811  1.9588
16873TIP3    H272035   1.897   6.405   2.651 -0.1821 -1.2887 -0.6495
16874TIP3   OH272036   2.946   2.259   2.720  0.4117 -0.1308 -0.2014
16874TIP3    H172037   3.041   2.251   2.717  0.4205 -0.4420  0.5154
16874TIP3    H272038   2.926   2.340   2.673  0.9865 -0.3376 -0.8039
16875TIP3   OH272039   2.074   2.149   0.077 -0.0929 -0.6607 -0.6157
16875TIP3    H172040   2.074   2.070   0.130 -0.3351 -1.0890 -1.2519
16875TIP3    H272041   2.015   2.130   0.004  0.0489  0.0076 -0.9155
16876TIP3   OH272042   0.089   5.453   4.857 -0.4285 -0.4063 -0.1530
16876TIP3    H172043   0.076   5.362   4.829 -1.4816  0.0172 -1.1408
16876TIP3    H272044   0.167   5.482   4.810  0.0895 -0.8729  0.3985
16877TIP3   OH272045   3.114   3.867   5.490 -0.1708  0.1716 -0.4450
16877TIP3    H172046   3.184   3.857   5.554 -2.0138 -0.8246  1.5506
16877TIP3    H272047   3.079   3.954   5.505 -0.9274 -0.2488  0.2796
16878TIP3   OH272048   6.206   0.311   5.246  0.1700  0.3634 -0.2453
16878TIP3    H172049   6.237   0.401   5.238  0.7532  0.1373 -0.6176
16878TIP3    H272050   6.113   0.319   5.270  0.3233  1.0532  0.1302
16879TIP3   OH272051   3.052   6.035  16.305  0.2276 -0.0680 -0.2082
16879TIP3    H172052   3.048   5.941  16.319  0.2543 -0.0622 -0.1629
16879TIP3    H272053   3.108   6.068  16.376 -2.4719  0.4223  1.8514
16880TIP3   OH272054   0.402   4.421   1.483  0.3279 -0.3903  0.2116
16880TIP3    H172055   0.352   4.477   1.423 -0.2502 -1.1364 -0.0204
16880TIP3    H272056   0.451   4.482   1.538  2.4302  0.3296 -2.2610
16881TIP3   OH272057   0.503   4.396   0.763 -0.3841  0.4493  0.3371
16881TIP3    H172058   0.587   4.431   0.793 -0.8217  0.7989  1.1949
16881TIP3    H272059   0.506   4.405   0.668  1.5527 -1.8262  0.0779
16882TIP3   OH272060   4.422   2.385   0.667 -0.1798 -0.0207 -0.4681
16882TIP3    H172061   4.456   2.429   0.745 -0.8219 -2.3532  1.2238
16882TIP3    H272062   4.342   2.433   0.646  0.4690  1.1856 -0.2642
16883TIP3   OH272063   2.234   4.002   3.750 -0.3543  0.4476  0.1744
16883TIP3    H172064   2.321   3.977   3.720  0.7519  1.1117  2.6233
16883TIP3    H272065   2.188   4.028   3.671  1.3876 -0.6665 -1.2852
16884TIP3   OH272066   2.277   5.096  12.617 -0.0934 -0.1720 -0.1069
16884TIP3    H172067   2.253   5.003  12.617  0.2343 -0.2887  1.3208
16884TIP3    H272068   2.219   5.136  12.681 -0.6943  0.7611 -1.2016
16885TIP3   OH272069   0.663   2.294  15.532 -0.0889 -0.2344  0.6116
16885TIP3    H172070   0.753   2.261  15.532  0.2311  0.5456 -1.0340
16885TIP3    H272071   0.672   2.389  15.530 -0.9150 -0.1571 -0.9627
16886TIP3   OH272072   2.911   2.120  11.668  0.5934  0.0683  0.2513
16886TIP3    H172073   2.912   2.161  11.754  1.1805  1.0354 -0.2080
16886TIP3    H272074   2.919   2.026  11.687  0.7542  0.2673  1.2383
16887TIP3   OH272075   1.732   2.165   2.865 -0.1225 -0.4178  0.3005
16887TIP3    H172076   1.716   2.074   2.840 -0.4729 -0.1570 -0.4723
16887TIP3    H272077   1.782   2.202   2.792 -3.1006  0.9831 -1.2561
16888TIP3   OH272078   4.456   4.995  12.370  1.2106  0.1003 -0.1989
16888TIP3    H172079   4.508   4.935  12.317  1.4411 -0.4201  0.5944
16888TIP3    H272080   4.390   4.938  12.410  2.0752  0.1746  1.3888
16889TIP3   OH272081   4.540   1.062   2.805  0.1967 -0.7185  0.1025
16889TIP3    H172082   4.589   0.990   2.766  0.0190 -0.2006 -1.1054
16889TIP3    H272083   4.448   1.040   2.791  0.1140 -0.7262  0.6165
16890TIP3   OH272084   2.855   2.046   4.936  0.2065 -0.4661  0.1071
16890TIP3    H172085   2.802   2.043   4.856 -1.8577  1.9183  1.2506
16890TIP3    H272086   2.806   2.102   4.995  3.5528  1.0989  1.6703
16891TIP3   OH272087   4.173   6.739  15.439  0.2212 -0.5714 -0.0664
16891TIP3    H172088   4.192   6.799  15.366  1.1352 -1.1677 -0.3332
16891TIP3    H272089   4.259   6.706  15.466 -0.1258 -0.5152  1.1571
16892TIP3   OH272090   1.452   2.405   1.644 -0.1674  0.1313 -0.1001
16892TIP3    H172091   1.530   2.353   1.625 -0.2897 -0.2747  0.5046
16892TIP3    H272092   1.394   2.388   1.570 -0.4206 -1.0069  0.3455
16893TIP3   OH272093   1.112   1.160   4.969  0.5940 -0.2252 -0.2305
16893TIP3    H172094   1.159   1.242   4.979 -0.4965  0.1730  2.3441
16893TIP3    H272095   1.042   1.164   5.034  1.2049 -3.6549  0.8538
16894TIP3   OH272096   5.730   1.490  11.901  0.1881  0.4662  0.7127
16894TIP3    H172097   5.785   1.485  11.823  0.1554 -1.3378  0.7784
16894TIP3    H272098   5.779   1.444  11.969 -1.2487 -0.9454  0.8384
16895TIP3   OH272099   4.563   5.326  16.551  0.2380  0.3556  0.0573
16895TIP3    H172100   4.553   5.418  16.575 -1.5906  0.1415  0.3077
16895TIP3    H272101   4.473   5.297  16.534  0.8967 -1.0737 -1.1957
16896TIP3   OH272102   2.253   2.607  11.971 -0.5617  0.3880  0.2043
16896TIP3    H172103   2.270   2.650  12.055 -1.7225  1.5694 -0.1408
16896TIP3    H272104   2.157   2.601  11.966 -0.5659  1.5022 -1.6001
16897TIP3   OH272105   2.695   1.276  12.713  0.5627  0.1564 -0.3429
16897TIP3    H172106   2.757   1.337  12.754 -0.0936  0.7203 -0.1652
16897TIP3    H272107   2.747   1.230  12.647  1.0794  0.8764 -0.4477
16898TIP3   OH272108   4.193   3.009  11.568  0.1057  0.3594  0.4700
16898TIP3    H172109   4.126   2.948  11.537 -0.6432  0.5135  1.6998
16898TIP3    H272110   4.276   2.965  11.550 -0.4291 -1.1659  1.5767
16899TIP3   OH272111   6.758   3.325   2.731 -0.3371 -0.0010  0.3614
16899TIP3    H172112   6.826   3.272   2.774 -0.4484 -0.8063 -0.4096
16899TIP3    H272113   6.685   3.264   2.719 -0.4097  0.2803 -0.6911
16900TIP3   OH272114   4.614   2.170   1.475 -0.3459  0.4640  0.1519
16900TIP3    H172115   4.648   2.146   1.561 -3.4840  0.0655  1.4373
16900TIP3    H272116   4.577   2.088   1.440  1.1030  0.5449 -1.7887
16901TIP3   OH272117   2.363   2.899  10.651  0.2257 -0.2097 -0.6282
16901TIP3    H172118   2.419   2.867  10.721  0.4229 -0.9764 -1.1270
16901TIP3    H272119   2.415   2.890  10.572  0.2847  1.3507 -0.8001
16902TIP3   OH272120   3.332   4.141   6.124  0.0684 -0.2857 -0.0873
16902TIP3    H172121   3.422   4.160   6.097  0.6144 -1.9979  0.3886
16902TIP3    H272122   3.341   4.107   6.213 -1.2849  1.4740  0.7898
16903TIP3   OH272123   3.737   0.045  11.311 -0.9480 -0.0078 -0.3112
16903TIP3    H172124   3.654   0.085  11.336 -1.6954 -0.7020 -1.5604
16903TIP3    H272125   3.798   0.118  11.299 -1.4194  0.5158  0.4289
16904TIP3   OH272126   6.649   2.239   4.179  0.3062 -0.2608 -0.1482
16904TIP3    H172127   6.602   2.241   4.263  1.2548  1.4613  0.3894
16904TIP3    H272128   6.619   2.317   4.133  0.8306 -0.4503 -0.8221
16905TIP3   OH272129   5.728   4.887  16.478 -0.3867 -0.3415  0.3519
16905TIP3    H172130   5.662   4.919  16.416  0.1021 -0.4577 -0.2396
16905TIP3    H272131   5.798   4.952  16.475  0.0700 -0.8366  0.0497
16906TIP3   OH272132   6.577   0.837  15.175  0.2280 -0.1052  0.1788
16906TIP3    H172133   6.493   0.840  15.130  0.2199 -0.5957  0.1526
16906TIP3    H272134   6.639   0.805  15.109  0.5142  0.6142  0.0871
16907TIP3   OH272135   4.153   3.613  15.952 -0.5866 -0.0883  0.1969
16907TIP3    H172136   4.165   3.518  15.948 -1.0325 -0.1169 -0.5066
16907TIP3    H272137   4.227   3.648  15.903  1.1191  0.0612  2.6895
16908TIP3   OH272138   0.227   2.167   0.274  0.2041  0.0092  0.4488
16908TIP3    H172139   0.227   2.145   0.368 -1.2077  0.8407  0.6645
16908TIP3    H272140   0.136   2.158   0.247  0.3722  1.0538 -0.5411
16909TIP3   OH272141   4.779   4.311   4.473 -0.1304  0.1916 -0.1771
16909TIP3    H172142   4.829   4.377   4.424  0.2078  0.1997  0.1683
16909TIP3    H272143   4.729   4.362   4.537 -0.2439  0.1499 -0.2335
16910TIP3   OH272144   0.850   5.725   1.128 -0.3269 -0.0144  0.0987
16910TIP3    H172145   0.858   5.637   1.166  1.7949 -0.3413 -0.9630
16910TIP3    H272146   0.763   5.725   1.087 -0.3116 -1.6839 -0.0127
16911TIP3   OH272147   4.178   3.078  16.576  0.1092 -0.4853 -0.2079
16911TIP3    H172148   4.260   3.119  16.547  0.7349 -0.4132  1.5273
16911TIP3    H272149   4.202   3.034  16.658 -1.5591 -0.6332  0.2212
16912TIP3   OH272150   2.373   1.456  12.333 -0.0543 -0.0573 -0.1887
16912TIP3    H172151   2.393   1.428  12.422 -1.3787 -0.4306  0.0118
16912TIP3    H272152   2.293   1.408  12.310 -0.2740  0.7565 -1.2199
16913TIP3   OH272153   6.760   2.064   0.234 -0.3994 -0.6859  0.3600
16913TIP3    H172154   6.685   2.016   0.200 -1.9384  0.7874  1.5224
16913TIP3    H272155   6.769   2.034   0.325  1.1230 -1.6112 -0.0548
16914TIP3   OH272156   0.930   1.806  13.888  0.2515 -0.1287  0.6389
16914TIP3    H172157   0.975   1.859  13.822 -0.8255 -0.3284 -0.2835
16914TIP3    H272158   0.868   1.753  13.838  0.7676 -1.7234  1.6174
16915TIP3   OH272159   3.168   3.881  15.607  0.2062  0.4166 -0.4001
16915TIP3    H172160   3.182   3.787  15.622  1.2811  0.6396  0.0671
16915TIP3    H272161   3.177   3.891  15.512  1.7381  0.2742 -0.3062
16916TIP3   OH272162   5.973   6.066  16.936 -0.2599  0.1484 -0.5338
16916TIP3    H172163   6.020   6.092  17.015  0.1337  0.3979 -0.8444
16916TIP3    H272164   6.042   6.052  16.871 -0.5541 -0.4781 -0.7130
16917TIP3   OH272165   3.435   4.216  15.064  0.1078 -0.1858  0.2151
16917TIP3    H172166   3.371   4.214  15.136 -0.8675  1.5621 -0.5338
16917TIP3    H272167   3.409   4.145  15.006 -0.7443  0.0745  0.2682
16918TIP3   OH272168   1.645   3.873   0.206 -0.4145  0.2753  0.2498
16918TIP3    H172169   1.552   3.856   0.197 -0.6894  2.5415 -2.6079
16918TIP3    H272170   1.653   3.922   0.287 -2.0696  1.7411 -0.3982
16919TIP3   OH272171   4.776   1.203  14.180  0.7976  0.4967  0.2727
16919TIP3    H172172   4.689   1.164  14.190  1.2291 -0.1170  1.8757
16919TIP3    H272173   4.797   1.189  14.088 -1.7715  2.8466 -0.8255
16920TIP3   OH272174   5.469   5.812  14.789 -0.1224  0.4327  0.3363
16920TIP3    H172175   5.472   5.900  14.751 -1.0123 -0.7664 -2.8448
16920TIP3    H272176   5.415   5.822  14.867 -3.3674  2.2201 -1.8647
16921TIP3   OH272177   5.207   5.082  13.760  0.1080  0.3907 -0.1715
16921TIP3    H172178   5.279   5.104  13.700 -0.9953  2.7199 -0.7584
16921TIP3    H272179   5.135   5.138  13.733 -0.5195  1.4854  3.2457
16922TIP3   OH272180   5.004   4.740  15.744 -0.1095  0.5105  0.0272
16922TIP3    H172181   4.951   4.818  15.761 -0.0553  0.4630  0.4156
16922TIP3    H272182   4.948   4.667  15.771 -0.5609  0.3452 -1.2792
16923TIP3   OH272183   3.774   0.016   5.007  0.3830  0.0274  0.6613
16923TIP3    H172184   3.851   0.001   5.061 -0.0821 -0.1367  1.2954
16923TIP3    H272185   3.714   0.064   5.065 -0.2535 -0.4540  0.4049
16924TIP3   OH272186   4.275   5.399   0.272 -0.0298  0.2703  0.5544
16924TIP3    H172187   4.221   5.463   0.228 -0.1897 -0.1022  0.2019
16924TIP3    H272188   4.296   5.438   0.357 -1.0980  0.2873  0.8151
16925TIP3   OH272189   0.988   1.049   1.278 -0.2182  0.4483  0.4532
16925TIP3    H172190   1.036   1.106   1.339  2.7433  0.6613 -1.8961
16925TIP3    H272191   1.031   0.964   1.286  0.0875  0.4322 -1.1542
16926TIP3   OH272192   6.155   3.354   5.322  0.3641  0.4023  0.4312
16926TIP3    H172193   6.130   3.400   5.242  0.5252 -1.2248 -0.5992
16926TIP3    H272194   6.077   3.303   5.346  0.8954 -0.5117  0.2684
16927TIP3   OH272195   2.704   5.469   3.776 -0.1557  0.5099 -0.1006
16927TIP3    H172196   2.800   5.473   3.778  0.0362 -1.9970  2.5351
16927TIP3    H272197   2.685   5.404   3.708  0.1332 -0.0132  0.3055
16928TIP3   OH272198   6.556   2.440  12.999  0.1801 -0.0924  0.3275
16928TIP3    H172199   6.494   2.416  13.067 -0.1821 -0.6599 -0.1911
16928TIP3    H272200   6.639   2.452  13.045  0.2332 -1.7185  0.7160
16929TIP3   OH272201   6.040   2.072   4.884 -0.5176 -0.2002 -0.0159
16929TIP3    H172202   6.041   2.166   4.906 -2.0455  0.1028 -1.0547
16929TIP3    H272203   5.950   2.044   4.902 -0.6548 -0.9482 -1.6671
16930TIP3   OH272204   6.449   1.917  11.444  0.4137  0.6948  0.6181
16930TIP3    H172205   6.487   1.868  11.517 -0.1191 -0.1652  0.3394
16930TIP3    H272206   6.355   1.897  11.448  0.1154  2.0097  0.7177
16931TIP3   OH272207   6.642   6.479  12.950 -0.6251  0.4089  0.0521
16931TIP3    H172208   6.592   6.476  13.031 -1.9359  1.3433 -0.6717
16931TIP3    H272209   6.731   6.454  12.974 -1.8613 -3.7596  1.0051
16932TIP3   OH272210   6.568   0.520   3.837  0.3759  0.7343 -0.2322
16932TIP3    H172211   6.573   0.545   3.745  0.4523 -2.3070 -1.1746
16932TIP3    H272212   6.636   0.572   3.880 -0.1834  2.7817 -1.6932
16933TIP3   OH272213   2.109   2.316   0.285  0.4972  0.1973  0.7071
16933TIP3    H172214   2.115   2.257   0.210  1.9414  0.3347  0.6806
16933TIP3    H272215   2.055   2.388   0.255 -0.0168 -0.3757  0.2374
16934TIP3   OH272216   4.861   3.711   5.713 -0.4127 -0.0686  0.5087
16934TIP3    H172217   4.814   3.691   5.794  1.6602  0.0454  1.8102
16934TIP3    H272218   4.887   3.803   5.723  1.9935 -0.7243  0.9165
16935TIP3   OH272219   4.601   6.210   4.045  0.4207 -0.2579  0.0585
16935TIP3    H172220   4.518   6.230   4.002  0.2484 -1.5316 -0.2516
16935TIP3    H272221   4.621   6.288   4.096 -1.2413 -0.1242  0.5774
16936TIP3   OH272222   5.993   2.636   0.364 -0.3348  0.0790  0.0918
16936TIP3    H172223   6.028   2.554   0.328 -0.6355  0.4447 -1.0866
16936TIP3    H272224   5.944   2.609   0.441 -0.2531 -0.8300 -0.1604
16937TIP3   OH272225   4.141   4.466  16.272  0.2285  0.8662  0.4770
16937TIP3    H172226   4.067   4.484  16.214 -0.0484  0.3198  0.6543
16937TIP3    H272227   4.106   4.482  16.360  0.0172 -0.3906  0.6297
16938TIP3   OH272228   6.142   2.217  13.510  0.3983  0.1627 -0.2525
16938TIP3    H172229   6.237   2.223  13.512  0.4042 -0.1264  0.2159
16938TIP3    H272230   6.118   2.174  13.592 -0.1505  0.4474 -0.2597
16939TIP3   OH272231   4.218   3.825  15.349  0.0692  0.1729  0.4216
16939TIP3    H172232   4.162   3.748  15.356 -3.2433  2.4840  1.8917
16939TIP3    H272233   4.303   3.791  15.321 -1.6170 -3.7669 -0.5344
16940TIP3   OH272234   2.490   5.650  11.850  0.4526  0.5122 -0.0638
16940TIP3    H172235   2.401   5.662  11.882  0.2045 -0.2313 -0.4299
16940TIP3    H272236   2.496   5.556  11.832  0.8647  0.7480 -1.3038
16941TIP3   OH272237   1.860   0.563   6.090 -0.2653 -0.5397  0.4375
16941TIP3    H172238   1.876   0.652   6.120  3.1206 -0.7553 -0.3693
16941TIP3    H272239   1.828   0.573   6.000 -0.7811 -0.1545  0.6587
16942TIP3   OH272240   2.828   6.523  15.630  0.2486  0.0139  0.1747
16942TIP3    H172241   2.842   6.616  15.612  1.6088 -0.1574  0.1698
16942TIP3    H272242   2.896   6.479  15.578  0.9428 -0.8365  1.7381
16943TIP3   OH272243   0.198   4.631   2.895 -0.1698 -0.0364  0.1153
16943TIP3    H172244   0.103   4.636   2.892 -0.1634 -0.3198 -1.0007
16943TIP3    H272245   0.221   4.661   2.983 -1.4436 -2.8603  1.5283
16944TIP3   OH272246   0.323   0.044  17.064  0.1556 -0.0301  0.2005
16944TIP3    H172247   0.343   0.128  17.024  0.3420  1.9262  3.9475
16944TIP3    H272248   0.407   0.010  17.093 -0.1179 -0.6524  0.2879
16945TIP3   OH272249   5.280   0.241  11.749  0.2815  0.0138 -0.0296
16945TIP3    H172250   5.306   0.150  11.737  1.1638  0.2141  0.2630
16945TIP3    H272251   5.313   0.265  11.836 -3.1788 -0.4656  1.5934
16946TIP3   OH272252   3.568   2.330  15.435  0.3352 -0.0969  0.1523
16946TIP3    H172253   3.515   2.402  15.403 -0.1894 -1.0176 -1.1415
16946TIP3    H272254   3.636   2.371  15.488 -0.1667  1.2974 -0.2564
16947TIP3   OH272255   2.495   5.065  15.766  0.2417 -0.2574 -0.3736
16947TIP3    H172256   2.415   5.014  15.755  0.9602 -0.8702 -3.8328
16947TIP3    H272257   2.466   5.145  15.811 -1.9541 -1.2034  0.0262
16948TIP3   OH272258   1.544   1.272   0.165 -0.3671  0.1698 -0.5519
16948TIP3    H172259   1.449   1.262   0.171 -0.6511  0.2698 -3.3890
16948TIP3    H272260   1.579   1.202   0.219 -1.9724  1.1129  1.8810
16949TIP3   OH272261   2.640   6.668  12.363 -0.2796 -0.0748  0.6748
16949TIP3    H172262   2.555   6.639  12.397 -0.3070  0.1800  0.8237
16949TIP3    H272263   2.703   6.644  12.431 -0.1238 -0.9396  0.2457
16950TIP3   OH272264   6.042   6.317   0.990 -0.4681 -0.5090 -0.6116
16950TIP3    H172265   6.075   6.404   0.966  1.7177 -1.2358 -0.4686
16950TIP3    H272266   6.016   6.326   1.082 -0.0998 -0.0436 -0.5491
16951TIP3   OH272267   0.207   4.127   1.268 -0.3285  0.2064 -0.7307
16951TIP3    H172268   0.232   4.123   1.361  0.2522 -2.8726 -0.9009
16951TIP3    H272269   0.111   4.132   1.270 -0.3247  0.1761  0.0508
16952TIP3   OH272270   3.508   1.542  15.180 -0.2268  0.0516 -0.6489
16952TIP3    H172271   3.568   1.468  15.171  0.4025  0.4571  0.0944
16952TIP3    H272272   3.548   1.612  15.129 -0.9328 -0.1716 -1.5329
16953TIP3   OH272273   4.381   3.828  12.685 -0.5415 -0.7492 -0.2772
16953TIP3    H172274   4.413   3.918  12.687 -0.1251 -0.7806 -2.7710
16953TIP3    H272275   4.344   3.814  12.772  1.3915  1.0664  0.9306
16954TIP3   OH272276   2.954   5.216  15.016  0.6000 -0.1259 -0.1755
16954TIP3    H172277   2.919   5.223  15.105  0.6283 -1.0185 -0.0801
16954TIP3    H272278   2.923   5.295  14.972  0.9260  0.5402  0.7328
16955TIP3   OH272279   3.797   6.684   2.180 -0.0549 -0.4120  0.7374
16955TIP3    H172280   3.772   6.642   2.262 -0.5106 -0.2588  0.6820
16955TIP3    H272281   3.792   6.615   2.115 -1.9610 -0.0499  0.4331
16956TIP3   OH272282   5.185   2.437   3.233 -0.0062 -0.2337 -0.1021
16956TIP3    H172283   5.202   2.356   3.280  0.2272  0.4093  0.9377
16956TIP3    H272284   5.271   2.470   3.207 -0.0650 -0.0834 -0.1112
16957TIP3   OH272285   3.290   5.931   5.664  0.2525  0.1648 -0.5135
16957TIP3    H172286   3.346   5.889   5.599  0.9724  0.0061  0.1868
16957TIP3    H272287   3.269   5.862   5.727 -1.4801 -0.0025 -1.2121
16958TIP3   OH272288   5.970   4.899  12.416  0.5821  0.1296 -0.3673
16958TIP3    H172289   6.014   4.827  12.370 -0.9773 -2.4848  1.9248
16958TIP3    H272290   5.933   4.952  12.346  1.3839 -1.5633 -2.1842
16959TIP3   OH272291   0.352   6.318   0.561 -0.0098  0.3189  0.6297
16959TIP3    H172292   0.380   6.233   0.527 -0.7650  0.6098 -0.8080
16959TIP3    H272293   0.257   6.311   0.571 -0.6917  2.0380 -2.9979
16960TIP3   OH272294   3.709   4.120  15.060  0.0014  0.2092  0.0962
16960TIP3    H172295   3.625   4.151  15.094 -0.6134 -0.7600 -0.5095
16960TIP3    H272296   3.697   4.116  14.965  0.3420 -1.0399  0.0877
16961TIP3   OH272297   5.589   3.504  16.228  0.2790  0.4266  0.0574
16961TIP3    H172298   5.505   3.460  16.242  0.3804  1.0417  3.4798
16961TIP3    H272299   5.650   3.433  16.206 -0.2296 -0.7460  2.1832
16962TIP3   OH272300   2.322   0.394   1.050 -0.0053 -0.2049 -0.3438
16962TIP3    H172301   2.331   0.483   1.083  0.7115 -0.6511  0.7068
16962TIP3    H272302   2.230   0.386   1.025  0.1137  1.0995 -1.3038
16963TIP3   OH272303   4.476   4.898   2.477  0.4689  0.4649 -0.2350
16963TIP3    H172304   4.457   4.939   2.392 -0.0745 -0.1674 -0.4306
16963TIP3    H272305   4.521   4.966   2.527 -1.2141  1.6416 -0.2221
16964TIP3   OH272306   4.702   1.901  16.702  0.4097 -0.2653 -0.2152
16964TIP3    H172307   4.720   1.876  16.612  0.3035 -1.9384  0.2000
16964TIP3    H272308   4.606   1.899  16.710  0.4561 -2.4767  0.5075
16965TIP3   OH272309   4.537   2.883   0.300  0.8733 -0.8134  0.0127
16965TIP3    H172310   4.613   2.920   0.255 -0.0564  2.0605  0.5723
16965TIP3    H272311   4.540   2.924   0.387 -2.8327  1.8802 -0.8979
16966TIP3   OH272312   3.511   2.160   0.320  0.0453  0.4514 -0.0275
16966TIP3    H172313   3.596   2.182   0.283  0.8902  0.6408  1.9279
16966TIP3    H272314   3.490   2.233   0.378 -0.6271 -0.3944  0.8267
16967TIP3   OH272315   4.610   4.430  14.137 -0.4742 -0.3291  0.4056
16967TIP3    H172316   4.630   4.364  14.203  0.2120 -0.8804 -0.3440
16967TIP3    H272317   4.695   4.463  14.108 -0.3080 -3.4735 -3.6044
16968TIP3   OH272318   2.844   1.816   3.313  0.1673  0.4588 -0.0707
16968TIP3    H172319   2.833   1.904   3.277 -0.8575 -0.4321 -2.1742
16968TIP3    H272320   2.931   1.816   3.352 -0.5943  2.9690  1.8811
16969TIP3   OH272321   0.261   1.543  11.670  0.4918  0.0464  0.5247
16969TIP3    H172322   0.298   1.626  11.701 -1.1120  1.9837 -2.2860
16969TIP3    H272323   0.338   1.490  11.648  1.5621  0.8235  2.1751
16970TIP3   OH272324   1.343   0.239  13.153 -0.4540  0.4587  0.1993
16970TIP3    H172325   1.278   0.302  13.123 -2.5959 -2.1825 -1.1077
16970TIP3    H272326   1.424   0.290  13.159 -2.2909  3.6036  0.6073
16971TIP3   OH272327   5.916   6.471  14.869 -0.0598  0.4626  0.1614
16971TIP3    H172328   5.997   6.438  14.908 -0.8358 -2.3110 -0.3327
16971TIP3    H272329   5.848   6.451  14.934 -0.3792  3.1273  0.7542
16972TIP3   OH272330   4.425   3.326   1.834  0.2428 -0.1226  0.1469
16972TIP3    H172331   4.353   3.320   1.770 -0.5203  2.5579  0.6511
16972TIP3    H272332   4.466   3.239   1.831 -2.6196 -1.5849 -0.6198
16973TIP3   OH272333   2.029   4.114   3.617  0.2937  0.0831 -0.2813
16973TIP3    H172334   1.991   4.064   3.545  0.9806 -0.9367  0.0422
16973TIP3    H272335   1.981   4.084   3.694  0.3596  0.3024 -0.1553
16974TIP3   OH272336   4.242   5.516   4.992 -0.1067  0.3625 -0.6146
16974TIP3    H172337   4.324   5.549   5.028 -0.2312  0.9360 -0.8478
16974TIP3    H272338   4.255   5.519   4.897 -0.6843  1.2027 -0.6712
16975TIP3   OH272339   0.182   3.049  13.526  0.0160  0.2460  0.5309
16975TIP3    H172340   0.125   2.989  13.573 -0.1838 -0.2888 -0.3712
16975TIP3    H272341   0.202   3.005  13.444  2.6930 -0.0979  1.2636
16976TIP3   OH272342   2.361   3.834  14.309 -0.0656  0.7373 -0.3629
16976TIP3    H172343   2.289   3.859  14.251 -1.1271  0.9747  1.0088
16976TIP3    H272344   2.395   3.753  14.271 -1.4148  0.3321 -0.7689
16977TIP3   OH272345   6.051   0.841   5.530  0.7613 -0.2071 -0.2707
16977TIP3    H172346   6.114   0.775   5.562  1.7323 -0.0646 -1.7911
16977TIP3    H272347   5.973   0.828   5.584  2.3811  0.2376  2.3434
16978TIP3   OH272348   5.128   5.392   1.594  0.2177 -0.2825  0.3398
16978TIP3    H172349   5.058   5.375   1.532  0.4799 -1.6922  0.3885
16978TIP3    H272350   5.169   5.473   1.564 -0.8613  0.0778 -0.1938
16979TIP3   OH272351   6.708   2.306   4.491 -0.0584 -0.5838  0.0225
16979TIP3    H172352   6.640   2.254   4.449  0.6923 -0.2902 -1.6369
16979TIP3    H272353   6.669   2.333   4.574 -1.1078 -2.2928  0.1424
16980TIP3   OH272354   6.571   2.174  17.077 -0.3803 -0.3123 -0.4671
16980TIP3    H172355   6.576   2.216  16.991 -1.5372  0.5663 -0.1450
16980TIP3    H272356   6.568   2.080  17.058 -2.1666 -0.1003 -1.5271
16981TIP3   OH272357   3.688   1.208   5.048  0.3271 -0.2960 -0.5981
16981TIP3    H172358   3.592   1.211   5.054  0.3439  0.9076 -0.7611
16981TIP3    H272359   3.716   1.171   5.132 -0.1981  1.2449  0.2855
16982TIP3   OH272360   1.811   4.522  10.983 -0.1137  0.1643  0.1058
16982TIP3    H172361   1.797   4.553  11.073  1.1046 -2.1591  1.2056
16982TIP3    H272362   1.727   4.483  10.958 -0.2836  0.2871  0.4715
16983TIP3   OH272363   5.159   0.799  12.429 -0.1317  0.7757  0.3898
16983TIP3    H172364   5.158   0.893  12.444  2.5271  0.7904  1.0070
16983TIP3    H272365   5.236   0.768  12.478 -0.4675 -1.5849 -0.4528
16984TIP3   OH272366   6.341   1.200   4.993 -0.6921 -0.2958 -0.3951
16984TIP3    H172367   6.323   1.124   5.048  0.0470  0.8348  1.4970
16984TIP3    H272368   6.317   1.275   5.047 -1.9357  0.8355 -2.4184
16985TIP3   OH272369   4.073   0.856   0.226 -0.2074 -1.1155  0.2185
16985TIP3    H172370   3.986   0.815   0.227  0.1691 -1.9686  1.9862
16985TIP3    H272371   4.133   0.783   0.207  0.2594 -0.8989  0.8342
16986TIP3   OH272372   2.077   0.375   4.695  0.0553  0.4383 -0.0360
16986TIP3    H172373   2.010   0.409   4.636 -0.7470  0.8615  1.0742
16986TIP3    H272374   2.028   0.321   4.757  0.9000 -0.1590  0.1311
16987TIP3   OH272375   2.895   6.339  15.853 -0.3823 -0.1312 -0.2182
16987TIP3    H172376   2.987   6.335  15.879 -0.3920 -0.9735 -0.2585
16987TIP3    H272377   2.888   6.419  15.801  0.7286 -0.9087 -1.6545
16988TIP3   OH272378   1.353   6.773  13.132  0.4761  0.0277  0.1850
16988TIP3    H172379   1.418   6.746  13.067  0.4750  1.0238 -0.2462
16988TIP3    H272380   1.366   6.867  13.141  0.1886 -0.0278  1.3254
16989TIP3   OH272381   6.627   5.110   0.960 -0.1770 -0.1805 -0.0091
16989TIP3    H172382   6.642   5.198   0.994  0.8829 -1.3457  2.8613
16989TIP3    H272383   6.555   5.120   0.898 -0.4517  2.5815  0.6212
16990TIP3   OH272384   1.814   2.434  11.503 -0.4644  0.1064  0.1494
16990TIP3    H172385   1.875   2.507  11.517 -0.0549  0.1305 -1.5215
16990TIP3    H272386   1.871   2.358  11.490 -0.8170 -0.1284 -0.0448
16991TIP3   OH272387   5.788   2.167   5.736  0.4712  0.1351 -0.4977
16991TIP3    H172388   5.707   2.204   5.772  1.3230  0.4127  1.2774
16991TIP3    H272389   5.767   2.147   5.645 -0.9203  2.2696 -0.7371
16992TIP3   OH272390   5.080   0.741  14.294 -0.3659  0.0709 -0.3305
16992TIP3    H172391   5.030   0.712  14.217  0.7051 -0.8450 -0.6950
16992TIP3    H272392   5.072   0.837  14.292 -0.4717  0.0516 -1.4965
16993TIP3   OH272393   5.960   2.959  16.864 -0.0782  0.1908  0.2200
16993TIP3    H172394   6.009   2.889  16.906  1.6533 -0.5024 -2.6725
16993TIP3    H272395   6.025   3.027  16.847 -0.0753 -0.4399 -3.0678
16994TIP3   OH272396   4.687   6.794   0.714  0.5772 -0.3180 -0.3121
16994TIP3    H172397   4.753   6.827   0.653  0.9804 -0.3424  0.1081
16994TIP3    H272398   4.654   6.714   0.674  0.7724 -0.2815 -0.5410
16995TIP3   OH272399   4.826   0.866   1.515 -0.6189  0.0392  0.0362
16995TIP3    H172400   4.769   0.933   1.552  1.3711  1.4934  0.6538
16995TIP3    H272401   4.834   0.891   1.422  0.0261  0.6253  0.2395
16996TIP3   OH272402   3.139   1.340   1.540  0.9817  0.9625  0.0154
16996TIP3    H172403   3.194   1.353   1.617  1.1969 -1.5704  0.3692
16996TIP3    H272404   3.059   1.389   1.559  0.8002 -0.0446  2.1099
16997TIP3   OH272405   1.701   1.126  12.484 -0.2296 -0.5256  0.1551
16997TIP3    H172406   1.756   1.142  12.561 -0.2416  1.3423 -0.1733
16997TIP3    H272407   1.686   1.213  12.447 -0.5762 -1.3361 -1.7218
16998TIP3   OH272408   2.677   5.663   1.968 -0.0646  0.6096  0.7124
16998TIP3    H172409   2.727   5.709   1.901 -1.4071  1.0155 -0.0569
16998TIP3    H272410   2.588   5.698   1.959  0.0063  1.9714  3.8490
16999TIP3   OH272411   0.074   2.509  15.457 -0.6709 -0.0207  0.2198
16999TIP3    H172412   0.100   2.553  15.375 -1.4542  0.1229  0.0319
16999TIP3    H272413   0.125   2.429  15.459  0.4124  0.6498  0.3076
17000TIP3   OH272414   2.592   0.601   2.436  0.4993 -0.3810 -0.3688
17000TIP3    H172415   2.622   0.669   2.376 -0.3699 -0.5864 -1.0556
17000TIP3    H272416   2.657   0.601   2.506  0.4437  1.2684 -0.2643
17001TIP3   OH272417   6.704   5.669  15.049  0.2469 -0.2243  0.4474
17001TIP3    H172418   6.733   5.680  15.140 -0.4502 -0.0530  0.6571
17001TIP3    H272419   6.643   5.742  15.035  1.5368  0.6870 -0.6636
17002TIP3   OH272420   6.578   4.919  15.210 -0.4332 -0.4051  0.0215
17002TIP3    H172421   6.589   4.844  15.268  0.6642  0.2270  0.6686
17002TIP3    H272422   6.647   4.910  15.144  0.9038  0.9393  1.1514
17003TIP3   OH272423   1.345   1.755   1.151  0.1322  0.6069 -0.1884
17003TIP3    H172424   1.363   1.845   1.179  0.4224 -0.1719  2.3323
17003TIP3    H272425   1.251   1.743   1.167  0.1119  0.4439 -0.4278
17004TIP3   OH272426   1.482   4.409  13.254  0.4354 -0.4141 -0.1788
17004TIP3    H172427   1.554   4.362  13.295  1.0605  0.3172 -0.4234
17004TIP3    H272428   1.422   4.429  13.326  1.1973  0.2709  0.2743
17005TIP3   OH272429   4.218   1.987   4.611 -0.7764  0.2654 -0.7836
17005TIP3    H172430   4.292   1.957   4.663 -0.2673  3.4571  0.6138
17005TIP3    H272431   4.153   1.917   4.618  0.3552 -0.6431  1.8614
17006TIP3   OH272432   5.805   5.474  14.308  0.3147 -0.4973 -0.1595
17006TIP3    H172433   5.736   5.515  14.359 -3.3957 -2.0884 -3.4268
17006TIP3    H272434   5.822   5.390  14.351 -0.8312 -0.6797 -0.0468
17007TIP3   OH272435   5.725   4.527   4.419  0.0705 -0.1324  0.4871
17007TIP3    H172436   5.697   4.595   4.480  0.5548 -0.4521  1.0792
17007TIP3    H272437   5.745   4.573   4.338  0.2794  0.4140  0.8457
17008TIP3   OH272438   6.624   2.889   1.200  0.4735  0.3762  0.6457
17008TIP3    H172439   6.716   2.913   1.215 -0.1481  2.0765  2.1227
17008TIP3    H272440   6.600   2.934   1.119  1.0463 -0.4577 -0.0046
17009TIP3   OH272441   2.217   0.321  12.434 -0.3714  0.2329  0.8783
17009TIP3    H172442   2.296   0.274  12.409 -1.7106 -1.8690  0.3515
17009TIP3    H272443   2.214   0.314  12.529  0.2001  0.5586  0.9243
17010TIP3   OH272444   2.666   2.356  15.655  0.3583 -0.4839 -0.0763
17010TIP3    H172445   2.724   2.280  15.667 -1.0144 -1.6711 -0.7419
17010TIP3    H272446   2.583   2.329  15.694 -0.3264  0.4666 -0.8394
17011TIP3   OH272447   1.617   4.738   2.793 -0.2820  0.0621  0.4357
17011TIP3    H172448   1.665   4.783   2.723  0.2098 -1.0492  0.0321
17011TIP3    H272449   1.616   4.800   2.865  1.2303  0.3566  0.2412
17012TIP3   OH272450   0.176   2.745  16.265 -0.3493 -0.6850  0.0505
17012TIP3    H172451   0.144   2.682  16.330 -3.4730 -1.4384 -1.9766
17012TIP3    H272452   0.123   2.823  16.280  0.6787  0.0534 -0.0401
17013TIP3   OH272453   4.538   5.231  14.294  0.1730  0.2299 -0.4214
17013TIP3    H172454   4.523   5.321  14.265  1.0250  0.6825  0.4752
17013TIP3    H272455   4.621   5.207  14.253  0.9772  0.5912  0.9217
17014TIP3   OH272456   6.661   1.970  15.133 -0.1707 -0.0485  0.0125
17014TIP3    H172457   6.737   1.964  15.192 -1.4838 -0.2631  1.7789
17014TIP3    H272458   6.669   1.894  15.076 -0.8836 -2.2196  2.5734
17015TIP3   OH272459   2.727   6.744   0.874 -0.4837 -0.6087  0.8718
17015TIP3    H172460   2.706   6.806   0.804  0.8345  2.2449  2.7736
17015TIP3    H272461   2.743   6.661   0.829 -0.7276  0.7878 -2.0478
17016TIP3   OH272462   2.302   6.446   4.974  0.1042  0.2172 -0.6454
17016TIP3    H172463   2.308   6.500   5.053  1.2483 -0.1999 -0.4106
17016TIP3    H272464   2.382   6.393   4.977  0.3754  0.4947 -2.3113
17017TIP3   OH272465   4.114   6.724  16.415 -0.1151  0.1215 -0.3543
17017TIP3    H172466   4.086   6.733  16.324  1.1328 -0.4696 -0.8145
17017TIP3    H272467   4.196   6.773  16.420  0.7560 -1.3238 -0.0133
17018TIP3   OH272468   2.118   1.523  10.944 -0.7616 -0.0582  0.0795
17018TIP3    H172469   2.151   1.509  10.855  0.6739 -0.5904  0.6846
17018TIP3    H272470   2.071   1.442  10.965  1.8900 -1.4680  1.0700
17019TIP3   OH272471   6.535   0.763  12.197  0.2471  0.0283 -0.2693
17019TIP3    H172472   6.479   0.837  12.172  0.9931 -0.0270 -2.3497
17019TIP3    H272473   6.479   0.686  12.190 -0.0907  0.2249  0.2433
17020TIP3   OH272474   5.224   1.743   4.275  0.4962  0.0521  0.7749
17020TIP3    H172475   5.198   1.701   4.192  0.9112 -0.3005  0.8214
17020TIP3    H272476   5.165   1.705   4.340  0.8738 -0.4750  0.8174
17021TIP3   OH272477   3.158   1.379   3.752 -0.0424  0.6965 -0.4080
17021TIP3    H172478   3.205   1.457   3.722  1.3768  0.2211  0.4966
17021TIP3    H272479   3.142   1.329   3.672  0.1933  1.2941 -0.8391
17022TIP3   OH272480   5.877   4.029   5.705 -0.1360  0.3933  0.3708
17022TIP3    H172481   5.800   4.019   5.760  0.2756  1.1227  1.1112
17022TIP3    H272482   5.917   3.943   5.703 -2.6729 -0.9185 -2.7286
17023TIP3   OH272483   4.521   2.309   5.863  0.6492 -0.6337  0.0164
17023TIP3    H172484   4.579   2.271   5.929  0.6599  1.0491  1.0092
17023TIP3    H272485   4.579   2.362   5.808  0.5679 -1.6596 -1.1155
17024TIP3   OH272486   5.049   5.684   2.351  0.1193  0.2932  0.4351
17024TIP3    H172487   4.972   5.664   2.404  0.3695 -0.6343  0.4587
17024TIP3    H272488   5.013   5.719   2.269 -0.2669  1.7483  1.1927
17025TIP3   OH272489   6.476   3.696   4.449  0.6043  0.7749 -0.3543
17025TIP3    H172490   6.508   3.780   4.416 -0.2500  0.5750 -1.7552
17025TIP3    H272491   6.395   3.680   4.401 -0.0856 -0.1060  1.0397
17026TIP3   OH272492   4.774   4.423   5.584  0.1782 -0.3466  1.6321
17026TIP3    H172493   4.813   4.504   5.551 -0.9867 -0.0735  0.8648
17026TIP3    H272494   4.844   4.358   5.577  0.6763  0.2579  0.8209
17027TIP3   OH272495   5.787   1.325  12.156 -0.3887 -0.4126 -0.6172
17027TIP3    H172496   5.729   1.395  12.187  0.2806 -0.3591  0.5784
17027TIP3    H272497   5.756   1.247  12.202  0.2507 -0.4503 -0.2438
17028TIP3   OH272498   4.324   2.491   5.430  0.5250  0.2919 -0.0555
17028TIP3    H172499   4.324   2.531   5.517  1.3143  1.2609 -0.4840
17028TIP3    H272500   4.239   2.448   5.424  0.1889  0.7797  0.9389
17029TIP3   OH272501   6.154   5.313  11.582  0.5716 -0.0144 -0.7337
17029TIP3    H172502   6.218   5.290  11.650 -2.4104 -2.2511  1.5707
17029TIP3    H272503   6.120   5.229  11.552 -2.7409  1.0216 -0.2696
17030TIP3   OH272504   2.046   3.296   4.174  0.3105 -0.5533  0.7155
17030TIP3    H172505   2.004   3.237   4.111 -2.1683  1.9684 -0.1925
17030TIP3    H272506   2.129   3.320   4.133 -0.7162  0.0825 -1.1290
17031TIP3   OH272507   5.907   5.967   4.686 -0.4526  0.1802 -0.2872
17031TIP3    H172508   5.847   5.931   4.751  1.3225 -3.4799 -0.4203
17031TIP3    H272509   5.901   5.907   4.612  0.9665  1.5810 -1.6181
17032TIP3   OH272510   0.080   4.777  15.202  0.1897  0.5880  0.1377
17032TIP3    H172511   0.122   4.858  15.232 -1.1591  1.4883 -0.3221
17032TIP3    H272512   0.042   4.739  15.281  2.0846 -0.4345  0.6319
17033TIP3   OH272513   1.592   4.232   2.076  0.1619  0.2213  0.4450
17033TIP3    H172514   1.604   4.137   2.082 -1.3090 -0.1408 -1.3462
17033TIP3    H272515   1.657   4.269   2.136  0.6569 -1.9123  1.3047
17034TIP3   OH272516   1.554   5.975  12.276  0.0129 -0.1303 -0.3633
17034TIP3    H172517   1.625   6.040  12.281 -0.8031  0.7439  0.2238
17034TIP3    H272518   1.518   5.972  12.364 -0.5812 -0.6732 -0.6193
17035TIP3   OH272519   1.823   0.312   4.829  0.1014  0.2659 -0.0891
17035TIP3    H172520   1.767   0.390   4.822  0.2855  0.5865  1.5535
17035TIP3    H272521   1.761   0.239   4.838 -0.0876  0.6151  1.6842
17036TIP3   OH272522   4.476   2.378   0.132 -0.3271  0.1016  0.9210
17036TIP3    H172523   4.458   2.394   0.224 -2.0897 -0.0605  0.6505
17036TIP3    H272524   4.436   2.292   0.115 -1.6049  0.8921 -0.3545
17037TIP3   OH272525   0.155   0.312   1.812 -0.2534 -0.0338  0.4015
17037TIP3    H172526   0.224   0.370   1.843  0.2303 -0.1455 -0.4220
17037TIP3    H272527   0.198   0.254   1.750 -1.1790  0.2394 -0.5382
17038TIP3   OH272528   0.022   4.810   5.457  0.3481  0.5420  0.1604
17038TIP3    H172529   0.063   4.854   5.532  0.7697  1.8818 -0.8123
17038TIP3    H272530  -0.052   4.867   5.434  1.0658  0.9415 -1.2904
17039TIP3   OH272531   4.326   0.710  10.508 -0.3389  0.1879 -0.1411
17039TIP3    H172532   4.396   0.697  10.444 -0.9123  2.0219 -1.2159
17039TIP3    H272533   4.245   0.706  10.457 -0.9263 -0.2210  0.7935
17040TIP3   OH272534   6.708   0.759  11.984  0.0892  0.0560 -0.3076
17040TIP3    H172535   6.644   0.771  11.914  1.4346 -0.5765 -1.6989
17040TIP3    H272536   6.660   0.781  12.064 -1.9767 -0.8269 -1.2346
17041TIP3   OH272537   1.940   3.775   6.192 -0.1021  0.0125  0.1415
17041TIP3    H172538   1.892   3.780   6.109 -0.1230 -1.1059  0.0700
17041TIP3    H272539   2.026   3.738   6.168 -0.2484 -0.6900  0.6633
17042TIP3   OH272540   2.776   6.468   0.797 -0.2415 -0.0836  0.0853
17042TIP3    H172541   2.783   6.373   0.806 -0.4776 -0.5189 -3.2305
17042TIP3    H272542   2.826   6.503   0.871 -0.2231 -2.7648  1.4352
17043TIP3   OH272543   1.379   1.589  14.172 -0.5147 -0.6339  0.5204
17043TIP3    H172544   1.397   1.597  14.266  1.5756  3.9547 -0.0223
17043TIP3    H272545   1.318   1.660  14.152  1.8222  0.8765 -2.0070
17044TIP3   OH272546   0.599   0.677  15.303 -0.0823  0.2573  0.1010
17044TIP3    H172547   0.662   0.701  15.371  0.5355 -2.4620  0.6106
17044TIP3    H272548   0.513   0.692  15.344  0.2523  1.0307  0.5386
17045TIP3   OH272549   4.107   3.035  12.103  0.1077 -0.3571 -0.1039
17045TIP3    H172550   4.108   2.941  12.084  0.9183  0.0539 -2.4384
17045TIP3    H272551   4.080   3.076  12.021 -2.0576  1.4244  1.3557
17046TIP3   OH272552   0.835   1.002  11.645  0.1504 -0.3359  0.5989
17046TIP3    H172553   0.768   1.069  11.637  0.4268  0.1543  2.1618
17046TIP3    H272554   0.803   0.930  11.592 -1.0892  0.2868  0.4639
17047TIP3   OH272555   0.697   4.645  15.670  0.2498  0.0496 -0.0462
17047TIP3    H172556   0.750   4.678  15.598  1.3261  0.3917  0.8749
17047TIP3    H272557   0.607   4.670  15.647  0.7041  1.1383 -0.7219
17048TIP3   OH272558   5.187   3.420   1.266 -1.1672 -0.5489  0.1309
17048TIP3    H172559   5.171   3.511   1.292 -3.3595 -1.3389  1.9867
17048TIP3    H272560   5.279   3.417   1.242 -0.8797  2.0202  0.6412
17049TIP3   OH272561   0.835   1.049   1.676  0.0738  0.4373  0.2055
17049TIP3    H172562   0.874   0.971   1.717  0.6262 -1.2366 -3.1509
17049TIP3    H272563   0.909   1.091   1.632 -0.8299  0.9147 -0.8625
17050TIP3   OH272564   5.758   4.232   0.152 -0.0725  0.1327 -0.5684
17050TIP3    H172565   5.786   4.190   0.071  0.2828 -0.6392 -0.0596
17050TIP3    H272566   5.694   4.297   0.125 -1.8750 -1.8035 -1.2673
17051TIP3   OH272567   2.588   0.014   5.070  0.4341  0.4938  0.7546
17051TIP3    H172568   2.664  -0.009   5.017 -0.2945  0.5251 -0.3185
17051TIP3    H272569   2.574   0.107   5.054  0.2106  0.5037  0.9986
17052TIP3   OH272570   0.183   3.562   1.650 -0.2351  0.2030 -0.1891
17052TIP3    H172571   0.210   3.481   1.607  0.9536  0.3122  0.3247
17052TIP3    H272572   0.223   3.559   1.737 -2.8621 -0.1566  1.0867
17053TIP3   OH272573   4.063   1.225   3.187  0.0580 -0.3448 -0.4721
17053TIP3    H172574   3.999   1.157   3.207  1.1056 -1.3291 -0.4131
17053TIP3    H272575   4.073   1.222   3.092 -0.8714  0.6558 -0.6316
17054TIP3   OH272576   4.024   6.407  12.091 -0.3168 -0.4419  0.2497
17054TIP3    H172577   4.006   6.371  12.004 -0.4171 -0.2537  0.1904
17054TIP3    H272578   3.982   6.346  12.151 -2.1096  0.5109  0.0717
17055TIP3   OH272579   6.770   3.691  11.959 -0.9352  0.3198  0.5199
17055TIP3    H172580   6.676   3.677  11.972 -0.6159  0.0303  2.8182
17055TIP3    H272581   6.813   3.638  12.025  0.8376  1.2422  0.1976
17056TIP3   OH272582   6.674   3.068   3.430 -0.4585  0.0662 -0.1078
17056TIP3    H172583   6.581   3.055   3.408 -0.1795 -3.6339  0.2026
17056TIP3    H272584   6.716   3.089   3.346 -1.3415  0.1025 -0.5502
17057TIP3   OH272585   3.801   1.873   2.577  0.2580 -0.4001  0.4585
17057TIP3    H172586   3.761   1.864   2.664  0.5399  0.1562  0.6442
17057TIP3    H272587   3.852   1.792   2.566 -1.0743 -1.2240  0.1294
17058TIP3   OH272588   5.916   4.515   1.706 -0.1964  0.2610 -0.1296
17058TIP3    H172589   5.968   4.594   1.716 -0.0858  0.1731 -0.0032
17058TIP3    H272590   5.832   4.545   1.671  0.0701  0.3629 -0.7018
17059TIP3   OH272591   5.612   0.892  13.375  0.1560  0.0500  0.0328
17059TIP3    H172592   5.649   0.976  13.402 -0.6007  0.4002  0.0017
17059TIP3    H272593   5.673   0.827  13.411  0.8723  0.6075 -0.1374
17060TIP3   OH272594   0.962   4.533  12.931  0.2005  0.0333  0.0111
17060TIP3    H172595   1.006   4.474  12.992 -0.6275 -1.7935 -1.0689
17060TIP3    H272596   1.025   4.603  12.915  1.6769 -1.1348  0.4917
17061TIP3   OH272597   4.564   2.996   1.550 -0.0717 -0.5522  0.1335
17061TIP3    H172598   4.514   3.063   1.503 -0.2338  0.2795  1.4632
17061TIP3    H272599   4.655   3.022   1.539 -0.2127  0.9619  2.1799
17062TIP3   OH272600   0.358   6.037   0.077 -0.5546 -0.1934 -0.1252
17062TIP3    H172601   0.435   5.981   0.068  0.0128  0.7298 -1.2783
17062TIP3    H272602   0.375   6.087   0.157 -0.0358 -0.1392 -0.2620
17063TIP3   OH272603   2.962   1.797   4.167  0.1272  0.5468 -0.6499
17063TIP3    H172604   2.926   1.757   4.087  0.2156 -0.0959 -0.3738
17063TIP3    H272605   3.057   1.785   4.158  0.3846  2.7901 -1.6782
17064TIP3   OH272606   6.043   4.614  13.383  0.3445 -0.4958  0.1737
17064TIP3    H172607   6.067   4.610  13.290 -0.7853 -1.8587 -0.1180
17064TIP3    H272608   5.957   4.657  13.383  0.5090 -0.1685  0.6244
17065TIP3   OH272609   6.314   5.998   4.164  0.4666 -0.0273 -0.2103
17065TIP3    H172610   6.315   5.902   4.161  2.0293 -0.1095  1.4051
17065TIP3    H272611   6.235   6.019   4.215  0.2906 -0.4712 -0.2958
17066TIP3   OH272612   1.020   2.022  16.775 -0.5930  0.1469  0.3306
17066TIP3    H172613   1.002   1.993  16.686 -1.6107  0.1258  0.5348
17066TIP3    H272614   0.934   2.035  16.814 -0.1807  2.3069  0.6252
17067TIP3   OH272615   2.871   4.130   4.323  0.0921 -0.4399 -0.1207
17067TIP3    H172616   2.855   4.098   4.412 -0.2760 -0.6538 -0.2598
17067TIP3    H272617   2.814   4.206   4.314  0.5866 -0.0545  0.0352
17068TIP3   OH272618   2.567   0.712  11.242  0.1016  0.0659  0.3004
17068TIP3    H172619   2.483   0.709  11.288 -0.5027  1.1615 -0.6586
17068TIP3    H272620   2.566   0.635  11.185  0.1817 -0.4493  0.9846
17069TIP3   OH272621   4.441   3.376   4.392  0.3270 -0.3976  0.2024
17069TIP3    H172622   4.361   3.330   4.415 -0.3529  0.7743  0.2603
17069TIP3    H272623   4.480   3.324   4.322  1.1340 -2.6737  2.2093
17070TIP3   OH272624   0.876   5.076   5.085 -0.0636  0.2853 -0.3669
17070TIP3    H172625   0.808   5.025   5.127 -1.5030  1.4110 -1.2424
17070TIP3    H272626   0.945   5.013   5.065 -0.3305 -0.6760  1.5324
17071TIP3   OH272627   1.740   0.416   4.128  0.2867 -0.1211 -0.1341
17071TIP3    H172628   1.752   0.497   4.078  1.3591 -0.3838 -0.3361
17071TIP3    H272629   1.827   0.377   4.130 -0.2791 -1.4402 -0.3210
17072TIP3   OH272630   1.410   6.265  14.202  0.1391 -0.2792 -0.4931
17072TIP3    H172631   1.362   6.343  14.231 -0.1353 -0.7438  0.3459
17072TIP3    H272632   1.474   6.250  14.272 -0.6297 -1.5100 -0.0188
17073TIP3   OH272633   4.700   5.918  15.514 -0.0749  0.5601 -0.3767
17073TIP3    H172634   4.781   5.937  15.560  0.1563 -0.4546 -0.3298
17073TIP3    H272635   4.727   5.899  15.424 -0.2010 -0.1209 -0.2812
17074TIP3   OH272636   4.224   4.364  13.049 -0.1026 -0.4495 -0.3469
17074TIP3    H172637   4.298   4.425  13.054 -0.0516 -0.4693 -0.8072
17074TIP3    H272638   4.264   4.278  13.048 -0.1817 -0.5071  0.4486
17075TIP3   OH272639   2.794   0.693  16.103  0.5310  0.1309 -0.1614
17075TIP3    H172640   2.842   0.715  16.024  1.9714 -2.3807 -0.0737
17075TIP3    H272641   2.789   0.776  16.152  2.6358  0.9999 -1.2906
17076TIP3   OH272642   4.492   4.014  14.899 -0.5179 -0.5241 -0.0807
17076TIP3    H172643   4.488   3.926  14.861  2.5726 -0.8584  0.1034
17076TIP3    H272644   4.420   4.016  14.961 -0.9728 -2.7747 -0.4563
17077TIP3   OH272645   1.132   2.695   2.907 -0.6080 -0.3170  0.5782
17077TIP3    H172646   1.214   2.735   2.936 -0.3225  1.4620 -2.2673
17077TIP3    H272647   1.066   2.725   2.970  0.5470  0.0896  1.6148
17078TIP3   OH272648   0.441   1.371   5.316  0.2860 -0.3931  0.1698
17078TIP3    H172649   0.487   1.445   5.276 -1.5275  1.5588  1.5019
17078TIP3    H272650   0.508   1.303   5.324  3.0954  2.3367  2.2921
17079TIP3   OH272651   5.391   5.953   0.630  0.3323 -1.0051  0.4511
17079TIP3    H172652   5.471   6.005   0.631  1.0155 -2.0233  0.3658
17079TIP3    H272653   5.392   5.905   0.712 -0.2890 -0.8862  0.5316
17080TIP3   OH272654   2.891   4.289   0.827 -0.1833  0.1186  0.0731
17080TIP3    H172655   2.842   4.318   0.750 -0.3731  1.3992  0.6594
17080TIP3    H272656   2.825   4.276   0.895  0.2935  2.8009  1.1608
17081TIP3   OH272657   0.427   2.276   3.509 -0.2684 -0.1456 -0.8399
17081TIP3    H172658   0.362   2.211   3.485  0.9741 -1.4227 -0.8990
17081TIP3    H272659   0.433   2.271   3.605  0.9520 -1.2970 -0.9481
17082TIP3   OH272660   4.821   5.870  10.279  0.8968  0.0392 -0.3359
17082TIP3    H172661   4.849   5.887  10.189 -1.0753  0.2698 -0.9577
17082TIP3    H272662   4.797   5.956  10.314 -1.2447 -0.3379 -0.6886
17083TIP3   OH272663   1.467   0.353  15.801  0.3389 -0.4915 -0.8675
17083TIP3    H172664   1.521   0.337  15.878 -1.0165  1.1856  0.5201
17083TIP3    H272665   1.512   0.423  15.754  0.5160 -0.6425 -0.9242
17084TIP3   OH272666   6.074   0.035   2.211  0.2760 -0.1843  0.1868
17084TIP3    H172667   6.140   0.100   2.188 -0.4812  0.8015  0.7127
17084TIP3    H272668   6.118  -0.023   2.272  0.9211 -0.0797 -0.1635
17085TIP3   OH272669   0.608   4.852  16.357  0.0780 -0.0038 -0.3416
17085TIP3    H172670   0.680   4.849  16.420 -0.4021 -0.7839  0.1916
17085TIP3    H272671   0.577   4.942  16.360  0.1957  0.0185  0.3859
17086TIP3   OH272672   4.094   6.538   0.017 -0.2931  0.2369  0.0778
17086TIP3    H172673   4.149   6.578  -0.050 -0.5490 -1.8827 -1.5199
17086TIP3    H272674   4.030   6.486  -0.032 -1.0167 -0.7547  1.9432
17087TIP3   OH272675   5.004   4.207   0.696 -0.2713  0.3746 -0.3130
17087TIP3    H172676   4.989   4.264   0.621 -1.4206 -1.4505 -1.5503
17087TIP3    H272677   5.059   4.137   0.662  2.2340  1.3245  1.5047
17088TIP3   OH272678   6.217   2.467  16.947 -0.0846 -0.0118 -0.3019
17088TIP3    H172679   6.278   2.397  16.925 -2.2598 -1.5778 -1.7765
17088TIP3    H272680   6.217   2.469  17.043  1.1276 -0.9747 -0.2481
17089TIP3   OH272681   4.731   4.951  12.804 -0.2468 -0.4448 -0.1151
17089TIP3    H172682   4.753   5.020  12.865 -0.2503 -2.0874  1.8606
17089TIP3    H272683   4.649   4.980  12.763 -1.2030 -0.0118  1.9655
17090TIP3   OH272684   1.927   3.148   1.403 -0.1621  0.3644 -0.5177
17090TIP3    H172685   1.880   3.150   1.487  2.3900 -1.5397  1.1016
17090TIP3    H272686   2.019   3.157   1.427  0.6858 -0.6334 -3.1059
17091TIP3   OH272687   1.591   1.480  15.768 -0.0994 -0.9396  0.1052
17091TIP3    H172688   1.599   1.456  15.676 -1.0286  0.5408 -0.3851
17091TIP3    H272689   1.682   1.486  15.799  0.3234  0.6263 -1.2992
17092TIP3   OH272690   5.748   0.325  13.128  0.5517 -0.3367 -0.2478
17092TIP3    H172691   5.735   0.380  13.206  1.5043  0.1790 -0.4402
17092TIP3    H272692   5.665   0.278  13.119 -0.6374  1.6858 -0.5446
17093TIP3   OH272693   5.627   4.317  16.777 -0.1028 -0.2836 -0.7480
17093TIP3    H172694   5.665   4.250  16.721  1.1704 -0.5085  0.3210
17093TIP3    H272695   5.553   4.273  16.820 -0.2257 -0.5288 -1.2064
17094TIP3   OH272696   0.260   6.057  14.530  0.4225 -0.4948  0.0347
17094TIP3    H172697   0.271   6.033  14.438 -1.4396 -0.7247 -0.1579
17094TIP3    H272698   0.282   5.977  14.578 -0.2129 -0.8926 -0.3182
17095TIP3   OH272699   6.302   0.845   2.065 -0.5698 -0.0927 -0.4311
17095TIP3    H172700   6.343   0.764   2.035 -1.2192 -0.0792 -1.4103
17095TIP3    H272701   6.338   0.860   2.153  0.2191 -0.9676 -0.5930
17096TIP3   OH272702   1.968   6.322   3.657  0.7432  0.3371 -0.2186
17096TIP3    H172703   2.024   6.245   3.668  0.2540  0.0932  0.7387
17096TIP3    H272704   1.880   6.285   3.647  0.4297  0.7728  0.8164
17097TIP3   OH272705   5.515   1.579   1.443 -0.6807 -0.5738  0.5935
17097TIP3    H172706   5.595   1.560   1.394 -0.3817 -0.9707  1.2292
17097TIP3    H272707   5.445   1.566   1.380 -0.1499  2.0949 -0.6782
17098TIP3   OH272708   1.895   1.219   3.873 -0.3174  0.5365  0.0637
17098TIP3    H172709   1.819   1.175   3.835  1.2565 -2.5570  0.1843
17098TIP3    H272710   1.946   1.248   3.798 -0.8463  1.2337 -0.0352
17099TIP3   OH272711   6.663   0.602   6.231  0.5211 -0.3753  0.4611
17099TIP3    H172712   6.758   0.600   6.241  0.7265 -0.1995 -1.1983
17099TIP3    H272713   6.639   0.693   6.249  0.9659  0.1179 -1.2937
17100TIP3   OH272714   2.801   5.662  15.479  0.2145 -0.1535  0.2506
17100TIP3    H172715   2.832   5.673  15.569 -0.3791  0.3571  0.3949
17100TIP3    H272716   2.872   5.698  15.424  0.9250 -1.1685  0.4630
17101TIP3   OH272717   5.199   4.669  13.008 -0.1141 -0.2633 -0.0578
17101TIP3    H172718   5.112   4.705  12.987 -0.7592 -1.8162 -0.1402
17101TIP3    H272719   5.212   4.600  12.943 -0.0314 -1.9169  1.6581
17102TIP3   OH272720   2.587   0.937  13.961  0.2141 -0.7967 -0.2869
17102TIP3    H172721   2.554   1.027  13.957  0.4741 -0.5968  1.2879
17102TIP3    H272722   2.682   0.947  13.958  0.3023 -0.8712  1.2895
17103TIP3   OH272723   1.663   0.310  14.261  0.6862  0.1665 -0.2215
17103TIP3    H172724   1.753   0.286  14.241  1.0260  2.3850 -1.7420
17103TIP3    H272725   1.647   0.389  14.208 -1.8948  0.2751  0.5881
17104TIP3   OH272726   6.706   3.728   3.396 -0.2193 -0.4725  0.2625
17104TIP3    H172727   6.713   3.713   3.491  0.5538 -0.5778  0.2013
17104TIP3    H272728   6.797   3.729   3.366 -0.4585 -0.3900 -0.4742
17105TIP3   OH272729   4.453   4.958  11.410 -0.3540  0.7181 -0.2103
17105TIP3    H172730   4.424   4.871  11.436  0.7661  0.0747 -1.0188
17105TIP3    H272731   4.382   5.016  11.437 -1.6889 -0.5889 -0.7414
17106TIP3   OH272732   4.153   0.829   4.541  0.8304  0.5167  0.2041
17106TIP3    H172733   4.073   0.778   4.549  0.4281  0.9845 -0.7400
17106TIP3    H272734   4.217   0.769   4.502  0.1764  0.8862 -1.5089
17107TIP3   OH272735   0.595   1.527   0.188 -0.0305  0.2740 -0.1347
17107TIP3    H172736   0.527   1.572   0.138  0.6111  0.4697 -0.8637
17107TIP3    H272737   0.671   1.585   0.183  0.6969 -0.6942 -0.7650
17108TIP3   OH272738   6.112   4.440   3.223 -0.0304 -0.0647  0.6459
17108TIP3    H172739   6.072   4.477   3.301  1.9572 -0.2294  1.8070
17108TIP3    H272740   6.168   4.369   3.255 -0.6904 -1.4671 -1.1405
17109TIP3   OH272741   1.335   1.142  15.327 -0.3968  1.0033 -0.3089
17109TIP3    H172742   1.277   1.066  15.328  1.6559 -0.6799 -0.4513
17109TIP3    H272743   1.342   1.166  15.235  0.5848 -0.0522 -0.5428
17110TIP3   OH272744   3.481   3.790   5.334 -0.1754 -0.1905 -0.0527
17110TIP3    H172745   3.550   3.724   5.340 -1.0190 -0.9981  1.2050
17110TIP3    H272746   3.433   3.781   5.416 -0.6628  1.6149 -0.1054
17111TIP3   OH272747   0.725   6.511   2.956 -0.0551  0.2247 -0.1899
17111TIP3    H172748   0.726   6.571   2.882  1.5406 -0.8931 -1.1509
17111TIP3    H272749   0.808   6.526   3.001 -0.3268 -0.1790  0.4670
17112TIP3   OH272750   4.454   2.181  16.648  0.0302 -0.5922  0.1062
17112TIP3    H172751   4.395   2.257  16.651  0.2087 -0.4742  0.6040
17112TIP3    H272752   4.406   2.112  16.693 -0.1876 -0.8219 -0.4640
17113TIP3   OH272753   0.868   3.453   2.119  0.3273  0.8122 -0.3809
17113TIP3    H172754   0.882   3.429   2.028 -1.4830 -1.3031 -0.1806
17113TIP3    H272755   0.843   3.371   2.162 -1.4842  2.2100  1.4305
17114TIP3   OH272756   6.161   1.702  13.542  0.2289 -0.0065 -0.2889
17114TIP3    H172757   6.107   1.697  13.620  2.7618  1.1779  1.6730
17114TIP3    H272758   6.139   1.786  13.502  1.9018  1.4681  1.6534
17115TIP3   OH272759   1.735   5.665  11.096 -0.0711  0.2584  0.1537
17115TIP3    H172760   1.659   5.715  11.066  0.6344  0.9763 -0.4925
17115TIP3    H272761   1.796   5.668  11.022  0.0850 -1.3836  0.1921
17116TIP3   OH272762   5.699   3.698  12.068 -0.3366 -0.0439  0.0809
17116TIP3    H172763   5.685   3.650  12.150 -1.9209 -2.6640 -1.5608
17116TIP3    H272764   5.610   3.718  12.037  0.1558 -0.1962 -1.5277
17117TIP3   OH272765   5.452   0.073   5.804  0.1685  0.1760 -0.0877
17117TIP3    H172766   5.374   0.022   5.828  1.0251 -0.9632  0.3348
17117TIP3    H272767   5.466   0.131   5.879  0.7149 -0.8260  0.6069
17118TIP3   OH272768   6.146   5.658   1.917  0.1239 -0.0724  0.5260
17118TIP3    H172769   6.096   5.615   1.987 -0.2746  0.3726  0.5229
17118TIP3    H272770   6.216   5.705   1.962  0.0916 -0.0912  0.5952
17119TIP3   OH272771   4.572   3.760   5.645  0.2223 -0.1359  0.0293
17119TIP3    H172772   4.660   3.747   5.680  0.7879 -2.5039 -2.0034
17119TIP3    H272773   4.572   3.851   5.615  1.2131  0.5506  1.8777
17120TIP3   OH272774   3.643   0.162   0.285 -0.1687 -0.1925 -0.6379
17120TIP3    H172775   3.690   0.107   0.222 -0.4753 -1.4797  0.2312
17120TIP3    H272776   3.657   0.119   0.369  0.0138  1.3616  0.1485
17121TIP3   OH272777   5.419   1.695   1.050  0.0419 -0.0211 -0.0120
17121TIP3    H172778   5.408   1.601   1.036  3.2516 -0.6133  0.6067
17121TIP3    H272779   5.394   1.734   0.966 -1.0523 -1.4167 -0.3902
17122TIP3   OH272780   5.244   4.680  12.439 -0.0195  0.2098 -0.4665
17122TIP3    H172781   5.306   4.745  12.471  1.1048 -0.2648 -1.5784
17122TIP3    H272782   5.299   4.611  12.401 -1.1660 -1.4436  0.7440
17123TIP3   OH272783   1.904   5.549   3.799 -0.2908 -0.1640  0.0542
17123TIP3    H172784   1.953   5.618   3.845  0.6754 -2.5495  2.9256
17123TIP3    H272785   1.815   5.554   3.835 -0.7881  0.8033 -1.2441
17124TIP3   OH272786   3.045   2.566   5.915  0.0657  0.3269 -0.6030
17124TIP3    H172787   3.029   2.511   5.992  0.2035  1.1464  0.0205
17124TIP3    H272788   3.140   2.572   5.909  0.0914 -0.5607 -1.4547
17125TIP3   OH272789   6.607   1.955   2.687  0.4311 -0.4197 -0.3674
17125TIP3    H172790   6.514   1.942   2.706 -0.0040  0.3874 -1.7846
17125TIP3    H272791   6.614   2.047   2.664  0.7757 -1.2110 -4.1823
17126TIP3   OH272792   5.688   2.790   4.199  0.0349 -0.1454 -0.5961
17126TIP3    H172793   5.704   2.733   4.274  0.9726  1.9712  0.9284
17126TIP3    H272794   5.594   2.804   4.198 -0.6384 -3.7367 -2.6751
17127TIP3   OH272795   1.370   6.643   5.459 -0.0616  0.4579 -0.5859
17127TIP3    H172796   1.371   6.559   5.412  0.1018 -0.9444  1.7485
17127TIP3    H272797   1.309   6.629   5.531  0.9823  1.8961  0.6221
17128TIP3   OH272798   5.166   4.628   4.018 -0.1656  0.4442  0.5238
17128TIP3    H172799   5.076   4.603   4.039 -1.1465  1.8304 -1.5896
17128TIP3    H272800   5.206   4.549   3.984 -2.0383  0.6521 -2.6022
17129TIP3   OH272801   4.225   4.279  16.621  0.2580 -0.4833  0.1685
17129TIP3    H172802   4.312   4.277  16.581  0.5590 -0.1148  0.7860
17129TIP3    H272803   4.227   4.207  16.684 -0.9356 -2.4416 -1.8736
17130TIP3   OH272804   2.594   5.128  14.818 -0.4253  0.6288  0.4461
17130TIP3    H172805   2.632   5.198  14.870 -1.4585 -0.4702  2.7891
17130TIP3    H272806   2.666   5.099  14.761  0.9914  1.3728  1.7884
17131TIP3   OH272807   3.681   4.460   2.665 -0.1585 -0.1073 -0.0249
17131TIP3    H172808   3.651   4.549   2.644 -0.5772  0.2364  1.8631
17131TIP3    H272809   3.600   4.409   2.671  0.1496 -1.3087 -3.5599
17132TIP3   OH272810   3.282   2.874   2.358 -0.4062 -0.1793 -0.1098
17132TIP3    H172811   3.236   2.881   2.274 -0.6421  0.1627  0.0447
17132TIP3    H272812   3.212   2.860   2.422 -0.6420  2.9711  0.5046
17133TIP3   OH272813   1.137   6.385  16.247  0.3135  0.1124 -0.0681
17133TIP3    H172814   1.125   6.313  16.185  0.7533 -0.1359  0.1356
17133TIP3    H272815   1.063   6.443  16.229  0.5279  0.1293 -0.9383
17134TIP3   OH272816   3.221   2.791  10.507  0.3755 -0.4132 -0.4311
17134TIP3    H172817   3.144   2.750  10.547 -0.8673  0.8896 -1.3847
17134TIP3    H272818   3.234   2.741  10.426  0.6612 -0.7690 -0.1651
17135TIP3   OH272819   6.468   6.494  13.153  0.1787 -0.5539 -0.0240
17135TIP3    H172820   6.384   6.449  13.141  0.6460 -1.0885 -1.4946
17135TIP3    H272821   6.473   6.511  13.247 -2.4118  1.1339 -0.0998
17136TIP3   OH272822   2.852   5.866  12.514 -0.2833 -0.2529  0.8310
17136TIP3    H172823   2.803   5.818  12.447 -1.2907 -0.6457  1.8108
17136TIP3    H272824   2.855   5.805  12.588  0.5563  0.2829  1.2447
17137TIP3   OH272825   5.243   3.006  11.792  0.1683  0.0465 -0.1502
17137TIP3    H172826   5.225   2.978  11.702 -1.6255 -2.3266  0.8313
17137TIP3    H272827   5.207   3.094  11.798  2.6806  1.3822 -2.3957
17138TIP3   OH272828   4.377   4.481   1.146  0.6316  0.3757  0.5836
17138TIP3    H172829   4.343   4.405   1.192  0.1867 -0.7954 -1.5672
17138TIP3    H272830   4.308   4.547   1.155 -0.8121 -0.8650 -0.9335
17139TIP3   OH272831   6.008   1.270   3.966  0.6244  0.3386  0.1494
17139TIP3    H172832   5.959   1.228   4.036 -0.1622 -0.3853 -0.8097
17139TIP3    H272833   6.082   1.211   3.950  1.3445  0.9853  0.9950
17140TIP3   OH272834   1.941   5.492   4.197 -0.5800 -0.2088 -0.3442
17140TIP3    H172835   2.028   5.464   4.168  0.3017  1.5081  0.5218
17140TIP3    H272836   1.942   5.587   4.189 -1.7147 -0.0013  1.4256
17141TIP3   OH272837   4.129   1.240   0.535 -0.0836  0.2035  0.3871
17141TIP3    H172838   4.189   1.182   0.487 -0.5922 -1.2221  1.3996
17141TIP3    H272839   4.184   1.312   0.566  1.1717 -1.1506  1.4274
17142TIP3   OH272840   3.399   0.757  17.004 -0.3570 -0.1483  0.3224
17142TIP3    H172841   3.341   0.682  16.991  0.0437  0.0441 -3.7333
17142TIP3    H272842   3.352   0.831  16.965  1.8204  0.3507 -1.5555
17143TIP3   OH272843   2.806   6.024  12.044  0.5837  0.2344 -0.3535
17143TIP3    H172844   2.875   5.978  12.090  0.0222 -0.6303 -0.3576
17143TIP3    H272845   2.792   5.975  11.964  2.1595  2.2156 -1.9577
17144TIP3   OH272846   6.687   0.513  12.388  0.2470 -0.0749 -0.0850
17144TIP3    H172847   6.762   0.455  12.398  0.7594  0.1658 -2.0573
17144TIP3    H272848   6.668   0.512  12.294 -2.2747 -0.1775  0.3616
17145TIP3   OH272849   4.714   4.086   6.019  0.1464 -0.3135  0.4885
17145TIP3    H172850   4.663   4.148   6.071  1.3407 -0.8718  2.4420
17145TIP3    H272851   4.663   4.005   6.021  0.1121 -0.2881  0.6643
17146TIP3   OH272852   3.623   0.434   0.332 -0.3793 -0.1606 -0.1243
17146TIP3    H172853   3.614   0.343   0.302 -2.2461  0.2380 -0.9460
17146TIP3    H272854   3.564   0.440   0.407 -1.0736  0.6133 -0.7145
17147TIP3   OH272855   1.679   3.238   6.112  0.3956  0.2234  0.2563
17147TIP3    H172856   1.630   3.233   6.195 -0.6117  0.7429 -0.2855
17147TIP3    H272857   1.611   3.254   6.046  1.0472 -1.3316 -0.8299
17148TIP3   OH272858   0.285   2.091   0.755  0.4314 -0.6837 -0.0208
17148TIP3    H172859   0.200   2.113   0.792  0.5670 -0.4626  0.1613
17148TIP3    H272860   0.305   2.004   0.790 -0.0291 -1.0370 -0.6093
17149TIP3   OH272861   1.563   0.153  15.042  0.0182  0.6962  0.4132
17149TIP3    H172862   1.492   0.217  15.034 -1.0975 -0.5820 -0.1927
17149TIP3    H272863   1.547   0.109  15.125 -0.4396 -0.2097 -0.1411
17150TIP3   OH272864   2.729   2.272   0.506  0.0871  0.0565  0.7634
17150TIP3    H172865   2.672   2.198   0.523 -1.5456  1.2525  0.7223
17150TIP3    H272866   2.790   2.241   0.439 -0.4976 -1.2596  0.8243
17151TIP3   OH272867   1.208   3.902   1.252  0.0202 -0.2748  0.0890
17151TIP3    H172868   1.150   3.861   1.316  0.3125  1.6018  1.6428
17151TIP3    H272869   1.244   3.978   1.298  1.9443 -0.0962 -1.5954
17152TIP3   OH272870   1.245   2.889  12.537  0.0493 -0.6290 -0.0759
17152TIP3    H172871   1.204   2.902  12.452 -0.6552 -1.9420  0.0346
17152TIP3    H272872   1.211   2.961  12.591  0.5585  0.2539 -0.8897
17153TIP3   OH272873   3.890   4.392  15.413  0.2461 -0.0992 -0.3019
17153TIP3    H172874   3.896   4.458  15.344 -0.3071 -0.1232 -0.3757
17153TIP3    H272875   3.893   4.308  15.366  2.8792 -0.2138 -0.0916
17154TIP3   OH272876   5.902   5.987   3.638  0.6417 -0.1794  0.1972
17154TIP3    H172877   5.897   6.082   3.625 -1.5585 -0.1108  1.2068
17154TIP3    H272878   5.918   5.952   3.551  1.1886  1.0865 -0.2376
17155TIP3   OH272879   1.432   5.236   1.538  0.3456 -0.9428 -0.1056
17155TIP3    H172880   1.466   5.315   1.581 -2.2232  0.1635  0.0685
17155TIP3    H272881   1.427   5.172   1.609 -2.1041  0.3004  0.9484
17156TIP3   OH272882   5.841   4.217  17.063 -0.4170 -0.0376  0.5008
17156TIP3    H172883   5.888   4.182  16.987  1.2021  3.6824 -0.4483
17156TIP3    H272884   5.751   4.229  17.032 -0.3831 -0.8701  0.0369
17157TIP3   OH272885   0.265   4.743  12.044 -0.1068 -0.6554 -0.6108
17157TIP3    H172886   0.203   4.670  12.041  0.4296 -1.5886  3.9557
17157TIP3    H272887   0.216   4.814  12.084  0.5049  0.2221 -1.3759
17158TIP3   OH272888   3.287   5.892  13.223 -0.7716  0.5848  0.8465
17158TIP3    H172889   3.331   5.807  13.222 -1.3736  0.2716  0.9759
17158TIP3    H272890   3.339   5.944  13.284 -0.3872  0.3216  0.7529
17159TIP3   OH272891   3.612   1.433  14.457 -0.4792  0.2463 -0.2975
17159TIP3    H172892   3.613   1.340  14.482  0.5140  0.0660 -0.8956
17159TIP3    H272893   3.531   1.467  14.492  0.5623 -0.0783  2.7123
17160TIP3   OH272894   2.369   1.893  14.560 -0.4936  0.7535  0.1130
17160TIP3    H172895   2.465   1.890  14.556 -0.4141 -1.9746  1.2557
17160TIP3    H272896   2.344   1.955  14.492  2.0676  1.2646 -0.4916
17161TIP3   OH272897   1.836   4.706  14.246  0.0268 -0.5222 -0.0016
17161TIP3    H172898   1.921   4.748  14.231  0.3658  0.3795  3.3863
17161TIP3    H272899   1.785   4.773  14.292 -0.8660 -2.4869  2.0575
17162TIP3   OH272900   4.201   4.314   2.297 -0.5205  0.7178 -0.1525
17162TIP3    H172901   4.237   4.276   2.377 -3.4696  1.2453  1.5468
17162TIP3    H272902   4.270   4.301   2.232  1.2646 -1.4086  1.9762
17163TIP3   OH272903   6.699   4.082   1.750 -0.1226  0.3663  0.0146
17163TIP3    H172904   6.604   4.070   1.745 -0.1739 -0.1473  1.8148
17163TIP3    H272905   6.735   4.010   1.698 -0.6888 -0.3685  0.6217
17164TIP3   OH272906   6.082   6.078   2.491 -0.4171  0.1457  0.3400
17164TIP3    H172907   6.074   5.998   2.439 -2.0912 -0.7950  1.9433
17164TIP3    H272908   6.069   6.148   2.427  3.1995 -0.6168 -1.5215
17165TIP3   OH272909   4.513   0.885  11.538 -0.1329  0.3347  0.9090
17165TIP3    H172910   4.437   0.923  11.584 -0.3853  2.7812 -1.2669
17165TIP3    H272911   4.580   0.954  11.543  1.7063 -1.4078  1.9521
17166TIP3   OH272912   3.973   4.544   6.071 -0.4088 -0.0669  0.5831
17166TIP3    H172913   3.880   4.530   6.054 -0.5903  0.2771  1.2470
17166TIP3    H272914   3.975   4.604   6.146  0.3488  0.8784 -0.1621
17167TIP3   OH272915   5.920   6.535   0.249 -0.3725  0.2045 -0.3349
17167TIP3    H172916   5.889   6.445   0.257  0.0722  0.1000  0.3243
17167TIP3    H272917   5.960   6.540   0.162  1.7686 -0.9317  0.5272
17168TIP3   OH272918   1.292   6.620   0.835  0.2718  0.2897 -0.1199
17168TIP3    H172919   1.238   6.653   0.763 -1.2291  0.4577  1.0429
17168TIP3    H272920   1.308   6.528   0.812 -1.2930 -0.0256 -0.0783
17169TIP3   OH272921   0.962   1.471   4.836  0.7409  0.2567  0.0229
17169TIP3    H172922   1.028   1.409   4.804 -0.2234 -0.8259  0.0403
17169TIP3    H272923   0.933   1.517   4.758 -0.2841 -1.0763 -0.4313
17170TIP3   OH272924   5.114   5.366  16.543 -0.3450  0.4721 -0.4442
17170TIP3    H172925   5.178   5.437  16.545 -0.5730  0.6663  1.2782
17170TIP3    H272926   5.045   5.398  16.484  0.2300  1.0625 -0.8114
17171TIP3   OH272927   3.273   5.755   0.329 -0.4238  0.3685 -0.3338
17171TIP3    H172928   3.214   5.742   0.403  0.2788  0.7776  0.3087
17171TIP3    H272929   3.335   5.683   0.335  0.2125  0.9349  0.0547
17172TIP3   OH272930   5.082   1.141   5.170 -0.5934  0.5254 -0.2462
17172TIP3    H172931   4.992   1.158   5.144 -1.0071 -0.7129  0.3058
17172TIP3    H272932   5.090   1.180   5.257 -0.3966  1.2000 -0.5632
17173TIP3   OH272933   3.679   3.839   1.936  0.0016  0.1865  0.1256
17173TIP3    H172934   3.726   3.775   1.883  0.5291 -0.0877  0.8961
17173TIP3    H272935   3.658   3.910   1.875  0.0378 -0.3997 -0.5776
17174TIP3   OH272936   2.376   4.394   1.693  0.2476 -0.2217 -0.3767
17174TIP3    H172937   2.331   4.395   1.777 -0.6777 -0.6085 -0.8584
17174TIP3    H272938   2.396   4.486   1.675 -1.5667  0.1402 -0.7764
17175TIP3   OH272939   4.303   3.993  13.940  0.4068 -0.0415  0.2784
17175TIP3    H172940   4.220   4.025  13.975  0.6901  0.0796  0.8653
17175TIP3    H272941   4.302   4.018  13.848 -1.0855 -1.8384 -0.2428
17176TIP3   OH272942   0.045   1.467   2.072  0.2046  0.2803  0.1717
17176TIP3    H172943   0.017   1.547   2.116 -0.8284  0.3774 -0.6344
17176TIP3    H272944   0.040   1.399   2.139  1.7601  0.9822  1.0593
17177TIP3   OH272945   6.604   4.586   0.125 -0.5771 -0.1114 -0.6418
17177TIP3    H172946   6.602   4.502   0.080  0.8822 -1.2180  1.2557
17177TIP3    H272947   6.696   4.609   0.131 -0.7125  0.1016  1.5294
17178TIP3   OH272948   4.451   0.982   4.453 -0.2055  0.4580 -0.0301
17178TIP3    H172949   4.424   0.973   4.361 -1.2334 -0.6043  0.3585
17178TIP3    H272950   4.543   1.006   4.448 -0.7722  2.6820 -1.3885
17179TIP3   OH272951   6.584   4.464   0.912  0.2225  0.2312  0.8102
17179TIP3    H172952   6.660   4.523   0.908 -1.1512  2.0045 -1.4291
17179TIP3    H272953   6.620   4.377   0.894  1.7884  0.9768  0.1872
17180TIP3   OH272954   2.379   0.531  11.812  0.3492  0.0632 -0.3204
17180TIP3    H172955   2.460   0.539  11.862  0.7187  1.4927 -1.0776
17180TIP3    H272956   2.342   0.620  11.812 -1.6146 -0.6904  0.6090
17181TIP3   OH272957   5.833   1.077   4.450  0.4523  0.0249  0.5840
17181TIP3    H172958   5.794   1.100   4.534  2.0286  1.1375  1.0461
17181TIP3    H272959   5.918   1.120   4.450  0.8856 -0.7408 -1.1943
17182TIP3   OH272960   2.093   5.157  12.838  0.6989  0.5984  0.4297
17182TIP3    H172961   2.000   5.165  12.817  0.5902  0.8835  0.9931
17182TIP3    H272962   2.098   5.082  12.898  1.0630 -0.4969 -0.9332
17183TIP3   OH272963   6.426   3.376   5.012  0.2033  0.5491 -0.4453
17183TIP3    H172964   6.428   3.337   4.925 -1.1496 -0.2403 -0.1526
17183TIP3    H272965   6.376   3.313   5.065  1.5081  0.7109  1.0512
17184TIP3   OH272966   5.190   4.062   1.442  0.3886 -0.1154 -0.0972
17184TIP3    H172967   5.187   4.132   1.507 -0.1585 -0.9969  0.8500
17184TIP3    H272968   5.193   3.981   1.493 -2.9199 -0.9925 -1.0634
17185TIP3   OH272969   1.002   2.319   3.011  0.1099 -0.5237  0.9484
17185TIP3    H172970   1.030   2.230   3.031  1.3528 -0.3167  0.2828
17185TIP3    H272971   1.074   2.355   2.959  0.6043  1.5344  2.8995
17186TIP3   OH272972   0.445   6.708   4.891 -0.1354  0.1697 -0.0337
17186TIP3    H172973   0.395   6.665   4.959 -0.8811  0.4598 -0.3892
17186TIP3    H272974   0.457   6.641   4.824 -0.8950  0.3722 -0.3806
17187TIP3   OH272975   3.256   6.750   4.260  0.3554  0.4349 -0.7356
17187TIP3    H172976   3.197   6.675   4.251 -0.7572  1.1826  0.0560
17187TIP3    H272977   3.321   6.739   4.190  0.6595 -1.6455 -0.1843
17188TIP3   OH272978   3.841   4.461  10.800  0.7486 -0.1096 -0.7384
17188TIP3    H172979   3.848   4.369  10.828 -0.9363  0.0516  0.3085
17188TIP3    H272980   3.904   4.508  10.854  0.6211 -0.4421 -0.3020
17189TIP3   OH272981   3.946   5.160  15.618  0.2596 -0.0233 -0.6990
17189TIP3    H172982   3.997   5.224  15.568  2.2301  0.4670  1.7318
17189TIP3    H272983   3.942   5.083  15.562 -0.9089  1.6614 -3.1046
17190TIP3   OH272984   5.890   2.716   2.162  0.6931 -0.5569 -0.1355
17190TIP3    H172985   5.815   2.769   2.191  0.3520 -1.1526  0.0979
17190TIP3    H272986   5.850   2.640   2.119  1.1150 -1.5750  1.1904
17191TIP3   OH272987   0.593   4.217   4.259 -0.5919  0.0986  0.0579
17191TIP3    H172988   0.671   4.195   4.310 -1.1060 -1.6623  0.1325
17191TIP3    H272989   0.617   4.198   4.168 -1.0925 -0.9533  0.1375
17192TIP3   OH272990   1.496   6.638   3.350  0.2775  0.0198 -0.0697
17192TIP3    H172991   1.404   6.658   3.338 -0.3812 -3.3200 -1.6457
17192TIP3    H272992   1.498   6.562   3.408  2.1249  0.4727  0.5633
17193TIP3   OH272993   5.163   3.782  16.839  0.2415  0.2319  0.1143
17193TIP3    H172994   5.069   3.774  16.852  0.1517  0.8986 -0.0776
17193TIP3    H272995   5.173   3.823  16.753  0.7268 -0.4377 -0.1554
17194TIP3   OH272996   0.287   3.279   6.450  0.4646  0.1208  0.2252
17194TIP3    H172997   0.280   3.308   6.541  1.5039 -0.4409  0.5009
17194TIP3    H272998   0.256   3.188   6.452 -0.4833  0.4242 -0.1818
17195TIP3   OH272999   1.205   2.229   6.246  0.2788 -0.2122  0.2319
17195TIP3    H173000   1.211   2.197   6.336  1.3873  1.4412  0.7993
17195TIP3    H273001   1.268   2.177   6.197 -1.2098 -1.9836  0.0753
17196TIP3   OH273002   0.729   0.897  14.260 -0.1052  0.0269  0.0012
17196TIP3    H173003   0.671   0.972  14.253 -1.1417 -0.7653 -0.0970
17196TIP3    H273004   0.816   0.935  14.269 -0.7337  1.2544  1.1914
17197TIP3   OH273005   6.222   1.295   1.741  0.3329  0.6003  0.1621
17197TIP3    H173006   6.242   1.219   1.795  2.2034  0.1171 -1.0684
17197TIP3    H273007   6.128   1.309   1.750  0.2698 -0.7192  1.8502
17198TIP3   OH273008   6.219   5.914   0.155 -0.1315 -0.2414  0.1175
17198TIP3    H173009   6.193   5.984   0.095  0.0732  0.5072  0.8945
17198TIP3    H273010   6.152   5.914   0.222 -0.4380 -1.1797 -0.1760
17199TIP3   OH273011   3.367   4.684   6.528 -0.2678  0.3234  0.5703
17199TIP3    H173012   3.332   4.687   6.617 -0.1620 -0.4782  0.6427
17199TIP3    H273013   3.376   4.591   6.508 -0.6477  0.4815 -0.4221
17200TIP3   OH273014   1.212   4.210  12.214 -0.0442  0.0793 -0.4939
17200TIP3    H173015   1.131   4.199  12.264  0.3289  2.0050  0.6439
17200TIP3    H273016   1.186   4.201  12.123 -1.1107 -1.5403 -0.0677
17201TIP3   OH273017   2.051   2.942  16.142  0.2944  0.1511  0.0802
17201TIP3    H173018   2.005   2.921  16.223  1.1816 -1.0284  0.3043
17201TIP3    H273019   2.010   2.887  16.076  1.0462 -0.5631  0.1908
17202TIP3   OH273020   5.146   2.417   5.330  0.1786 -0.1195 -0.1307
17202TIP3    H173021   5.175   2.441   5.418 -0.0325 -1.8713  0.4680
17202TIP3    H273022   5.163   2.494   5.277  1.2819  0.6209  1.2270
17203TIP3   OH273023   1.826   6.477   5.799  0.0811  0.2040  0.1079
17203TIP3    H173024   1.751   6.437   5.755  0.0194  0.6423 -0.1883
17203TIP3    H273025   1.787   6.542   5.858  0.1510 -0.5122  0.9508
17204TIP3   OH273026   5.993   4.351  12.352 -0.2670  0.2539 -0.2984
17204TIP3    H173027   5.922   4.338  12.414 -0.1253  1.1898  0.0799
17204TIP3    H273028   5.975   4.436  12.311  2.3835  2.2854  2.3073
17205TIP3   OH273029   6.469   5.537   4.052 -0.5659  0.0775  0.7246
17205TIP3    H173030   6.452   5.477   4.124 -1.2219 -0.9652 -0.2585
17205TIP3    H273031   6.509   5.482   3.984 -0.0999  0.9968  0.2288
17206TIP3   OH273032   2.108   2.125  15.747 -0.4597  0.2760  0.3748
17206TIP3    H173033   2.152   2.121  15.662  1.6957 -0.6397  1.4563
17206TIP3    H273034   2.091   2.034  15.770 -0.3874  0.4651  1.2231
17207TIP3   OH273035   1.916   4.961  16.427 -0.1427 -0.0517 -0.7449
17207TIP3    H173036   1.899   4.906  16.351  0.7759 -0.5704 -0.5821
17207TIP3    H273037   1.862   4.924  16.497  0.9537 -1.1502 -0.4638
17208TIP3   OH273038   2.289   0.486   2.496  0.1930 -0.1400 -0.0234
17208TIP3    H173039   2.314   0.574   2.525 -0.9516 -0.0654  0.8121
17208TIP3    H273040   2.372   0.437   2.496  1.2527  1.4533 -2.6563
17209TIP3   OH273041   5.639   6.413  11.874  0.4175  0.1867 -0.2675
17209TIP3    H173042   5.579   6.367  11.933  0.2632  0.5243 -0.1583
17209TIP3    H273043   5.683   6.343  11.825 -0.3196 -0.0469 -0.6044
17210TIP3   OH273044   3.449   3.927  12.379 -0.0322 -0.1366 -0.6681
17210TIP3    H173045   3.359   3.897  12.393  0.0938 -0.1285  0.2099
17210TIP3    H273046   3.447   4.021  12.399  0.1741 -0.1443 -0.6034
17211TIP3   OH273047   1.565   5.441   5.001  0.1783 -0.1262  0.1224
17211TIP3    H173048   1.571   5.494   4.922 -2.8392  1.6822  0.9545
17211TIP3    H273049   1.608   5.493   5.068  1.6163 -1.0921 -0.0009
17212TIP3   OH273050   0.591   1.014   3.824 -0.2859  0.6688 -0.6421
17212TIP3    H173051   0.666   1.040   3.770 -0.0696  1.7148  0.1315
17212TIP3    H273052   0.524   1.080   3.805 -0.5700  0.4569 -0.3887
17213TIP3   OH273053   3.765   6.186   1.070 -0.0972  0.2685 -0.1187
17213TIP3    H173054   3.739   6.175   0.978  1.8761 -3.4637 -0.4607
17213TIP3    H273055   3.861   6.183   1.067 -0.0026 -1.6287  2.0944
17214TIP3   OH273056   0.223   5.352  16.410  0.2122  0.1329 -0.1576
17214TIP3    H173057   0.167   5.396  16.346 -1.0645 -0.2624  0.6611
17214TIP3    H273058   0.175   5.358  16.492  0.4125 -1.9509  0.1699
17215TIP3   OH273059   0.959   3.926   4.207 -0.2868 -0.0108  0.1625
17215TIP3    H173060   0.893   3.889   4.148 -1.6145  0.5756  1.2129
17215TIP3    H273061   0.911   3.994   4.255  0.4766 -1.1038  2.5752
17216TIP3   OH273062   0.452   6.654  16.887 -0.3180  0.1982 -0.1391
17216TIP3    H173063   0.382   6.615  16.941  1.5319 -2.3367  0.6319
17216TIP3    H273064   0.521   6.676  16.950  0.3573  0.8695 -1.0923
17217TIP3   OH273065   3.577   0.028   3.818  0.3075 -0.7588 -0.6738
17217TIP3    H173066   3.528  -0.013   3.746 -0.8091 -0.7968  0.0792
17217TIP3    H273067   3.616  -0.045   3.866  0.1281 -0.8052 -0.5980
17218TIP3   OH273068   6.394   2.993   3.779 -0.2083  0.0113  0.1446
17218TIP3    H173069   6.325   2.996   3.712  0.2134  0.6762 -0.2775
17218TIP3    H273070   6.388   3.078   3.823  0.0638 -0.0955  0.3883
17219TIP3   OH273071   4.638   1.715  15.122  0.2241  0.0957  0.1541
17219TIP3    H173072   4.676   1.790  15.166  0.4418 -0.4605  0.9302
17219TIP3    H273073   4.562   1.691  15.176 -1.6620  1.5495 -1.6665
17220TIP3   OH273074   3.628   2.848   0.891  0.6165 -0.2200 -0.1393
17220TIP3    H173075   3.573   2.895   0.828  0.7464 -0.6177 -0.5556
17220TIP3    H273076   3.700   2.813   0.839 -0.4070 -2.4366 -0.2211
17221TIP3   OH273077   3.653   5.985   4.579 -0.0573 -0.1019 -0.4241
17221TIP3    H173078   3.696   5.902   4.558 -2.9642 -1.9223  0.2228
17221TIP3    H273079   3.620   6.017   4.495  0.3645 -0.0120 -0.5588
17222TIP3   OH273080   0.130   6.198  14.728 -0.0457 -0.2365  0.1785
17222TIP3    H173081   0.104   6.169  14.815 -1.4292  1.1024  0.2559
17222TIP3    H273082   0.187   6.128  14.695 -0.2648 -1.2060  1.7670
17223TIP3   OH273083   4.850   1.425  15.295 -0.1689 -0.3393  0.3501
17223TIP3    H173084   4.790   1.355  15.319  0.4181 -1.3026 -0.8550
17223TIP3    H273085   4.865   1.412  15.201  1.2327  0.3947  0.4453
17224TIP3   OH273086   0.044   1.822   3.139 -0.5890  0.5897 -0.0428
17224TIP3    H173087  -0.003   1.890   3.188 -0.9631  0.4795 -0.2525
17224TIP3    H273088  -0.024   1.772   3.096 -0.2161  2.4159 -3.0339
17225TIP3   OH273089   6.166   2.295   5.541  0.2135  0.0373  0.4186
17225TIP3    H173090   6.126   2.227   5.487 -0.2658  0.3547  0.3672
17225TIP3    H273091   6.096   2.324   5.599  0.1230  1.1952 -0.2404
17226TIP3   OH273092   5.504   0.494   3.698  0.3741 -0.0417  0.8868
17226TIP3    H173093   5.599   0.503   3.694  0.2829  0.6408 -0.6488
17226TIP3    H273094   5.489   0.401   3.716  1.3500 -0.6299 -1.0585
17227TIP3   OH273095   5.395   0.797  15.267 -0.1157 -0.1233  0.3127
17227TIP3    H173096   5.359   0.757  15.187  0.0329 -0.9040  0.6213
17227TIP3    H273097   5.366   0.739  15.337  1.3969 -0.5637  0.6196
17228TIP3   OH273098   3.250   3.288   3.792  0.3176 -0.4069 -0.6714
17228TIP3    H173099   3.209   3.323   3.871 -1.1603 -1.5507 -0.8949
17228TIP3    H273100   3.179   3.283   3.728  1.2358 -0.5919 -1.7076
17229TIP3   OH273101   3.111   5.026  13.904 -0.2034  0.0305  0.2751
17229TIP3    H173102   3.201   5.033  13.874 -0.3603 -1.6979 -0.7742
17229TIP3    H273103   3.104   5.089  13.976  0.7923  2.8772 -1.9358
17230TIP3   OH273104   3.291   5.767   1.941 -0.0076 -0.3366 -0.2992
17230TIP3    H173105   3.258   5.827   1.875 -1.2427 -1.6038 -0.8945
17230TIP3    H273106   3.286   5.816   2.023  2.1670  1.4840 -1.1591
17231TIP3   OH273107   3.566   6.626  11.533 -0.6118  0.8187  0.7312
17231TIP3    H173108   3.476   6.619  11.566  0.1156 -0.5992  2.5513
17231TIP3    H273109   3.616   6.660  11.607  0.7083 -0.3416  0.4028
17232TIP3   OH273110   5.726   4.460   1.231  0.0067  0.1236 -0.5006
17232TIP3    H173111   5.702   4.418   1.313 -0.8649  2.8996  0.7829
17232TIP3    H273112   5.659   4.432   1.169 -0.1896 -0.8113  0.1157
17233TIP3   OH273113   5.903   4.452   3.971  0.1422  0.3625  0.0144
17233TIP3    H173114   5.884   4.454   3.877 -0.8702  1.8736  0.2230
17233TIP3    H273115   5.852   4.378   4.004  0.0099  0.2130 -0.5249
17234TIP3   OH273116   2.349   4.705   6.308  0.3703 -0.1503  0.1700
17234TIP3    H173117   2.265   4.707   6.262  0.6302  1.4428 -0.3116
17234TIP3    H273118   2.373   4.797   6.318  1.8311 -0.5611  0.7319
17235TIP3   OH273119   1.781   5.547  13.930 -0.2961  0.0386  0.3271
17235TIP3    H173120   1.817   5.627  13.969 -1.4934  1.6699 -1.7332
17235TIP3    H273121   1.707   5.577  13.878  0.6361 -2.0765 -2.4344
17236TIP3   OH273122   1.935   3.119   6.146  0.0555  0.0414  0.4031
17236TIP3    H173123   1.990   3.195   6.166 -0.9819  1.0704 -0.5152
17236TIP3    H273124   1.853   3.136   6.192  0.0158 -0.8194  0.6629
17237TIP3   OH273125   6.541   4.618  16.709  0.4218  0.4166 -0.9493
17237TIP3    H173126   6.490   4.570  16.774 -0.9946  2.6628 -0.2539
17237TIP3    H273127   6.598   4.553  16.669 -0.8961 -1.6466  0.3640
17238TIP3   OH273128   6.396   3.731   3.895 -0.5733 -0.2826  0.1682
17238TIP3    H173129   6.447   3.812   3.900 -0.0086 -0.5164 -1.2648
17238TIP3    H273130   6.305   3.760   3.899 -0.3632  0.3902  0.1676
17239TIP3   OH273131   5.453   4.402   6.353  0.3941 -0.6499 -0.3182
17239TIP3    H173132   5.387   4.466   6.327  0.1150 -0.3328  1.0834
17239TIP3    H273133   5.403   4.334   6.399  0.9564 -0.7748  0.1146
17240TIP3   OH273134   0.790   5.138  17.081  0.2732 -0.1560  0.4766
17240TIP3    H173135   0.755   5.190  17.009  1.0993 -3.2324 -2.4617
17240TIP3    H273136   0.756   5.050  17.065  3.1750 -1.6899  1.8455
17241TIP3   OH273137   0.280   6.437   1.931  0.0605 -0.0313 -0.4323
17241TIP3    H173138   0.234   6.354   1.945 -1.7778  1.2531  1.8891
17241TIP3    H273139   0.338   6.445   2.007  0.2825  0.7822 -0.6741
17242TIP3   OH273140   0.551   2.108   4.907  0.0047 -0.2828  0.4985
17242TIP3    H173141   0.573   2.114   5.000  0.0145  0.1914  0.4675
17242TIP3    H273142   0.464   2.067   4.906  1.0531 -2.6696  0.5969
17243TIP3   OH273143   1.503   4.880   0.932  0.1557  0.0028  0.4922
17243TIP3    H173144   1.438   4.948   0.951  1.9833  1.7941  0.7195
17243TIP3    H273145   1.498   4.820   1.006 -0.2481  0.9370  1.2439
17244TIP3   OH273146   2.655   4.861   0.510 -0.1222 -0.4566 -0.0720
17244TIP3    H173147   2.656   4.858   0.414 -1.4942 -2.9762 -0.0955
17244TIP3    H273148   2.717   4.793   0.536 -0.9772 -0.9084  0.8033
17245TIP3   OH273149   4.270   6.793   1.603 -0.3938 -0.0691 -0.1983
17245TIP3    H173150   4.181   6.768   1.575 -0.3794 -0.4069  0.0530
17245TIP3    H273151   4.260   6.881   1.640 -0.4186  0.3866 -1.2453
17246TIP3   OH273152   6.095   6.132   5.857 -0.4929 -0.2944  0.7055
17246TIP3    H173153   6.124   6.219   5.832  0.0436 -0.3575  1.0890
17246TIP3    H273154   6.069   6.140   5.949  2.2172 -1.1241  1.6340
17247TIP3   OH273155   2.465   1.428   1.701  0.0324  0.2021 -0.7283
17247TIP3    H173156   2.490   1.482   1.626  3.6037  1.3097  1.0523
17247TIP3    H273157   2.530   1.358   1.703 -0.6385 -0.4230  0.7370
17248TIP3   OH273158   5.131   5.118   2.968 -0.2209  0.3553  0.2467
17248TIP3    H173159   5.170   5.185   2.911  0.7984 -0.5203 -0.1189
17248TIP3    H273160   5.129   5.039   2.914 -1.4144  0.0741  0.6746
17249TIP3   OH273161   3.023   3.392  10.925  0.2522 -0.3305 -0.0024
17249TIP3    H173162   3.032   3.446  10.846  1.1805 -1.5597 -0.7766
17249TIP3    H273163   3.045   3.452  10.997  1.1564  0.3704 -0.8241
17250TIP3   OH273164   4.952   1.681   0.716 -0.5534  0.3206 -0.2403
17250TIP3    H173165   4.913   1.606   0.761 -0.0122 -0.5706 -1.2506
17250TIP3    H273166   4.942   1.662   0.623  1.8743  0.2568 -0.5537
17251TIP3   OH273167   3.828   2.654  16.946 -0.2478 -0.1886 -0.2222
17251TIP3    H173168   3.875   2.730  16.912 -0.8173  0.2043 -0.1573
17251TIP3    H273169   3.895   2.588  16.961  0.3487  0.5502  0.4066
17252TIP3   OH273170   3.491   1.901   1.904  0.0085  0.2894 -0.4732
17252TIP3    H173171   3.521   1.946   1.825 -0.6598  0.9289 -0.3689
17252TIP3    H273172   3.509   1.808   1.886 -0.6345  0.3638 -1.6099
17253TIP3   OH273173   2.429   4.154   3.321  0.1227  0.1348  0.3942
17253TIP3    H173174   2.508   4.123   3.366 -0.2956 -1.3859  0.1179
17253TIP3    H273175   2.363   4.088   3.341 -0.6704  0.5978 -0.6461
17254TIP3   OH273176   2.081   1.389   2.176  0.3019  0.3369  0.0086
17254TIP3    H173177   2.149   1.322   2.181 -0.0714 -0.0694 -0.2535
17254TIP3    H273178   2.079   1.414   2.083  2.6558  3.0534  0.5596
17255TIP3   OH273179   0.144   5.838   0.424 -0.2677  0.4071 -0.1817
17255TIP3    H173180   0.139   5.742   0.421  0.1243  0.3454  0.6490
17255TIP3    H273181   0.222   5.856   0.477 -0.8612  1.1758  0.4684
17256TIP3   OH273182   4.331   0.552  15.322 -0.1636  0.2142 -0.5819
17256TIP3    H173183   4.368   0.565  15.410  1.6392  0.5070 -1.3350
17256TIP3    H273184   4.281   0.470  15.329  2.8567 -1.7451 -0.0808
17257TIP3   OH273185   3.078   4.559   0.644  0.2408  1.3855  0.2942
17257TIP3    H173186   3.120   4.593   0.565  1.5035  1.0348  0.7918
17257TIP3    H273187   3.065   4.466   0.626  0.0758  1.4067  0.3068
17258TIP3   OH273188   1.398   2.068   3.268 -0.0523  0.1410 -0.2551
17258TIP3    H173189   1.430   2.031   3.185  0.0729  2.4917 -1.3315
17258TIP3    H273190   1.444   2.151   3.276  0.7600 -0.4867  2.7828
17259TIP3   OH273191   2.921   1.997   0.572  0.0313 -0.0300  0.3447
17259TIP3    H173192   2.890   2.021   0.484  0.0707  0.0561  0.3548
17259TIP3    H273193   2.962   1.911   0.560 -3.3457 -1.9128  0.9236
17260TIP3   OH273194   1.213   1.306  14.466  0.0426 -0.0483 -0.0167
17260TIP3    H173195   1.283   1.372  14.462  0.0609 -0.0975 -0.5427
17260TIP3    H273196   1.133   1.354  14.445 -0.3342  0.3416  2.0831
17261TIP3   OH273197   1.072   3.253   1.393 -0.3367  0.3051  0.4578
17261TIP3    H173198   1.019   3.196   1.338  0.1922  0.6859 -0.4721
17261TIP3    H273199   1.053   3.342   1.362  0.9348  0.4454 -0.0159
17262TIP3   OH273200   6.578   5.175   5.585 -0.3177 -0.2060  0.8284
17262TIP3    H173201   6.532   5.211   5.510  0.0183 -0.1972  0.6235
17262TIP3    H273202   6.662   5.222   5.586  1.0226 -2.3746 -0.6704
17263TIP3   OH273203   4.673   6.658   5.569 -0.0333  0.4315 -0.7162
17263TIP3    H173204   4.645   6.724   5.506 -0.8202  0.8922  0.0926
17263TIP3    H273205   4.696   6.708   5.647 -0.9622 -0.2753  0.0213
17264TIP3   OH273206   5.315   0.224  15.627  0.1335 -0.1670 -0.3831
17264TIP3    H173207   5.361   0.211  15.710 -2.0882 -0.1735  0.9156
17264TIP3    H273208   5.256   0.149  15.620 -1.4412  1.0682 -0.7542
17265TIP3   OH273209   5.893   6.067  13.807  0.1091 -0.4918 -0.3989
17265TIP3    H173210   5.833   6.132  13.768 -0.9238 -0.9520  0.3700
17265TIP3    H273211   5.835   5.996  13.834  0.9854 -0.8409  0.5977
17266TIP3   OH273212   6.336   0.676   0.068  0.2170 -0.7153  0.2295
17266TIP3    H173213   6.391   0.737   0.018  2.5632 -3.3031 -0.6603
17266TIP3    H273214   6.249   0.684   0.028  0.6579  1.3505 -0.4362
17267TIP3   OH273215   1.479   6.725  14.713  0.1194  0.1139 -0.3581
17267TIP3    H173216   1.435   6.759  14.635  0.7097  1.8746  0.0356
17267TIP3    H273217   1.414   6.670  14.755 -0.7493  0.4378 -1.2366
17268TIP3   OH273218   2.681   1.014   3.305 -0.3284 -0.0202 -0.6564
17268TIP3    H173219   2.667   1.024   3.211 -3.2134 -0.0801 -0.3383
17268TIP3    H273220   2.691   0.920   3.318  1.7937  0.1082 -1.0217
17269TIP3   OH273221   6.774   0.767   1.074 -0.5318  0.2948 -0.3696
17269TIP3    H173222   6.809   0.778   0.985 -0.0612 -0.3575 -0.2674
17269TIP3    H273223   6.812   0.685   1.105 -0.6882  0.5239  0.4431
17270TIP3   OH273224   1.594   2.970  16.311  0.2156 -0.0182 -0.7053
17270TIP3    H173225   1.586   2.954  16.405 -0.2773  1.9280 -0.3618
17270TIP3    H273226   1.505   2.993  16.284  0.0490 -1.9685 -1.9815
17271TIP3   OH273227   2.657   3.048   0.633 -0.8013 -0.2781 -0.3311
17271TIP3    H173228   2.738   3.061   0.584 -1.5665  2.5519 -1.0423
17271TIP3    H273229   2.667   3.102   0.712 -1.5040 -0.9255  0.2207
17272TIP3   OH273230   5.737   5.342   2.735 -0.0691  0.1352 -0.1404
17272TIP3    H173231   5.776   5.423   2.702 -0.8451  0.2687 -0.7459
17272TIP3    H273232   5.672   5.317   2.669  0.1505 -0.9797  0.0358
17273TIP3   OH273233   0.699   1.098   3.277  0.0337  0.2040  0.0284
17273TIP3    H173234   0.729   1.022   3.226 -0.8527  0.9624 -1.6900
17273TIP3    H273235   0.769   1.162   3.268  0.3125 -0.0052  0.6166
17274TIP3   OH273236   2.691   2.259   5.521  0.6047  0.1043  0.0678
17274TIP3    H173237   2.645   2.298   5.447 -1.1300 -0.7274  0.6586
17274TIP3    H273238   2.783   2.279   5.505  0.0961  1.5273 -1.3462
17275TIP3   OH273239   4.078   3.181   0.079 -0.3126  0.3025 -0.0175
17275TIP3    H173240   4.151   3.133   0.119 -0.5610 -1.8855 -2.0201
17275TIP3    H273241   4.110   3.204  -0.008 -1.4783  0.7108 -0.3474
17276TIP3   OH273242   3.706   2.581   3.615  0.0996 -0.0947  0.4538
17276TIP3    H173243   3.761   2.657   3.600 -0.4158  0.7634  2.6074
17276TIP3    H273244   3.766   2.506   3.609  0.9245  0.5921 -0.0360
17277TIP3   OH273245   3.305   1.458  13.612  0.7142  0.1108  0.4171
17277TIP3    H173246   3.358   1.400  13.666 -0.3134 -2.1436 -0.8695
17277TIP3    H273247   3.337   1.445  13.523 -0.3975  0.5269 -0.0700
17278TIP3   OH273248   0.091   4.900   5.062 -0.1235 -0.0908  0.0223
17278TIP3    H173249   0.019   4.927   5.119 -0.3057  1.2525 -0.8050
17278TIP3    H273250   0.048   4.859   4.987  0.1161 -1.8396  0.7936
17279TIP3   OH273251   3.181   5.703   0.604 -0.6443  0.3959 -0.0834
17279TIP3    H173252   3.140   5.630   0.559  1.3268  0.1740 -1.6834
17279TIP3    H273253   3.201   5.670   0.692 -0.0269 -0.9129 -0.6957
17280TIP3   OH273254   0.126   3.858  16.797  0.1091  0.8345  0.1442
17280TIP3    H173255   0.104   3.922  16.865 -1.0068  0.3860  0.2200
17280TIP3    H273256   0.055   3.865  16.733  0.6478  0.5691 -0.5031
17281TIP3   OH273257   0.411   2.531  11.239 -0.3356  0.0012  0.5284
17281TIP3    H173258   0.400   2.440  11.211 -0.9331 -0.0394  0.8682
17281TIP3    H273259   0.340   2.577  11.196  0.9917  0.6474 -1.0546
17282TIP3   OH273260   0.042   6.498   0.006  0.0451 -0.1500 -0.0788
17282TIP3    H173261   0.044   6.512   0.100  0.0147  0.0110 -0.1017
17282TIP3    H273262   0.050   6.403  -0.005  1.4602 -0.0654  0.0374
17283TIP3   OH273263   2.573   3.456   1.841 -0.3348  0.6203 -0.1668
17283TIP3    H173264   2.575   3.534   1.785 -0.1280  0.8171  0.1127
17283TIP3    H273265   2.658   3.414   1.825  0.7178  1.8790  1.6805
17284TIP3   OH273266   6.273   2.455  13.799 -0.4677 -0.5376  0.0952
17284TIP3    H173267   6.320   2.373  13.811  1.2538  0.7359  3.5204
17284TIP3    H273268   6.310   2.494  13.720  1.3129 -1.4595  0.4254
17285TIP3   OH273269   1.799   4.669  11.209 -0.0474 -0.7828  0.1503
17285TIP3    H173270   1.811   4.755  11.169 -0.0304 -1.1027 -0.5311
17285TIP3    H273271   1.710   4.670  11.244  1.5411  1.5429  5.0537
17286TIP3   OH273272   1.704   0.099  11.659  0.3105 -0.3254 -0.0438
17286TIP3    H173273   1.651   0.111  11.738 -0.2704 -0.5798 -0.3865
17286TIP3    H273274   1.777   0.160  11.669  1.3147 -1.6965  1.5882
17287TIP3   OH273275   1.846   0.156   2.979 -0.2976  0.3154  0.3514
17287TIP3    H173276   1.841   0.182   3.071  0.8073  0.2475  0.4449
17287TIP3    H273277   1.877   0.235   2.934 -1.2861  0.4893 -0.0391
17288TIP3   OH273278   2.763   5.884  15.993 -0.7310  0.4426  0.1418
17288TIP3    H173279   2.726   5.948  16.054  1.3953  0.6826  1.2769
17288TIP3    H273280   2.806   5.937  15.926  2.0647  0.3657  1.7169
17289TIP3   OH273281   1.774   3.197   3.227  0.2515  0.1309 -0.3476
17289TIP3    H173282   1.827   3.276   3.223  1.2228 -0.4832  0.0176
17289TIP3    H273283   1.684   3.227   3.210  0.4753  1.4232  0.6159
17290TIP3   OH273284   5.819   3.313  16.084 -0.5048  0.1291 -0.8815
17290TIP3    H173285   5.766   3.235  16.102 -0.5765  0.1625 -0.9468
17290TIP3    H273286   5.880   3.286  16.016 -0.6438  0.1784 -1.0259
17291TIP3   OH273287   0.892   3.083   1.256 -0.6189 -0.5213 -0.1084
17291TIP3    H173288   0.859   3.161   1.212  0.2140 -1.6651 -3.0788
17291TIP3    H273289   0.853   3.010   1.206  0.6802 -1.9510  0.8784
17292TIP3   OH273290   1.542   0.509  15.001 -0.4181 -0.2486  0.6037
17292TIP3    H173291   1.606   0.538  15.066 -0.1044 -1.3465  0.8209
17292TIP3    H273292   1.513   0.589  14.957  1.8645  0.1935 -0.2194
17293TIP3   OH273293   0.357   4.469   0.164 -0.0790  0.3824  0.0137
17293TIP3    H173294   0.373   4.538   0.227  1.0983 -0.1511  0.3238
17293TIP3    H273295   0.444   4.446   0.130 -0.2544 -1.7958  0.8435
17294TIP3   OH273296   2.394   3.538   5.594 -0.0022 -0.1840  0.1982
17294TIP3    H173297   2.482   3.575   5.592 -0.0320 -0.1378 -0.3905
17294TIP3    H273298   2.405   3.446   5.570 -0.0468 -0.3253  0.7022
17295TIP3   OH273299   2.322   6.215  17.078  0.9447 -0.0070 -0.1456
17295TIP3    H173300   2.400   6.210  17.134  0.1305 -0.1441  1.0040
17295TIP3    H273301   2.344   6.281  17.013  1.1968  1.6247  1.5132
17296TIP3   OH273302   4.516   6.438   5.633 -0.2526 -0.2289  0.5090
17296TIP3    H173303   4.567   6.517   5.613  0.7301 -1.2931 -1.4710
17296TIP3    H273304   4.563   6.397   5.706  2.1517 -1.4305 -1.5601
17297TIP3   OH273305   3.618   3.303  12.273 -0.0370  0.1044 -0.0476
17297TIP3    H173306   3.568   3.365  12.220 -0.8952 -0.9944 -0.5399
17297TIP3    H273307   3.553   3.242  12.307  0.7061 -0.1165  1.0264
17298TIP3   OH273308   1.836   1.526   3.554  0.4645  0.2253 -0.4927
17298TIP3    H173309   1.816   1.610   3.512 -1.5947 -0.0036 -0.1042
17298TIP3    H273310   1.920   1.540   3.598  1.6258  1.1322 -2.8112
17299TIP3   OH273311   5.598   1.094  16.385 -0.6027  0.0923  0.1785
17299TIP3    H173312   5.582   1.035  16.459  0.6348 -0.4399  0.0375
17299TIP3    H273313   5.519   1.088  16.332 -0.6302 -1.1683  0.3436
17300TIP3   OH273314   4.251   1.283  16.164 -0.2441  0.2115  0.1022
17300TIP3    H173315   4.276   1.221  16.233  2.8579 -0.5213 -1.5025
17300TIP3    H273316   4.239   1.366  16.210  1.9781 -0.1998  1.5554
17301TIP3   OH273317   1.889   3.166  12.418 -0.3276  0.1089 -0.5441
17301TIP3    H173318   1.955   3.135  12.357 -0.7095  1.3646 -1.6315
17301TIP3    H273319   1.919   3.253  12.445  0.2237 -0.6884  1.6807
17302TIP3   OH273320   6.098   3.844   4.992  0.6247  0.2863  0.1503
17302TIP3    H173321   6.086   3.753   5.018  1.7741  0.8200  2.9347
17302TIP3    H273322   6.016   3.887   5.018  0.1679  0.1218 -0.9642
17303TIP3   OH273323   1.799   1.929  14.736 -0.1072  0.2166  0.2025
17303TIP3    H173324   1.842   1.992  14.794 -0.5749  0.4830  0.2649
17303TIP3    H273325   1.718   1.972  14.709  0.6667  0.6155 -1.6454
17304TIP3   OH273326   2.008   2.796  14.541  0.1656 -0.1893  0.2233
17304TIP3    H173327   2.098   2.815  14.513  0.3345 -0.7040  0.4149
17304TIP3    H273328   2.018   2.747  14.622 -0.2924 -0.3361  0.1917
17305TIP3   OH273329   3.051   0.034   3.821  0.0459  0.7227  0.0960
17305TIP3    H173330   3.071  -0.059   3.810 -2.1827  0.3668 -1.6645
17305TIP3    H273331   3.066   0.051   3.914  0.6782 -1.3399  0.4188
17306TIP3   OH273332   2.170   3.477   5.309  0.2158 -0.5169 -0.1722
17306TIP3    H173333   2.174   3.511   5.219 -2.1285  1.1529  0.2529
17306TIP3    H273334   2.227   3.535   5.359  1.2250 -1.2165 -0.4700
17307TIP3   OH273335   6.299   3.674  12.661  0.2479  0.5466 -0.0429
17307TIP3    H173336   6.366   3.685  12.593 -0.1977  2.9899 -0.1983
17307TIP3    H273337   6.306   3.754  12.714 -1.4929  0.1242  0.8854
17308TIP3   OH273338   6.503   1.198   2.600 -0.0775  0.0706 -0.3182
17308TIP3    H173339   6.467   1.277   2.559  1.0587  0.9487  0.3079
17308TIP3    H273340   6.427   1.141   2.614 -0.6960  0.3581 -2.2564
17309TIP3   OH273341   2.007   4.552  12.952  0.1371  0.7936 -0.0488
17309TIP3    H173342   1.940   4.620  12.961 -1.1041 -0.3330 -0.5552
17309TIP3    H273343   1.980   4.500  12.877  1.3500  0.0391  0.0041
17310TIP3   OH273344   2.243   1.615  16.549  0.7321 -0.2365  0.0927
17310TIP3    H173345   2.267   1.703  16.522  0.6545 -0.4577 -0.7100
17310TIP3    H273346   2.148   1.619  16.564  0.5581 -0.4239 -0.9136
17311TIP3   OH273347   2.686   3.609   2.253  0.6258  0.4650 -0.7746
17311TIP3    H173348   2.759   3.550   2.270  0.6678  0.3983 -1.1771
17311TIP3    H273349   2.631   3.562   2.190 -0.1947  0.1620  0.1271
17312TIP3   OH273350   6.599   6.585  13.921  0.1636 -0.6643  0.5242
17312TIP3    H173351   6.554   6.644  13.860  0.9924  0.5821  1.0762
17312TIP3    H273352   6.689   6.616  13.923 -0.0436  0.0840  3.1937
17313TIP3   OH273353   3.893   1.698   5.398 -0.0512  0.3933  0.3119
17313TIP3    H173354   3.925   1.774   5.446 -0.9244  1.3394 -0.5426
17313TIP3    H273355   3.820   1.665   5.449  1.4208 -1.0157  1.6207
17314TIP3   OH273356   3.629   0.235  13.643 -0.8887  0.4039 -0.5305
17314TIP3    H173357   3.631   0.199  13.555 -1.2049 -1.8976  0.3234
17314TIP3    H273358   3.720   0.255  13.663 -0.1931 -2.6239 -0.1187
17315TIP3   OH273359   3.155   1.682   3.363 -0.2269  0.3624 -0.0914
17315TIP3    H173360   3.242   1.651   3.386 -0.1883  0.9816  0.6764
17315TIP3    H273361   3.168   1.739   3.287 -0.1114 -0.3330 -0.6030
17316TIP3   OH273362   0.950   1.660  15.156 -0.7854 -0.4870 -0.2660
17316TIP3    H173363   0.883   1.636  15.220  0.4897  0.2544  1.4129
17316TIP3    H273364   0.914   1.629  15.072 -4.2655  1.8796  0.1432
17317TIP3   OH273365   0.751   0.360   1.392  0.2207 -0.6587  0.1756
17317TIP3    H173366   0.845   0.378   1.384  0.3956  0.4216  3.4629
17317TIP3    H273367   0.747   0.271   1.428  0.1347  0.1237  2.1949
17318TIP3   OH273368   0.036   1.883  11.748 -0.3930  0.0869  0.5439
17318TIP3    H173369   0.132   1.890  11.742 -0.4215  0.0303 -0.0422
17318TIP3    H273370   0.014   1.807  11.694 -0.5870 -1.2666  2.4483
17319TIP3   OH273371   2.901   4.992   2.494  0.1941  0.3396 -0.1268
17319TIP3    H173372   2.985   4.970   2.453  0.2085  0.4878 -0.1775
17319TIP3    H273373   2.924   5.017   2.583  0.1937  0.2937 -0.1137
17320TIP3   OH273374   5.115   6.782  12.854  0.1173 -0.3769 -0.1124
17320TIP3    H173375   5.150   6.849  12.912 -0.2811 -2.2655  2.4602
17320TIP3    H273376   5.021   6.800  12.850  0.1663 -0.1601 -0.2913
17321TIP3   OH273377   6.249   2.824   0.175 -0.3609 -0.2443 -1.1859
17321TIP3    H173378   6.157   2.830   0.197 -0.6704 -1.3040 -2.1108
17321TIP3    H273379   6.274   2.913   0.150 -0.5564  0.5140  1.1263
17322TIP3   OH273380   4.039   2.417   2.652 -0.0480 -0.2465 -0.3551
17322TIP3    H173381   3.968   2.479   2.639  0.2864  0.0030 -1.0003
17322TIP3    H273382   4.114   2.471   2.676 -0.2300 -0.5568  1.0358
17323TIP3   OH273383   5.785   6.616   2.900  0.1323  0.6342 -0.8198
17323TIP3    H173384   5.785   6.686   2.836 -0.5040  2.2597  0.8619
17323TIP3    H273385   5.720   6.643   2.965 -1.7415 -2.5546 -1.1693
17324TIP3   OH273386   6.238   5.495   5.292 -0.0104  0.4295 -0.1438
17324TIP3    H173387   6.265   5.458   5.208  0.9751  1.3671 -0.2607
17324TIP3    H273388   6.252   5.590   5.282  1.4673  0.4295  1.5300
17325TIP3   OH273389   1.887   6.220  13.809  0.0417 -0.6253 -0.0107
17325TIP3    H173390   1.899   6.255  13.720 -0.1878 -2.2022 -0.6930
17325TIP3    H273391   1.942   6.276  13.864 -0.0179  0.5515 -1.0992
17326TIP3   OH273392   0.816   1.773   0.513  0.0564 -0.1065 -0.7309
17326TIP3    H173393   0.788   1.685   0.489 -1.2691 -0.4658  1.7305
17326TIP3    H273394   0.745   1.807   0.567  1.3419  1.7538 -0.0856
17327TIP3   OH273395   0.009   5.900   3.007 -0.0349 -0.0028 -0.0017
17327TIP3    H173396   0.093   5.922   2.967 -0.0917  0.4598  0.1348
17327TIP3    H273397   0.028   5.823   3.061  0.6976  1.1193  1.3995
17328TIP3   OH273398   2.889   0.934  14.024  0.1306  0.1798 -0.1422
17328TIP3    H173399   2.888   0.838  14.016 -0.5760  0.0231  1.4609
17328TIP3    H273400   2.981   0.957  14.011  0.2788 -0.6794 -0.7767
17329TIP3   OH273401   1.720   2.312   4.981  0.2313  0.0966 -0.2533
17329TIP3    H173402   1.704   2.299   4.887  0.4558  2.3679 -0.6552
17329TIP3    H273403   1.640   2.352   5.014  0.8967  1.1959  0.0720
17330TIP3   OH273404   4.820   3.137  12.070 -0.2163  0.1331  0.1268
17330TIP3    H173405   4.878   3.150  12.145  1.7991 -0.7701 -1.1851
17330TIP3    H273406   4.828   3.043  12.051 -1.3148  0.2035 -0.7348
17331TIP3   OH273407   3.664   4.457   1.195 -0.1434 -0.1996  0.1451
17331TIP3    H173408   3.628   4.540   1.165  0.8268 -0.1180 -0.9010
17331TIP3    H273409   3.690   4.412   1.114 -3.0006 -2.6922  0.4363
17332TIP3   OH273410   0.878   1.807   5.247 -0.2410  0.0474  0.1611
17332TIP3    H173411   0.940   1.780   5.180  0.8206  1.3622  0.5682
17332TIP3    H273412   0.932   1.833   5.321 -1.1202  2.8850 -0.0640
17333TIP3   OH273413   1.497   3.988  11.606 -0.1707  0.0085  0.2574
17333TIP3    H173414   1.511   3.910  11.660 -0.3529  0.1570  0.5259
17333TIP3    H273415   1.546   3.972  11.526  0.1808 -0.1768  0.5111
17334TIP3   OH273416   1.892   4.911  11.564  0.4135 -0.2582 -0.3783
17334TIP3    H173417   1.844   4.975  11.513 -1.1187 -0.2008  1.0435
17334TIP3    H273418   1.850   4.827  11.544 -0.0646 -0.2630  0.5772
17335TIP3   OH273419   3.640   0.337  17.034  0.0657  0.2174  0.5365
17335TIP3    H173420   3.568   0.287  17.072  1.4497 -1.8400  0.5930
17335TIP3    H273421   3.718   0.308  17.082  0.9845  2.3247  0.4334
17336TIP3   OH273422   0.485   4.894   3.268  1.0274 -0.2152 -0.5219
17336TIP3    H173423   0.529   4.839   3.203 -0.5496 -1.8963 -0.2665
17336TIP3    H273424   0.537   4.885   3.347  1.3380 -0.5571 -0.7639
17337TIP3   OH273425   4.008   6.097  10.312  0.2454  0.8884  0.5315
17337TIP3    H173426   3.930   6.046  10.331  0.5605 -0.1691 -0.8602
17337TIP3    H273427   3.995   6.128  10.222  0.6988  2.0743  0.8587
17338TIP3   OH273428   5.103   3.150  15.802 -0.5200 -0.1231 -0.8680
17338TIP3    H173429   5.052   3.107  15.733  1.0130  0.6975 -2.6127
17338TIP3    H273430   5.194   3.127  15.782 -0.1040 -1.9320  2.3972
17339TIP3   OH273431   4.779   4.905   2.942  0.0662  0.7322  0.5614
17339TIP3    H173432   4.686   4.886   2.929  0.4707  0.0163 -1.6904
17339TIP3    H273433   4.799   4.866   3.027 -1.5973  0.6004  0.9374
17340TIP3   OH273434   0.451   0.555  12.658  0.2294 -0.2933  0.2414
17340TIP3    H173435   0.410   0.504  12.728  0.9528 -2.0661 -0.5783
17340TIP3    H273436   0.507   0.617  12.704 -0.8387 -0.0505  1.2790
17341TIP3   OH273437   5.665   6.016  13.074  0.3909  0.5664 -0.4106
17341TIP3    H173438   5.613   6.090  13.104 -1.7726 -0.7768 -0.6783
17341TIP3    H273439   5.727   6.054  13.011 -1.1507  2.0477 -1.1034
17342TIP3   OH273440   5.009   3.164   4.286  0.5381  0.5335  0.4988
17342TIP3    H173441   5.041   3.255   4.287 -0.8542  1.0760  2.3773
17342TIP3    H273442   4.918   3.171   4.314 -0.6272 -1.1677 -2.4758
17343TIP3   OH273443   5.549   4.282  14.772  0.6681  0.0200  0.0493
17343TIP3    H173444   5.584   4.228  14.701 -2.3628 -1.1478 -0.6873
17343TIP3    H273445   5.486   4.226  14.816 -0.5443  2.0630  1.0540
17344TIP3   OH273446   0.937   5.571   3.552 -0.4892 -0.0760  0.1583
17344TIP3    H173447   0.939   5.616   3.637 -0.8669  0.1588  0.0480
17344TIP3    H273448   1.013   5.606   3.505  0.1868 -0.8047  0.6911
17345TIP3   OH273449   2.854   6.213   5.164 -0.2865 -0.3905 -0.1871
17345TIP3    H173450   2.834   6.137   5.110 -1.9564  0.0704 -0.2663
17345TIP3    H273451   2.779   6.222   5.222 -0.0958  1.1745 -0.1411
17346TIP3   OH273452   2.248   1.164  16.445  0.1934  0.6323 -0.5409
17346TIP3    H173453   2.153   1.155  16.456  0.2021  1.5905  0.4403
17346TIP3    H273454   2.261   1.257  16.428  0.8543  0.3004 -2.0160
17347TIP3   OH273455   5.685   3.999   0.706 -0.6486 -0.0309 -0.4048
17347TIP3    H173456   5.742   3.927   0.733 -1.7826 -1.3020 -1.3203
17347TIP3    H273457   5.625   4.010   0.780 -0.4631  0.0072 -0.2569
17348TIP3   OH273458   2.351   0.949  10.615  0.6146  0.4379  0.1851
17348TIP3    H173459   2.322   1.040  10.619  0.9811  0.5839 -0.4667
17348TIP3    H273460   2.293   0.903  10.676 -0.8775  0.7530 -0.9419
17349TIP3   OH273461   4.082   1.547  12.867 -0.1153 -0.0000 -0.5828
17349TIP3    H173462   4.072   1.588  12.952  2.2477  0.3449 -0.4167
17349TIP3    H273463   4.021   1.594  12.810 -3.0696 -1.3964  1.1999
17350TIP3   OH273464   1.203   3.369   3.479  0.4857 -0.1631  0.2386
17350TIP3    H173465   1.296   3.375   3.502  1.1118  3.5098 -2.2715
17350TIP3    H273466   1.182   3.455   3.442 -3.1289 -1.8223 -2.1898
17351TIP3   OH273467   3.390   0.721   5.786  0.4604 -0.3140  0.5447
17351TIP3    H173468   3.440   0.801   5.771 -0.3687  0.1391  0.1190
17351TIP3    H273469   3.435   0.654   5.735  0.2999  0.2181 -0.3177
17352TIP3   OH273470   3.725   6.706   1.785  0.0213  0.1236  0.1399
17352TIP3    H173471   3.769   6.622   1.798  0.8317  0.7174  1.2655
17352TIP3    H273472   3.740   6.726   1.692 -0.1381 -0.9364 -0.1340
17353TIP3   OH273473   3.843   0.847  13.944  0.1451  0.2505  0.4636
17353TIP3    H173474   3.908   0.777  13.936 -1.3917 -1.3460  1.2529
17353TIP3    H273475   3.893   0.923  13.974  2.3091  0.2997 -2.7447
17354TIP3   OH273476   0.361   0.018  16.175  0.2638  0.0239  0.2447
17354TIP3    H173477   0.412  -0.023  16.244  1.7336 -0.6166 -1.1479
17354TIP3    H273478   0.331  -0.055  16.120 -0.1210  0.5686 -0.2886
17355TIP3   OH273479   5.963   0.703   5.298 -0.5325 -0.8436  0.1061
17355TIP3    H173480   5.971   0.773   5.363  2.2823 -1.0617  0.0921
17355TIP3    H273481   5.895   0.733   5.238  1.8124  2.8398 -0.9805
17356TIP3   OH273482   0.493   5.926   3.331  0.3220 -0.5072  0.3706
17356TIP3    H173483   0.518   5.991   3.266  0.5514  1.6812  2.4895
17356TIP3    H273484   0.562   5.931   3.397  0.0802 -2.5982  0.8362
17357TIP3   OH273485   3.287   2.593  16.212 -0.7237 -0.5643  0.5369
17357TIP3    H173486   3.252   2.666  16.262 -0.1818  0.4508 -0.5113
17357TIP3    H273487   3.382   2.605  16.214 -0.6867 -0.3094 -0.9240
17358TIP3   OH273488   4.579   6.457  13.534 -0.1818 -0.7504 -0.4014
17358TIP3    H173489   4.612   6.537  13.491 -2.1067  0.3069 -0.0389
17358TIP3    H273490   4.656   6.418  13.574  0.5156  2.4510  1.8151
17359TIP3   OH273491   0.855   4.743  12.672 -0.5683 -0.0735  0.1843
17359TIP3    H173492   0.773   4.707  12.707 -0.1101 -1.3172  0.0115
17359TIP3    H273493   0.837   4.757  12.580 -0.9063  0.6237  0.3517
17360TIP3   OH273494   0.962   1.804  14.493  0.2101  0.0955  0.4132
17360TIP3    H173495   0.969   1.881  14.438 -0.2177  0.4411  0.8315
17360TIP3    H273496   0.872   1.806  14.527 -0.4919 -1.6759 -1.1359
17361TIP3   OH273497   2.540   2.122   5.141  0.6977  0.8160 -0.2786
17361TIP3    H173498   2.464   2.070   5.115  1.3228 -0.7111  0.8081
17361TIP3    H273499   2.550   2.186   5.071 -2.1441  1.7047 -0.0094
17362TIP3   OH273500   1.414   2.917   5.568  0.6822  0.1360 -0.8526
17362TIP3    H173501   1.473   2.846   5.544  0.4441  0.7120 -3.3409
17362TIP3    H273502   1.422   2.981   5.498 -0.8366  1.5236  0.1473
17363TIP3   OH273503   6.270   4.267   2.333 -0.7794  0.2823  0.4273
17363TIP3    H173504   6.365   4.264   2.325 -0.6830  0.9783  1.1550
17363TIP3    H273505   6.239   4.292   2.246 -0.2776  0.3833  0.2723
17364TIP3   OH273506   1.836   2.201  13.974 -0.2979 -0.7551 -0.6800
17364TIP3    H173507   1.790   2.284  13.967 -1.4039 -1.2764  0.0309
17364TIP3    H273508   1.856   2.176  13.884 -0.7497 -0.1458 -0.9525
17365TIP3   OH273509   3.753   6.525   0.171  0.1041  0.4214  0.1372
17365TIP3    H173510   3.690   6.492   0.235 -0.7345  0.1605 -0.7912
17365TIP3    H273511   3.766   6.453   0.110 -0.9464  1.3977 -1.3239
17366TIP3   OH273512   2.949   2.758  13.978  0.1124 -0.0203  0.4663
17366TIP3    H173513   2.865   2.805  13.970  0.3783  0.6318  1.3528
17366TIP3    H273514   2.928   2.680  14.028 -0.2592 -0.6842 -0.6832
17367TIP3   OH273515   0.999   3.714   0.416  0.1449 -0.3251  0.2223
17367TIP3    H173516   0.906   3.693   0.405  0.4614 -1.1700 -1.0337
17367TIP3    H273517   1.022   3.677   0.502 -0.1087 -2.3199 -0.5215
17368TIP3   OH273518   5.480   1.000  11.852  0.3034 -0.4834  0.1104
17368TIP3    H173519   5.385   0.987  11.847  0.2093  0.2379  0.0026
17368TIP3    H273520   5.491   1.094  11.860  1.0768 -0.4066 -1.4659
17369TIP3   OH273521   4.888   3.194   6.299 -0.2270  0.3569 -0.3402
17369TIP3    H173522   4.871   3.127   6.366  0.1747  0.8334  0.2449
17369TIP3    H273523   4.898   3.275   6.348  2.2381  0.3737 -0.7233
17370TIP3   OH273524   3.810   2.538  12.036 -0.1764 -0.2544  0.0803
17370TIP3    H173525   3.783   2.567  11.949 -1.5244 -0.0910  0.5385
17370TIP3    H273526   3.758   2.590  12.096  1.0485 -0.0709  1.0128
17371TIP3   OH273527   4.079   6.356   5.632 -0.3209 -0.0403 -0.3735
17371TIP3    H173528   4.106   6.286   5.691  1.4170 -0.5574 -1.6821
17371TIP3    H273529   4.148   6.422   5.641 -3.0153  2.7617  2.5729
17372TIP3   OH273530   5.047   3.159  16.084  0.0787 -0.2884 -0.0496
17372TIP3    H173531   5.013   3.069  16.081 -1.2745  0.0551  2.3240
17372TIP3    H273532   5.089   3.171  15.999  0.6103 -3.2596 -0.3344
17373TIP3   OH273533   3.559   3.893  11.472  0.2726 -0.2248  0.2985
17373TIP3    H173534   3.534   3.908  11.563  0.2334 -1.8930  0.5992
17373TIP3    H273535   3.637   3.947  11.459 -0.3392  0.8676  0.9702
17374TIP3   OH273536   2.983   3.595  12.272  0.0807 -0.7419 -0.0800
17374TIP3    H173537   2.972   3.608  12.366  0.0983 -0.9618 -0.0472
17374TIP3    H273538   2.895   3.607  12.236  0.0525 -0.7709 -0.0218
17375TIP3   OH273539   5.777   5.039  10.738  0.2080 -0.2051 -0.3302
17375TIP3    H173540   5.769   5.082  10.652 -2.0251  0.1010 -0.0429
17375TIP3    H273541   5.733   4.955  10.726 -0.9560  0.2188  0.7076
17376TIP3   OH273542   4.119   0.107  13.726  0.4248  0.4575  0.1962
17376TIP3    H173543   4.060   0.075  13.794  1.1268 -0.3820  0.4243
17376TIP3    H273544   4.162   0.183  13.766  3.5008 -2.0490  2.1832
17377TIP3   OH273545   2.593   5.929   3.289  0.5062  0.2005 -0.0560
17377TIP3    H173546   2.645   5.874   3.231  0.9404 -0.2569  0.7419
17377TIP3    H273547   2.550   5.868   3.348  0.4940  0.6770  0.4408
17378TIP3   OH273548   0.827   1.822   3.985 -0.5884 -0.4625  0.2072
17378TIP3    H173549   0.825   1.761   4.059 -1.0186 -0.6428  0.0486
17378TIP3    H273550   0.754   1.882   4.003 -0.1836 -0.0014  0.3535
17379TIP3   OH273551   3.270   0.501   5.919 -0.0754 -1.0466  0.3366
17379TIP3    H173552   3.315   0.574   5.876  1.2657 -1.9113  0.1996
17379TIP3    H273553   3.202   0.542   5.972  0.4747  0.2800  0.0498
17380TIP3   OH273554   0.597   1.013  13.207 -0.2426 -0.6120  0.2939
17380TIP3    H173555   0.685   1.048  13.216 -1.1466  2.0915 -0.4238
17380TIP3    H273556   0.588   0.951  13.279  2.0713 -0.6528  0.6143
17381TIP3   OH273557   3.672   3.823   4.324 -0.1412 -0.4339 -0.2379
17381TIP3    H173558   3.699   3.860   4.240  1.4053 -0.7814  0.0811
17381TIP3    H273559   3.669   3.728   4.308 -0.3177 -0.4630 -0.0293
17382TIP3   OH273560   6.547   4.533  12.637  0.4008  0.7448  0.1491
17382TIP3    H173561   6.481   4.465  12.622  1.4711 -0.3404  0.2084
17382TIP3    H273562   6.609   4.523  12.564 -0.5144  3.0713 -1.0540
17383TIP3   OH273563   0.605   1.770   5.270 -0.0215 -0.4710 -0.1236
17383TIP3    H173564   0.700   1.785   5.261 -0.0246 -0.3383  0.0615
17383TIP3    H273565   0.593   1.678   5.248 -0.0586 -0.1078 -1.7233
17384TIP3   OH273566   5.378   1.441  10.651  0.9992 -0.1062 -0.3876
17384TIP3    H173567   5.304   1.387  10.625 -0.2241  1.2683  0.1108
17384TIP3    H273568   5.452   1.406  10.601  0.1648 -1.9046 -0.4161
17385TIP3   OH273569   0.451   5.522   1.237  0.3294 -0.1429  0.3705
17385TIP3    H173570   0.452   5.521   1.333  0.0807  1.4458  0.4068
17385TIP3    H273571   0.361   5.503   1.214  0.5955 -1.5637  0.4020
17386TIP3   OH273572   4.786   2.202  14.750  0.2433  0.0533 -0.2165
17386TIP3    H173573   4.712   2.191  14.811  1.2849 -2.4875  0.7300
17386TIP3    H273574   4.826   2.116  14.745  2.4423  1.0639 -1.6710
17387TIP3   OH273575   2.756   5.894  11.806 -0.2009  0.1392  0.0746
17387TIP3    H173576   2.742   5.910  11.713 -0.2091 -1.3219 -0.2020
17387TIP3    H273577   2.736   5.801  11.818  0.0538  0.2363  1.4895
17388TIP3   OH273578   2.451   1.767  13.715  0.0465  0.2204  0.8019
17388TIP3    H173579   2.363   1.802  13.724 -0.5047 -0.9883  0.2880
17388TIP3    H273580   2.468   1.770  13.621 -0.6872 -2.3680  0.5038
17389TIP3   OH273581   4.175   3.611  15.051 -0.6374 -0.2477 -0.2155
17389TIP3    H173582   4.205   3.617  14.960  2.2045  0.5804  0.6735
17389TIP3    H273583   4.120   3.689  15.063 -0.9427 -0.3023 -1.1747
17390TIP3   OH273584   6.492   0.935   3.061  0.9539 -0.3084  0.3526
17390TIP3    H173585   6.540   0.983   3.129  1.1691 -2.2343  1.6374
17390TIP3    H273586   6.409   0.911   3.102  0.3076  0.0535 -0.7043
17391TIP3   OH273587   0.393   0.111  13.200 -0.7973 -0.4884  0.2754
17391TIP3    H173588   0.306   0.087  13.168 -0.3606 -0.4886 -0.9443
17391TIP3    H273589   0.453   0.070  13.138  0.0334  1.2289 -0.1084
17392TIP3   OH273590   4.555   4.494   2.255  0.2664  0.1552 -0.2336
17392TIP3    H173591   4.602   4.490   2.172 -0.8757 -0.0700 -0.8872
17392TIP3    H273592   4.486   4.558   2.241 -0.6205 -0.6765  0.1790
17393TIP3   OH273593   6.168   4.477  16.551 -0.3498  0.1986 -0.7229
17393TIP3    H173594   6.112   4.422  16.606  0.1008  0.7848  0.3358
17393TIP3    H273595   6.150   4.447  16.462 -0.1603 -1.6121 -0.1817
17394TIP3   OH273596   0.446   2.835  16.817 -0.2997  0.0219  0.2630
17394TIP3    H173597   0.385   2.894  16.772  0.0422  1.0857  1.1580
17394TIP3    H273598   0.527   2.885  16.823  0.7715 -1.4494 -1.0783
17395TIP3   OH273599   2.799   3.482   1.098 -0.5319  0.3302 -0.4751
17395TIP3    H173600   2.778   3.437   1.016 -0.1523 -0.9090  0.0817
17395TIP3    H273601   2.719   3.475   1.150 -0.3902  0.0629 -0.2902
17396TIP3   OH273602   2.428   5.179  14.567 -0.0537 -0.4638  0.0641
17396TIP3    H173603   2.351   5.123  14.578 -0.6697  0.5283  1.0264
17396TIP3    H273604   2.482   5.161  14.644  0.6096 -1.0328 -0.5242
17397TIP3   OH273605   5.172   2.112  11.459  0.4281  0.0020  0.2955
17397TIP3    H173606   5.151   2.205  11.450 -0.1852 -0.1433  0.2080
17397TIP3    H273607   5.267   2.110  11.459  0.4569  0.6935  0.8800
17398TIP3   OH273608   0.791   6.097  16.164  0.5631  0.8152  0.3275
17398TIP3    H173609   0.736   6.090  16.086  0.6906  1.8527  0.1392
17398TIP3    H273610   0.790   6.190  16.187  2.0965  0.8361  0.4271
17399TIP3   OH273611   4.571   1.993   0.366 -0.2322 -0.0679 -0.1807
17399TIP3    H173612   4.613   1.944   0.437  1.5979  1.4917 -0.0927
17399TIP3    H273613   4.478   1.994   0.389 -0.2769 -2.8504  0.1361
17400TIP3   OH273614   2.356   0.094  13.683 -0.0794  0.2324 -0.3449
17400TIP3    H173615   2.380   0.039  13.608  2.0526 -2.0493  1.8384
17400TIP3    H273616   2.270   0.130  13.660  0.3054 -0.6342 -3.6767
17401TIP3   OH273617   1.537   5.552   3.548  0.5562 -0.3397  0.3033
17401TIP3    H173618   1.593   5.475   3.556  0.3869 -0.5053 -0.0712
17401TIP3    H273619   1.448   5.517   3.558  0.5290 -0.0487  1.1192
17402TIP3   OH273620   1.464   6.648  14.330 -0.4721  0.0115  0.4467
17402TIP3    H173621   1.374   6.667  14.354 -0.2073  0.4225  1.1556
17402TIP3    H273622   1.491   6.723  14.276 -0.7593 -0.4385 -0.3376
17403TIP3   OH273623   2.231   1.910   1.085  0.3541 -0.0799  0.5078
17403TIP3    H173624   2.310   1.868   1.119  0.7803  1.1555  1.0689
17403TIP3    H273625   2.188   1.947   1.162  0.6417  1.5946 -0.1087
17404TIP3   OH273626   2.954   5.578  12.597 -0.5998  0.4547  0.0636
17404TIP3    H173627   2.970   5.639  12.669  0.5944  0.6444 -0.3549
17404TIP3    H273628   3.041   5.558  12.562 -1.1000 -0.3025 -0.7826
17405TIP3   OH273629   5.414   5.057   2.577  0.0852 -1.0171 -0.3712
17405TIP3    H173630   5.483   5.028   2.518 -0.9637  0.2145 -2.2888
17405TIP3    H273631   5.359   4.979   2.589  1.1406 -1.6911  0.2529
17406TIP3   OH273632   3.213   3.498  11.904 -0.4830  0.3414  0.1352
17406TIP3    H173633   3.183   3.467  11.989 -1.2907  2.4646  0.6782
17406TIP3    H273634   3.304   3.524  11.918 -0.4065  0.0559  0.1716
17407TIP3   OH273635   1.696   0.566   4.864 -0.1068  0.1478  0.3603
17407TIP3    H173636   1.704   0.646   4.916 -0.3879  0.8247 -0.6090
17407TIP3    H273637   1.602   0.550   4.860 -0.1179  0.3690 -0.3295
17408TIP3   OH273638   6.755   1.981   2.244  0.6759  0.3950  0.0097
17408TIP3    H173639   6.739   2.053   2.183 -0.1505 -0.3854 -0.7374
17408TIP3    H273640   6.693   1.996   2.315 -0.1530 -0.0528 -0.5942
17409TIP3   OH273641   0.138   1.856   1.293  0.0030 -0.1181  0.2793
17409TIP3    H173642   0.138   1.786   1.227  0.1898  1.3100 -1.3159
17409TIP3    H273643   0.199   1.921   1.258 -2.5791  2.3425  0.0398
17410TIP3   OH273644   1.983   1.513   5.996  0.3105  0.4605  0.5571
17410TIP3    H173645   1.904   1.562   6.018  0.0387 -0.6842  2.3186
17410TIP3    H273646   2.055   1.568   6.028  0.0901  0.5052  0.9891
17411TIP3   OH273647   1.847   5.494   3.319 -0.1941 -0.0706 -0.2291
17411TIP3    H173648   1.863   5.464   3.229  0.9665 -0.0997 -0.0255
17411TIP3    H273649   1.892   5.578   3.324  0.8265 -0.6519  0.6858
17412TIP3   OH273650   5.764   2.767   3.936 -0.0723 -0.1919  0.0583
17412TIP3    H173651   5.723   2.793   4.019  1.2298 -1.9405  1.3391
17412TIP3    H273652   5.691   2.757   3.875 -0.8987  3.2619  0.2905
17413TIP3   OH273653   0.470   4.734  11.475 -0.0960  0.2311 -0.4328
17413TIP3    H173654   0.408   4.773  11.415  0.7069  1.2388 -0.6447
17413TIP3    H273655   0.488   4.803  11.540 -0.7534 -0.7396  0.8230
17414TIP3   OH273656   2.224   2.058   2.381  0.3431  0.2538 -0.6441
17414TIP3    H173657   2.286   2.125   2.351 -0.4791  1.7481  0.7762
17414TIP3    H273658   2.270   2.012   2.451 -0.2996  1.8698  0.9428
17415TIP3   OH273659   6.329   3.029  11.040  0.5640  0.1524  0.1408
17415TIP3    H173660   6.243   2.997  11.013  0.8339  0.6858 -1.4951
17415TIP3    H273661   6.373   2.953  11.077 -0.1774 -0.4264 -0.1468
17416TIP3   OH273662   1.187   1.386  11.232 -0.4364 -0.1889  0.2733
17416TIP3    H173663   1.114   1.421  11.181 -0.0744  0.7897  0.4030
17416TIP3    H273664   1.209   1.303  11.188 -2.6716 -1.3766  1.2282
17417TIP3   OH273665   4.346   0.241   5.954  0.4409  0.2074 -0.2447
17417TIP3    H173666   4.293   0.258   5.876  1.6767 -0.7834 -1.3301
17417TIP3    H273667   4.288   0.191   6.011  0.2921 -1.2136 -1.5787
17418TIP3   OH273668   2.897   3.056  11.871 -0.2873 -0.3965 -0.1698
17418TIP3    H173669   2.841   3.054  11.794 -0.3972 -0.9837 -0.0775
17418TIP3    H273670   2.981   3.090  11.839 -0.5007 -0.1158 -0.4312
17419TIP3   OH273671   6.406   0.245   2.477 -0.2015 -0.0135 -0.0393
17419TIP3    H173672   6.352   0.318   2.447 -1.0919  0.3006  2.1639
17419TIP3    H273673   6.496   0.276   2.462 -0.5744  1.1133 -0.1040
17420TIP3   OH273674   2.168   1.428  16.977  0.5009  0.0844 -0.2912
17420TIP3    H173675   2.237   1.384  17.027  0.5100  0.4096 -0.0174
17420TIP3    H273676   2.213   1.461  16.899  0.4691 -0.4938 -0.5633
17421TIP3   OH273677   6.690   3.966   6.585 -0.0213 -0.2988 -0.3031
17421TIP3    H173678   6.655   3.901   6.524  1.1937 -0.4967 -0.8187
17421TIP3    H273679   6.731   4.031   6.529  0.3535 -0.0300  0.2835
17422TIP3   OH273680   3.999   4.401  15.678 -0.0215  0.2257 -0.5527
17422TIP3    H173681   3.953   4.396  15.595  0.0397  0.9851 -0.6410
17422TIP3    H273682   3.935   4.372  15.743  0.2445 -1.3381 -0.9517
17423TIP3   OH273683   6.566   5.400   0.015  0.3671  1.2680  0.8165
17423TIP3    H173684   6.560   5.486   0.057  0.0302  0.9924  1.3397
17423TIP3    H273685   6.606   5.418  -0.071  1.5578  1.7699  1.4526
17424TIP3   OH273686   6.443   5.962  12.019  0.2066 -0.6274  0.7120
17424TIP3    H173687   6.466   6.055  12.014 -0.4390 -0.4337  1.2513
17424TIP3    H273688   6.357   5.957  11.978  0.5433 -1.1161  0.0316
17425TIP3   OH273689   4.784   1.357  16.850 -0.4875 -0.2339 -0.5445
17425TIP3    H173690   4.832   1.384  16.773  1.9275  0.8440  1.2127
17425TIP3    H273691   4.768   1.438  16.899 -1.9080 -0.8822  0.1555
17426TIP3   OH273692   5.008   3.105   2.060 -0.6719  0.7567  0.3004
17426TIP3    H173693   5.060   3.181   2.084  1.2386 -0.3115 -0.2720
17426TIP3    H273694   4.994   3.113   1.966  0.2918  0.0015  0.0726
17427TIP3   OH273695   3.795   1.933   0.539  0.1703  0.3973  0.4799
17427TIP3    H173696   3.751   1.854   0.509  0.7362  0.2134  0.1050
17427TIP3    H273697   3.726   1.987   0.576 -0.4038  0.2355 -0.3387
17428TIP3   OH273698   2.038   2.814  17.112 -0.3981 -0.1018  0.3034
17428TIP3    H173699   2.015   2.867  17.036 -0.5239  0.2959  0.6096
17428TIP3    H273700   2.132   2.825  17.122  0.0892 -2.2475 -1.3345
17429TIP3   OH273701   2.600   4.566   0.015 -0.6276 -0.0510 -0.0257
17429TIP3    H173702   2.684   4.585  -0.027 -0.7937  1.8827  0.4253
17429TIP3    H273703   2.536   4.570  -0.056 -0.2761 -2.8732 -0.6344
17430TIP3   OH273704   1.213   1.631   2.374 -0.1943 -0.2403 -0.1665
17430TIP3    H173705   1.222   1.687   2.296 -0.5177 -0.0973 -0.0999
17430TIP3    H273706   1.123   1.644   2.403 -0.8327 -2.0656 -1.1310
17431TIP3   OH273707   4.924   6.714  14.698  0.1427  0.2173 -0.1704
17431TIP3    H173708   4.846   6.711  14.643 -0.6328 -0.2053  0.9144
17431TIP3    H273709   4.921   6.801  14.739 -0.7931 -0.4510  1.2729
17432TIP3   OH273710   5.573   1.412   0.063 -0.3015  0.0188  0.3883
17432TIP3    H173711   5.627   1.420  -0.015 -0.7824 -0.2612  0.0195
17432TIP3    H273712   5.549   1.502   0.085  1.6049  0.3221  1.5068
17433TIP3   OH273713   0.553   0.553   5.761  0.0652 -0.0278  0.2991
17433TIP3    H173714   0.546   0.634   5.709  1.3143 -0.1243 -0.0650
17433TIP3    H273715   0.467   0.512   5.754 -0.2270  0.6898 -0.4988
17434TIP3   OH273716   6.612   3.058  14.220  0.1487  0.6124 -0.3994
17434TIP3    H173717   6.634   2.994  14.287 -2.2488  0.3602  0.2301
17434TIP3    H273718   6.517   3.062  14.221  0.1148  1.9178 -2.5806
17435TIP3   OH273719   0.823   3.178  13.740  0.0782 -0.1098  0.1958
17435TIP3    H173720   0.849   3.267  13.764  1.0462 -0.0783 -0.8936
17435TIP3    H273721   0.776   3.145  13.817  0.6031  0.9739  1.0038
17436TIP3   OH273722   0.104   1.893   3.916  0.3427 -0.5875  0.1983
17436TIP3    H173723   0.090   1.982   3.947 -0.2924 -0.6201  0.0189
17436TIP3    H273724   0.046   1.839   3.969  0.2935 -0.8206 -0.0883
17437TIP3   OH273725   0.686   3.570   1.069  0.5312 -0.3345 -0.1354
17437TIP3    H173726   0.641   3.633   1.126  1.0715 -1.2397  1.3466
17437TIP3    H273727   0.681   3.609   0.982  0.7114  1.6822  0.6999
17438TIP3   OH273728   3.970   2.269  15.249  0.1392  0.4470  0.4153
17438TIP3    H173729   3.881   2.235  15.257  0.6707 -0.7525  1.5141
17438TIP3    H273730   3.988   2.265  15.155 -0.5607 -0.3675  0.2965
17439TIP3   OH273731   6.742   0.034  16.240 -0.2229  0.1384  0.1621
17439TIP3    H173732   6.790  -0.014  16.173 -1.7420 -0.2825 -0.6600
17439TIP3    H273733   6.799   0.032  16.317  0.2446 -2.0060 -0.1968
17440TIP3   OH273734   4.428   2.526   6.473  0.0414  0.0193 -0.5891
17440TIP3    H173735   4.370   2.600   6.494  0.4144 -0.0700  0.8476
17440TIP3    H273736   4.405   2.459   6.537  1.2394 -0.2783 -0.4571
17441TIP3   OH273737   5.425   3.856   0.648 -0.1592  0.3218 -0.0253
17441TIP3    H173738   5.423   3.791   0.578  1.1487 -0.4247  0.5965
17441TIP3    H273739   5.400   3.808   0.726 -4.0446  1.6457 -0.2182
17442TIP3   OH273740   6.581   0.512  16.218  0.1510 -0.3071 -0.3042
17442TIP3    H173741   6.583   0.420  16.191 -0.0819  0.1812 -2.0899
17442TIP3    H273742   6.634   0.514  16.298 -0.6260 -2.1390  0.2951
17443TIP3   OH273743   5.688   2.426   5.985 -0.1733  0.1202 -0.2906
17443TIP3    H173744   5.696   2.520   5.970 -1.7841  0.5856  1.3372
17443TIP3    H273745   5.681   2.417   6.080  0.4399 -1.7027 -0.3680
17444TIP3   OH273746   2.217   0.288   5.000 -0.4282  0.1609  0.4717
17444TIP3    H173747   2.286   0.319   5.059 -0.2354  1.4534 -0.3831
17444TIP3    H273748   2.258   0.286   4.914 -1.8098  2.5226 -0.3458
17445TIP3   OH273749   3.445   1.959  16.019  0.1814 -0.8882  0.5079
17445TIP3    H173750   3.499   1.883  15.995  0.9853 -0.0892 -0.2871
17445TIP3    H273751   3.500   2.008  16.080  1.2393  0.9475 -1.7779
17446TIP3   OH273752   1.156   1.359  12.941 -0.6216  0.4878 -0.2207
17446TIP3    H173753   1.068   1.340  12.907 -1.4365 -0.0848  2.0366
17446TIP3    H273754   1.204   1.277  12.930 -1.0175  0.1685  0.4161
17447TIP3   OH273755   5.018   0.074  16.647  0.0934 -0.4982  0.6616
17447TIP3    H173756   4.959   0.076  16.722 -0.9780 -0.7166 -0.1350
17447TIP3    H273757   5.087   0.013  16.671  1.4352  1.6256  2.6072
17448TIP3   OH273758   3.378   5.306  11.159 -0.4008  0.3998 -0.4986
17448TIP3    H173759   3.402   5.371  11.093  0.0486  1.6883  0.8535
17448TIP3    H273760   3.411   5.223  11.125  3.0637  1.5352 -0.3481
17449TIP3   OH273761   1.937   4.079  16.931 -0.1760  0.4764 -0.2684
17449TIP3    H173762   1.971   3.990  16.925  0.6563  0.7469  0.3202
17449TIP3    H273763   1.923   4.093  17.024  0.9670  1.4130 -0.2177
17450TIP3   OH273764   5.265   6.255  15.738 -0.1448 -0.3050  0.5070
17450TIP3    H173765   5.321   6.208  15.675 -0.2345  0.9496 -0.5609
17450TIP3    H273766   5.176   6.233  15.711 -0.2004 -1.5166  1.5957
17451TIP3   OH273767   2.550   5.529   6.396  0.3920 -0.2735 -0.3312
17451TIP3    H173768   2.456   5.519   6.409  0.4136 -0.0784 -0.0165
17451TIP3    H273769   2.557   5.581   6.316  0.2317 -0.3103 -0.3700
17452TIP3   OH273770   6.002   1.144  11.783 -0.0343 -0.0233 -0.7240
17452TIP3    H173771   5.919   1.106  11.755  0.1405  0.3605 -1.8382
17452TIP3    H273772   6.066   1.115  11.717  0.6786 -0.1768  0.0210
17453TIP3   OH273773   4.053   4.538   0.006 -0.2494  0.2457  0.1958
17453TIP3    H173774   4.075   4.468  -0.056 -0.2495  1.7391 -1.5737
17453TIP3    H273775   4.124   4.535   0.071 -0.7776 -2.0012  0.7690
17454TIP3   OH273776   5.262   5.037   2.139 -0.3992 -0.0940 -0.4003
17454TIP3    H173777   5.283   5.117   2.188 -0.0090 -0.7051  0.4618
17454TIP3    H273778   5.197   5.064   2.075 -1.0467  0.7090  0.5723
17455TIP3   OH273779   0.184   3.920  11.727 -0.0903 -0.2126 -0.0682
17455TIP3    H173780   0.276   3.947  11.726  0.7571 -2.7635  1.1167
17455TIP3    H273781   0.187   3.827  11.746 -2.8153 -1.1084 -3.1775
17456TIP3   OH273782   0.334   4.257   4.391  0.4274  0.2287  0.2129
17456TIP3    H173783   0.391   4.219   4.325 -1.3516 -2.9604  0.2931
17456TIP3    H273784   0.292   4.182   4.433 -0.7371  2.2212  2.9814
17457TIP3   OH273785   0.696   6.251  13.720 -0.6825  0.3664 -0.1285
17457TIP3    H173786   0.787   6.280  13.728  0.7386 -2.6669 -2.8734
17457TIP3    H273787   0.681   6.197  13.798  0.0471  0.4635  0.0904
17458TIP3   OH273788   2.942   6.190   6.092  0.1079  0.1425 -0.7288
17458TIP3    H173789   2.939   6.102   6.054 -2.8863 -0.4549  0.5401
17458TIP3    H273790   2.910   6.247   6.022 -1.3186 -0.3477 -0.5218
17459TIP3   OH273791   3.554   4.232  14.523  0.2949 -0.2515  0.6937
17459TIP3    H173792   3.574   4.162  14.460  1.8178  0.6958  0.0878
17459TIP3    H273793   3.626   4.229  14.586 -0.8729 -0.7460  2.0546
17460TIP3   OH273794   1.573   6.450  11.148 -0.6028  0.2420  0.4717
17460TIP3    H173795   1.505   6.473  11.211 -0.3966  2.0171  0.0767
17460TIP3    H273796   1.525   6.422  11.069 -0.8482 -0.5982  0.9018
17461TIP3   OH273797   2.690   3.589   3.546 -0.0577 -0.0596 -0.4286
17461TIP3    H173798   2.678   3.545   3.461 -0.6117 -0.1781 -0.2891
17461TIP3    H273799   2.766   3.545   3.584 -1.1660 -1.5669  0.1200
17462TIP3   OH273800   5.675   2.602  16.770  1.0295  0.5639  0.4129
17462TIP3    H173801   5.722   2.667  16.718  1.6185 -0.4739 -0.3945
17462TIP3    H273802   5.713   2.519  16.744 -2.3025 -0.5325 -1.4826
17463TIP3   OH273803   5.602   1.407   1.889  0.2953 -0.6428  0.5209
17463TIP3    H173804   5.532   1.346   1.868  1.9270 -2.1763 -0.8136
17463TIP3    H273805   5.646   1.369   1.965  1.1113 -0.9902 -0.1067
17464TIP3   OH273806   4.079   3.154  11.841 -0.6054  0.2572 -0.6686
17464TIP3    H173807   4.109   3.077  11.794  0.1798 -1.5120  2.4487
17464TIP3    H273808   3.988   3.136  11.863 -0.0735 -0.4606  1.1412
17465TIP3   OH273809   6.546   0.312   2.038  0.0255  0.4355 -0.1054
17465TIP3    H173810   6.613   0.355   2.091  0.1962 -0.0042  0.0413
17465TIP3    H273811   6.551   0.220   2.063 -0.0724  0.2641 -0.7009
17466TIP3   OH273812   0.765   1.641   4.511 -0.4252 -0.0899 -0.6701
17466TIP3    H173813   0.686   1.694   4.521 -0.5958 -0.2707 -1.0607
17466TIP3    H273814   0.736   1.551   4.525 -0.1970 -0.1159 -0.3353
17467TIP3   OH273815   4.732   3.823  13.659  0.5575  0.0046  0.2950
17467TIP3    H173816   4.699   3.904  13.699 -2.0471 -0.4745 -0.7544
17467TIP3    H273817   4.701   3.753  13.717  1.3617 -0.3715  0.2895
17468TIP3   OH273818   2.682   4.090   0.121  0.0773  0.0383 -0.4600
17468TIP3    H173819   2.598   4.130   0.097  0.5193  0.8381 -0.7223
17468TIP3    H273820   2.680   4.086   0.217 -0.5309 -0.5671 -0.4891
17469TIP3   OH273821   3.948   0.252   3.362 -0.6360  0.6498  0.0941
17469TIP3    H173822   3.904   0.210   3.436 -2.4966 -3.1872 -2.7904
17469TIP3    H273823   4.009   0.185   3.330 -0.8545  1.5972 -2.5493
17470TIP3   OH273824   5.769   0.498   4.366  0.2969 -0.0814  0.0910
17470TIP3    H173825   5.770   0.593   4.361 -1.8437  0.0371  0.6795
17470TIP3    H273826   5.847   0.470   4.319  1.6664  1.9795  0.9865
17471TIP3   OH273827   6.494   2.854   0.571  0.1371 -0.2528  0.1383
17471TIP3    H173828   6.560   2.784   0.571  0.1975 -0.1940 -0.2573
17471TIP3    H273829   6.461   2.855   0.661 -0.5743 -1.4656 -0.0804
17472TIP3   OH273830   1.363   5.476  11.855 -0.4061  0.3319  0.0387
17472TIP3    H173831   1.414   5.399  11.877 -1.2076  0.1392  1.3636
17472TIP3    H273832   1.408   5.548  11.898  0.4720  0.6669 -1.3905
17473TIP3   OH273833   3.182   2.913   3.649 -0.9347 -0.1519  0.1048
17473TIP3    H173834   3.233   2.833   3.638 -2.6468 -1.2138 -0.6465
17473TIP3    H273835   3.231   2.980   3.602  0.1503 -0.9275  0.0899
17474TIP3   OH273836   3.166   3.192  16.434 -0.3254 -0.1361 -0.1366
17474TIP3    H173837   3.118   3.185  16.517 -0.8576  1.5631 -0.2553
17474TIP3    H273838   3.098   3.181  16.367 -0.0652 -0.5118 -0.3381
17475TIP3   OH273839   1.811   4.959   1.444  0.0511  0.0173  0.0881
17475TIP3    H173840   1.741   4.955   1.378 -0.4579 -0.3782  0.6359
17475TIP3    H273841   1.844   4.870   1.448 -0.0158  0.0094  0.4661
17476TIP3   OH273842   6.474   3.641  11.778  0.3378 -0.9634 -0.3277
17476TIP3    H173843   6.401   3.617  11.835 -1.4401 -0.9248 -2.4435
17476TIP3    H273844   6.480   3.737  11.786  0.5077 -1.0229  0.2594
17477TIP3   OH273845   0.906   1.599   2.245 -0.4883  0.0083 -0.1860
17477TIP3    H173846   0.815   1.588   2.217 -0.7354  1.7923 -0.2083
17477TIP3    H273847   0.953   1.619   2.164 -0.5457  1.5229  0.1260
17478TIP3   OH273848   4.953   5.977   6.033 -0.0014 -0.5994 -0.2394
17478TIP3    H173849   5.015   5.949   6.101 -0.1957 -0.3279  0.0578
17478TIP3    H273850   4.869   5.981   6.079  0.2506  2.0498  0.2108
17479TIP3   OH273851   1.377   5.891   5.017  0.2819  0.0197 -0.5277
17479TIP3    H173852   1.385   5.850   4.930 -0.7158  0.1465 -0.6915
17479TIP3    H273853   1.286   5.875   5.042  0.2944  0.8525  0.0659
17480TIP3   OH273854   2.121   3.030  11.462 -0.1999  0.0804  0.1542
17480TIP3    H173855   2.027   3.013  11.471 -0.3496 -0.0005 -1.3191
17480TIP3    H273856   2.134   3.040  11.368  1.6424 -2.0385  0.1245
17481TIP3   OH273857   3.377   0.297  11.274 -0.3146 -0.7220  0.1365
17481TIP3    H173858   3.369   0.391  11.291  1.3148 -0.6639  0.7258
17481TIP3    H273859   3.398   0.259  11.359  1.0323 -1.3503 -0.4565
17482TIP3   OH273860   3.283   2.320  10.757  0.5605  0.9296 -0.3131
17482TIP3    H173861   3.228   2.388  10.797  1.0385  1.0918  0.0775
17482TIP3    H273862   3.342   2.293  10.826  0.1110 -0.1902 -0.3505
17483TIP3   OH273863   3.075   1.297   1.969  0.5819  0.0804 -0.1766
17483TIP3    H173864   2.983   1.288   1.996  1.0900 -0.5270  1.5061
17483TIP3    H273865   3.086   1.233   1.900 -0.7745  1.6461 -1.9542
17484TIP3   OH273866   6.021   4.815   5.202  0.1751  0.3394  0.5974
17484TIP3    H173867   6.015   4.731   5.247 -1.3309 -0.0586 -0.2564
17484TIP3    H273868   5.981   4.878   5.262 -0.6404  0.0435  0.3816
17485TIP3   OH273869   0.819   2.287   2.746 -0.4740  0.3706 -0.4412
17485TIP3    H173870   0.752   2.271   2.680 -0.5529  0.5927 -0.4167
17485TIP3    H273871   0.782   2.252   2.827 -1.0060  1.4285 -0.2119
17486TIP3   OH273872   3.137   1.893  13.318 -0.0363  0.8035  0.4616
17486TIP3    H173873   3.147   1.823  13.382 -1.2220 -0.2725 -0.4930
17486TIP3    H273874   3.137   1.973  13.371  1.0390  0.0919  1.5887
17487TIP3   OH273875   3.170   0.550   4.611  0.3569 -0.0326 -0.4747
17487TIP3    H173876   3.100   0.492   4.583 -1.5486  1.3800  1.1100
17487TIP3    H273877   3.236   0.543   4.541 -1.6084 -0.9485 -2.3532
17488TIP3   OH273878   5.451   1.733   2.584  0.1294 -0.7551  0.6548
17488TIP3    H173879   5.476   1.768   2.670 -2.1162  0.0320  1.0488
17488TIP3    H273880   5.421   1.810   2.535  1.6846 -1.1403 -1.0152
17489TIP3   OH273881   4.388   1.346   1.980  0.8503 -0.4446  0.1405
17489TIP3    H173882   4.468   1.295   1.995  0.1406 -1.8263 -0.5861
17489TIP3    H273883   4.412   1.436   2.002  1.9563 -1.1781  2.1809
17490TIP3   OH273884   3.980   5.093   1.206 -0.0201 -0.0705  0.4033
17490TIP3    H173885   3.924   5.148   1.151 -0.0921  0.7783  1.2737
17490TIP3    H273886   4.059   5.079   1.155  1.1882  3.1711  1.1210
17491TIP3   OH273887   3.775   5.223  14.108  0.4291 -0.1334  0.0695
17491TIP3    H173888   3.858   5.243  14.152  1.5530  1.6612 -2.6395
17491TIP3    H273889   3.739   5.308  14.084 -0.9061 -0.9925 -1.1198
17492TIP3   OH273890   6.580   1.631  12.549  0.4174 -0.7011 -0.4332
17492TIP3    H173891   6.549   1.549  12.510  1.2994 -1.4128  0.3243
17492TIP3    H273892   6.588   1.691  12.474 -0.8712 -1.0721 -0.9046
17493TIP3   OH273893   0.068   3.691  14.366 -0.1202 -0.0507  0.4510
17493TIP3    H173894   0.031   3.766  14.413 -0.2795 -0.1994  0.5631
17493TIP3    H273895   0.156   3.720  14.340 -0.2044  0.1973  0.4400
17494TIP3   OH273896   4.776   3.249  11.519  0.1793 -0.0421 -0.0732
17494TIP3    H173897   4.704   3.285  11.467  1.8409  2.7693 -0.5966
17494TIP3    H273898   4.752   3.267  11.610  0.8015  2.1964 -0.3081
17495TIP3   OH273899   1.311   5.408  14.849 -0.1016 -0.3059  0.3732
17495TIP3    H173900   1.284   5.343  14.784 -0.8423  0.5965 -0.2476
17495TIP3    H273901   1.311   5.360  14.932 -0.0476 -1.2451 -0.1548
17496TIP3   OH273902   1.532   5.776  16.883 -0.4254 -0.5947  0.2891
17496TIP3    H173903   1.578   5.859  16.872  0.9176 -1.5469 -1.8200
17496TIP3    H273904   1.589   5.725  16.940  0.6789 -1.3737 -1.4381
17497TIP3   OH273905   4.939   1.444  15.030  0.8151 -0.4626  0.1320
17497TIP3    H173906   4.931   1.355  14.995  1.4141 -0.7661  0.7535
17497TIP3    H273907   4.956   1.499  14.953  3.5335 -1.3115  0.0359
17498TIP3   OH273908   6.036   5.642  12.693 -0.1021 -0.0361 -0.5353
17498TIP3    H173909   6.031   5.572  12.759 -0.5932 -0.0059 -0.5398
17498TIP3    H273910   5.948   5.648  12.658  0.1129  0.0895 -1.0576
17499TIP3   OH273911   4.739   5.063   6.177  0.6409  0.2965  0.3895
17499TIP3    H173912   4.676   4.994   6.156  0.1456  0.7519  0.3654
17499TIP3    H273913   4.701   5.142   6.138  0.9180  0.6882  0.9186
17500TIP3   OH273914   2.257   1.414  15.699  0.4736  0.3706 -0.0229
17500TIP3    H173915   2.171   1.399  15.658  0.5117 -1.7543  0.5380
17500TIP3    H273916   2.285   1.499  15.666 -0.6162 -0.1158 -2.4264
17501TIP3   OH273917   0.800   4.095  17.150 -0.4227  0.2757  0.0397
17501TIP3    H173918   0.783   4.179  17.193  1.1263 -0.2942  1.8918
17501TIP3    H273919   0.822   4.036  17.221  1.9463 -0.8276 -1.4899
17502TIP3   OH273920   3.088   0.673  15.339 -0.2565  0.4030  0.1780
17502TIP3    H173921   3.176   0.672  15.377 -0.0526  0.8053 -0.2684
17502TIP3    H273922   3.032   0.633  15.405  0.5197 -1.3176 -0.1575
17503TIP3   OH273923   4.413   6.268  15.855 -0.2973  0.3965  0.3060
17503TIP3    H173924   4.418   6.173  15.858 -1.1123  0.2890 -1.0829
17503TIP3    H273925   4.448   6.292  15.770 -2.2611  1.1499 -0.3477
17504TIP3   OH273926   5.620   4.596  11.289  0.1700 -0.5416  0.3561
17504TIP3    H173927   5.601   4.505  11.310 -1.0698 -0.4438 -0.2745
17504TIP3    H273928   5.591   4.607  11.198  0.5080  0.4197  0.3497
17505TIP3   OH273929   5.095   1.576   0.288  0.1733 -0.3277  0.3704
17505TIP3    H173930   5.115   1.605   0.377 -0.7208 -1.7364  1.0870
17505TIP3    H273931   5.178   1.578   0.242  0.4633  1.4210  0.9234
17506TIP3   OH273932   3.601   6.460  12.228  0.4146  0.5613  0.1088
17506TIP3    H173933   3.511   6.491  12.236  0.1286 -0.5207  1.3335
17506TIP3    H273934   3.644   6.526  12.173 -1.1033  1.1059 -0.4859
17507TIP3   OH273935   4.872   6.763   2.902 -0.4972  0.4714 -0.5408
17507TIP3    H173936   4.846   6.674   2.927 -1.2186  1.1539  1.2860
17507TIP3    H273937   4.966   6.757   2.885 -0.0218 -0.1952  1.9644
17508TIP3   OH273938   1.268   5.171   5.835  0.3888  0.0801 -0.0466
17508TIP3    H173939   1.343   5.191   5.779  1.3773 -1.3694  0.6742
17508TIP3    H273940   1.192   5.183   5.779  1.3287 -1.4011 -1.7506
17509TIP3   OH273941   4.329   4.601   0.611  0.3053 -0.1223 -0.1197
17509TIP3    H173942   4.378   4.528   0.572  1.0519  0.3576 -0.0926
17509TIP3    H273943   4.308   4.571   0.699  1.1454 -0.0734  0.1070
17510TIP3   OH273944   5.874   3.981  14.470 -0.0619  0.3010  0.2864
17510TIP3    H173945   5.782   3.998  14.487 -0.5360 -1.3601 -0.3570
17510TIP3    H273946   5.901   4.051  14.411 -1.2990  0.0633 -0.6104
17511TIP3   OH273947   5.563   4.365  11.672  0.3048 -0.3101  0.5017
17511TIP3    H173948   5.629   4.434  11.671 -0.2983  0.3273 -1.8852
17511TIP3    H273949   5.610   4.287  11.702  2.6185 -0.2562 -2.5428
17512TIP3   OH273950   0.554   5.348   0.344 -0.4986  0.2033 -0.4295
17512TIP3    H173951   0.491   5.313   0.281 -0.1645 -0.3743 -0.4582
17512TIP3    H273952   0.640   5.332   0.303 -0.3378  1.1615 -0.4837
17513TIP3   OH273953   4.893   4.503  14.648 -0.1070  0.1138  0.4367
17513TIP3    H173954   4.942   4.574  14.606  0.5136 -0.0324  0.9084
17513TIP3    H273955   4.958   4.434  14.663 -0.8521 -0.8587 -0.6777
17514TIP3   OH273956   4.589   5.557   4.778  0.2418  0.2588 -0.2329
17514TIP3    H173957   4.550   5.626   4.833 -0.3950 -0.8952  0.8023
17514TIP3    H273958   4.518   5.531   4.720  0.0420 -0.4764  0.3247
17515TIP3   OH273959   3.405   3.293  11.821 -0.2898 -0.0786 -0.3725
17515TIP3    H173960   3.421   3.373  11.871 -1.5116 -0.0832  0.0522
17515TIP3    H273961   3.316   3.303  11.788 -1.1228 -1.9693  1.0886
17516TIP3   OH273962   2.521   5.307  15.224  0.0664  0.5654  0.1677
17516TIP3    H173963   2.531   5.218  15.258  1.4292  0.7308  0.2464
17516TIP3    H273964   2.460   5.298  15.151 -1.4635 -0.0863  1.4474
17517TIP3   OH273965   1.086   4.924   5.029 -0.2282 -0.1906 -0.0598
17517TIP3    H173966   1.068   4.855   4.965  0.6840 -1.5344  1.0434
17517TIP3    H273967   1.147   4.883   5.091  0.0857  1.5245  0.8299
17518TIP3   OH273968   0.724   0.439  11.472  0.2414  0.2121 -0.5872
17518TIP3    H173969   0.678   0.522  11.456 -0.0109 -0.1573 -1.8731
17518TIP3    H273970   0.770   0.454  11.555 -0.0361  1.5285 -0.6333
17519TIP3   OH273971   2.761   0.538  15.705  0.0640  0.1674  0.5564
17519TIP3    H173972   2.702   0.612  15.720 -1.5536 -1.1078  0.7686
17519TIP3    H273973   2.732   0.501  15.621  1.7025  0.5101 -0.2010
17520TIP3   OH273974   2.097   3.350  16.765  0.3450  0.6844  0.5026
17520TIP3    H173975   2.118   3.257  16.750  2.1986  1.2318 -0.5761
17520TIP3    H273976   2.179   3.396  16.751 -1.2248  2.8927 -2.4319
17521TIP3   OH273977   1.952   0.799  16.554  0.0541 -0.0638 -0.1111
17521TIP3    H173978   1.892   0.753  16.495  0.5221 -1.7079  0.6486
17521TIP3    H273979   1.920   0.778  16.642  0.0416  1.4380  0.2798
17522TIP3   OH273980   5.725   4.043   1.276  0.4700  0.6291 -0.5357
17522TIP3    H173981   5.669   3.985   1.328  1.0371  0.9188  0.4407
17522TIP3    H273982   5.686   4.130   1.288  1.2210  0.8636  0.3209
17523TIP3   OH273983   3.386   0.188   0.641  0.2100 -0.3825  0.2332
17523TIP3    H173984   3.428   0.103   0.650 -0.4323 -1.2495 -3.4717
17523TIP3    H273985   3.294   0.172   0.660  0.2601 -0.2392  0.6127
17524TIP3   OH273986   2.366   6.668  12.445 -0.2076  0.0060  0.2228
17524TIP3    H173987   2.336   6.581  12.469 -2.0837 -0.1254 -2.1174
17524TIP3    H273988   2.333   6.680  12.355  1.2407  2.5557 -0.0557
17525TIP3   OH273989   1.445   4.854  12.907  1.0053  0.3945 -0.0600
17525TIP3    H173990   1.457   4.860  12.813  1.8037  1.6520  0.0962
17525TIP3    H273991   1.382   4.783  12.919  1.5454 -0.3621 -1.4742
17526TIP3   OH273992   0.140   4.648  13.717 -0.1661  0.0863 -0.4039
17526TIP3    H173993   0.085   4.655  13.795 -0.9079  2.2133 -1.0408
17526TIP3    H273994   0.211   4.711  13.731  0.0354  0.0423 -1.1603
17527TIP3   OH273995   0.521   4.489   4.903 -0.4046  0.4994  0.3701
17527TIP3    H173996   0.605   4.492   4.948 -0.4651 -2.5154  0.9204
17527TIP3    H273997   0.544   4.484   4.810  0.0468 -0.1334  0.5085
17528TIP3   OH273998   6.461   2.468  15.510 -0.0999  0.0413  0.2433
17528TIP3    H173999   6.416   2.492  15.429 -0.8222  0.2195  0.6892
17528TIP3    H274000   6.390   2.450  15.572  0.4370  1.0071  1.1608
17529TIP3   OH274001   1.510   2.824  12.548  0.1412 -0.5481 -0.3335
17529TIP3    H174002   1.417   2.846  12.544  0.2923  0.5117  1.2667
17529TIP3    H274003   1.513   2.741  12.596  0.1077  0.3115  1.2052
17530TIP3   OH274004   5.154   0.815   0.537  0.1225  0.3514 -0.4747
17530TIP3    H174005   5.244   0.791   0.513  0.2542 -0.5509  0.8499
17530TIP3    H274006   5.126   0.748   0.599 -1.5987  0.4453 -1.0903
17531TIP3   OH274007   6.270   1.319   4.720  0.4468  0.1918  0.6652
17531TIP3    H174008   6.306   1.271   4.795 -0.1302 -1.2268  0.0665
17531TIP3    H274009   6.336   1.311   4.652 -0.0381 -0.5646  0.2689
17532TIP3   OH274010   2.343   2.005  13.534  0.2137  0.0247 -0.1273
17532TIP3    H174011   2.335   2.084  13.480  0.0566  0.3747  0.4009
17532TIP3    H274012   2.311   1.934  13.478 -0.2993  0.4378 -0.3656
17533TIP3   OH274013   1.505   1.840   0.499  0.4525  0.1416  0.6038
17533TIP3    H174014   1.411   1.840   0.519  0.2614  1.2067 -0.2253
17533TIP3    H274015   1.547   1.861   0.583 -0.1044  0.5693  0.7834
17534TIP3   OH274016   0.481   5.497  15.518 -0.2198 -0.1785 -0.1792
17534TIP3    H174017   0.509   5.463  15.603  1.0248  1.3820  0.0867
17534TIP3    H274018   0.435   5.424  15.477  0.8554 -1.5922  1.0171
17535TIP3   OH274019   1.122   2.075  12.846  0.0047 -0.6789 -0.0023
17535TIP3    H174020   1.155   2.079  12.756 -0.5538  0.2404 -0.1781
17535TIP3    H274021   1.078   2.159  12.859 -0.0491 -0.8629  1.0848
17536TIP3   OH274022   4.611   5.738  15.070 -0.4017 -0.2342 -0.0479
17536TIP3    H174023   4.689   5.777  15.109  0.1203 -0.7184 -0.5883
17536TIP3    H274024   4.545   5.742  15.139  0.3752 -0.6760  0.7402
17537TIP3   OH274025   3.044   1.501   5.155 -0.3495  0.5924 -0.1240
17537TIP3    H174026   3.038   1.407   5.168  0.6523  0.6494  0.9475
17537TIP3    H274027   3.053   1.512   5.060 -0.5887 -0.3739 -0.2633
17538TIP3   OH274028   5.876   6.442  16.159  0.3394  0.1946  0.1216
17538TIP3    H174029   5.845   6.522  16.200  1.5161  1.2014 -0.8656
17538TIP3    H274030   5.959   6.423  16.202  0.4161 -0.0886 -0.1443
17539TIP3   OH274031   4.633   3.618   3.634  0.2008  0.7655  0.1366
17539TIP3    H174032   4.712   3.592   3.682 -0.0143  1.7545  1.0675
17539TIP3    H274033   4.573   3.544   3.644  0.9217  0.0937 -0.3987
17540TIP3   OH274034   0.979   4.465  14.142  0.8552 -0.2755 -0.2055
17540TIP3    H174035   1.036   4.482  14.067  0.2610  0.9412 -0.4100
17540TIP3    H274036   1.016   4.519  14.212  0.2894  0.0814 -0.1801
17541TIP3   OH274037   5.510   4.678  15.727 -0.6854  0.1968 -0.0836
17541TIP3    H174038   5.563   4.723  15.793  1.1881 -1.0434 -0.6746
17541TIP3    H274039   5.451   4.746  15.694 -0.1223  1.3957  1.2828
17542TIP3   OH274040   0.521   1.198  13.687 -0.0728  0.9198  0.0031
17542TIP3    H174041   0.435   1.196  13.645 -0.5300  1.6396  0.8636
17542TIP3    H274042   0.584   1.191  13.615 -0.8478 -0.1035 -0.5985
17543TIP3   OH274043   5.218   0.496   3.673 -1.1004 -0.0297 -0.2116
17543TIP3    H174044   5.307   0.529   3.664 -1.4016  0.9252  0.2006
17543TIP3    H274045   5.185   0.490   3.583 -0.1099 -1.9184 -0.5019
17544TIP3   OH274046   4.860   3.080  16.645  0.3089  0.2470 -0.2555
17544TIP3    H174047   4.812   3.163  16.646  0.2075  0.1891 -0.2444
17544TIP3    H274048   4.798   3.018  16.608  0.6625  0.3481 -1.0404
17545TIP3   OH274049   6.812   1.477  13.676  0.2235  0.1534 -0.0503
17545TIP3    H174050   6.816   1.381  13.682  1.5669  0.2330  0.6199
17545TIP3    H274051   6.815   1.506  13.767 -2.9742  0.8041 -0.0213
17546TIP3   OH274052   5.111   3.961   0.644 -0.1654  0.2134 -0.5159
17546TIP3    H174053   5.186   3.913   0.608 -0.1428  1.2219 -1.9100
17546TIP3    H274054   5.066   3.898   0.699  3.1118  0.2447  2.5654
17547TIP3   OH274055   2.607   5.574  10.607  0.3830  0.2130  0.4496
17547TIP3    H174056   2.548   5.646  10.626  1.2742  0.3213  3.1826
17547TIP3    H274057   2.693   5.604  10.638  1.9518 -0.0448 -3.0841
17548TIP3   OH274058   1.380   3.471   4.325 -0.0123 -0.5013 -0.0991
17548TIP3    H174059   1.327   3.501   4.252  0.3017 -1.1801 -0.6237
17548TIP3    H274060   1.431   3.547   4.351  0.2395 -0.3798 -0.9254
17549TIP3   OH274061   5.201   1.961  16.267  0.1553 -0.4200  0.3637
17549TIP3    H174062   5.173   2.044  16.227 -1.3849  0.7949  3.5598
17549TIP3    H274063   5.297   1.967  16.269  0.0827  1.6268  0.9640
17550TIP3   OH274064   5.378   6.221   4.021 -0.1365  0.7283 -0.6577
17550TIP3    H174065   5.451   6.163   3.999 -0.2821  0.4603 -0.4311
17550TIP3    H274066   5.311   6.201   3.956  0.5755  2.1091 -1.8920
17551TIP3   OH274067   1.550   5.560   1.146 -0.2768 -0.4816  0.0415
17551TIP3    H174068   1.497   5.639   1.153  0.9539  0.3864 -0.1626
17551TIP3    H274069   1.563   5.532   1.237 -1.1792 -0.7833  0.0875
17552TIP3   OH274070   1.208   2.777   4.405  0.3224 -0.7647 -0.5352
17552TIP3    H174071   1.274   2.830   4.450  0.3307 -1.9472  0.9304
17552TIP3    H274072   1.149   2.841   4.366  0.2737  0.3731  1.2593
17553TIP3   OH274073   6.264   5.394  16.354 -0.2328 -0.2005 -0.2656
17553TIP3    H174074   6.292   5.331  16.287  0.8133 -0.9466  0.8298
17553TIP3    H274075   6.316   5.472  16.335  0.1680 -0.4559 -0.2498
17554TIP3   OH274076   3.581   1.211   3.566  0.4751 -0.4204 -0.3403
17554TIP3    H174077   3.516   1.171   3.624  0.3540  1.0607  0.5982
17554TIP3    H274078   3.665   1.189   3.605  0.3796  2.8914  2.1982
17555TIP3   OH274079   0.252   6.068   5.178 -0.1849  0.1569  0.4842
17555TIP3    H174080   0.322   6.080   5.242 -1.2415  0.7161  1.5683
17555TIP3    H274081   0.280   5.993   5.125  0.3932 -0.7862  2.0764
17556TIP3   OH274082   4.253   6.144  14.359 -0.0863  0.0247  0.4001
17556TIP3    H174083   4.222   6.130  14.448  0.8264  1.4077  0.9557
17556TIP3    H274084   4.192   6.207  14.321 -0.6945 -0.8386 -0.1092
17557TIP3   OH274085   3.044   3.192   2.415  0.2230 -0.2929 -0.1344
17557TIP3    H174086   3.009   3.251   2.482 -0.6335  0.1680 -0.9643
17557TIP3    H274087   3.127   3.163   2.451  0.2520  0.7242  0.6951
17558TIP3   OH274088   5.594   2.827   3.375  0.3742 -0.1957 -0.1630
17558TIP3    H174089   5.661   2.760   3.359  0.4644 -0.6348  1.8076
17558TIP3    H274090   5.577   2.864   3.289  0.2217 -2.8352 -1.3766
17559TIP3   OH274091   2.725   3.204   0.383 -0.3248 -0.0760  0.0768
17559TIP3    H174092   2.699   3.281   0.434  0.2230  0.2486 -0.1356
17559TIP3    H274093   2.759   3.239   0.301  1.3629 -0.4315  0.5727
17560TIP3   OH274094   1.868   2.554   4.970 -0.1484  0.3063 -0.4371
17560TIP3    H174095   1.850   2.464   4.943  1.0786  0.2847 -1.2423
17560TIP3    H274096   1.891   2.547   5.062 -0.4000 -0.1615 -0.4064
17561TIP3   OH274097   4.136   6.027  13.502 -0.1215 -0.1980  0.0933
17561TIP3    H174098   4.091   6.095  13.552  0.6372  0.7449 -0.4715
17561TIP3    H274099   4.199   5.990  13.564 -1.0891 -0.9681  0.6423
17562TIP3   OH274100   6.514   6.162   0.707  0.6115  0.3983  0.3118
17562TIP3    H174101   6.554   6.187   0.790 -0.1785 -0.8243  1.0909
17562TIP3    H274102   6.549   6.074   0.689 -1.0425 -0.3587  0.6051
17563TIP3   OH274103   4.197   1.531  14.478 -0.2622 -0.8193  0.3797
17563TIP3    H174104   4.279   1.498  14.439 -0.6472 -0.2849 -0.9058
17563TIP3    H274105   4.221   1.550  14.569  0.9037 -1.1796  0.1727
17564TIP3   OH274106   3.496   2.888  14.275  0.0827 -0.9634 -0.0277
17564TIP3    H174107   3.452   2.971  14.293  0.4267 -0.5550 -0.9810
17564TIP3    H274108   3.437   2.843  14.214 -1.1768 -2.4177  2.1622
17565TIP3   OH274109   4.589   5.587  13.056  0.0515  0.5468 -0.2805
17565TIP3    H174110   4.505   5.553  13.087  0.8915 -1.0550  0.3373
17565TIP3    H274111   4.578   5.682  13.059 -1.3266  0.3984  0.9416
17566TIP3   OH274112   0.455   1.399  15.793  0.7415  0.0274 -0.0180
17566TIP3    H174113   0.393   1.471  15.808  1.4007  0.3606  1.2993
17566TIP3    H274114   0.419   1.326  15.842  1.8740  0.5249  1.6425
17567TIP3   OH274115   4.617   2.373  11.630 -0.2081 -1.0140  0.2171
17567TIP3    H174116   4.624   2.421  11.712 -4.0345 -2.1095  1.3483
17567TIP3    H274117   4.641   2.283  11.652 -0.0400 -1.0705 -0.1813
17568TIP3   OH274118   4.823   1.870  11.457 -0.2199 -0.8789  0.0287
17568TIP3    H174119   4.746   1.925  11.475  0.8792  0.5480  0.5377
17568TIP3    H274120   4.884   1.889  11.528  1.3742 -0.5221 -1.3764
17569TIP3   OH274121   6.005   3.196  14.275 -0.2076 -0.8340 -0.5950
17569TIP3    H174122   5.982   3.134  14.205 -0.8883 -1.5517  0.2454
17569TIP3    H274123   5.965   3.278  14.247 -0.3151 -1.0694 -1.1487
17570TIP3   OH274124   1.037   1.828  12.145  0.1376 -0.3639 -0.3336
17570TIP3    H174125   1.100   1.809  12.214  0.0402 -0.8023 -0.3595
17570TIP3    H274126   1.086   1.877  12.079  0.2071  0.1406  0.0867
17571TIP3   OH274127   5.640   5.955   5.632 -0.1737 -0.2959 -0.2485
17571TIP3    H174128   5.589   6.031   5.660  0.2658  0.1776 -0.7352
17571TIP3    H274129   5.624   5.949   5.538  0.7081 -0.1173 -0.4114
17572TIP3   OH274130   5.371   3.575   1.924  0.5631 -0.1945  0.3114
17572TIP3    H174131   5.322   3.584   2.006 -0.8519 -0.3841 -0.4780
17572TIP3    H274132   5.373   3.663   1.888 -1.3151 -0.5474 -0.7896
17573TIP3   OH274133   3.826   5.697   3.226 -0.0944  0.4128 -0.3909
17573TIP3    H174134   3.880   5.624   3.195  1.9007  0.5549  2.4051
17573TIP3    H274135   3.790   5.667   3.309 -1.7803  1.5402 -0.6622
17574TIP3   OH274136   3.453   4.583  16.145 -0.2330  0.0785  0.4491
17574TIP3    H174137   3.474   4.575  16.052 -2.5647 -2.5929  0.0181
17574TIP3    H274138   3.533   4.618  16.184  1.6256 -0.8064 -2.2452
17575TIP3   OH274139   0.084   3.628   3.623  0.1170 -0.2636  0.0935
17575TIP3    H174140   0.080   3.576   3.704 -0.9205 -1.1430 -0.5005
17575TIP3    H274141   0.133   3.573   3.562  0.9838  0.4401  0.1372
17576TIP3   OH274142   2.029   1.003   3.346  0.0714  0.2713  0.3476
17576TIP3    H174143   1.945   1.033   3.380 -0.3865 -0.2426 -0.2858
17576TIP3    H274144   2.091   1.072   3.369 -1.0317  1.9732 -1.4767
17577TIP3   OH274145   4.517   4.544  12.425  0.3131  0.4271  0.4753
17577TIP3    H174146   4.595   4.520  12.474  1.0256 -0.6639 -1.1308
17577TIP3    H274147   4.445   4.499  12.470  0.8821 -0.2156  0.7527
17578TIP3   OH274148   4.993   4.235   5.157  0.1656 -0.3791  0.2747
17578TIP3    H174149   4.943   4.153   5.160 -0.0007 -0.2472  1.9188
17578TIP3    H274150   5.084   4.206   5.147  0.0849 -0.7567  0.5920
17579TIP3   OH274151   4.276   4.713   1.773  0.0023  0.2153 -0.6821
17579TIP3    H174152   4.335   4.788   1.760 -0.5812  0.6333 -0.9945
17579TIP3    H274153   4.201   4.750   1.819  0.2228 -0.4303  0.2172
17580TIP3   OH274154   2.319   1.564   0.937  0.2262 -0.0422 -0.9961
17580TIP3    H174155   2.322   1.486   0.992 -0.7156 -0.4088 -1.4465
17580TIP3    H274156   2.394   1.616   0.965  0.7277 -0.9963 -0.5211
17581TIP3   OH274157   1.940   4.012  13.686 -0.0260 -0.0351  0.8224
17581TIP3    H174158   2.014   3.952  13.690 -0.8580 -1.0622  1.5581
17581TIP3    H274159   1.863   3.955  13.685 -0.8209  0.9871 -0.1986
17582TIP3   OH274160   1.233   4.954   6.517  0.0488  0.4335 -0.6455
17582TIP3    H174161   1.265   5.037   6.481 -0.5443  0.9955  0.0865
17582TIP3    H274162   1.138   4.965   6.522 -0.1331 -0.6128 -1.3148
17583TIP3   OH274163   4.400   4.073  15.483 -0.1561  0.0648 -0.0841
17583TIP3    H174164   4.401   3.978  15.497  0.9145 -0.1249 -1.3354
17583TIP3    H274165   4.315   4.091  15.443  0.7056 -0.7905 -2.4176
17584TIP3   OH274166   3.959   0.249   3.804  0.0667  0.0332  0.1888
17584TIP3    H174167   4.050   0.267   3.828  0.9154 -1.9919 -1.2739
17584TIP3    H274168   3.914   0.242   3.888  1.2954  0.7868  0.9534
17585TIP3   OH274169   2.993   0.810  16.600 -0.0029  0.0422 -0.7064
17585TIP3    H174170   2.960   0.884  16.548  1.9522  1.2904 -0.3029
17585TIP3    H274171   2.915   0.764  16.629 -1.4587  2.9631  0.4346
17586TIP3   OH274172   6.339   5.263   0.017  0.0698 -0.7280  0.0192
17586TIP3    H174173   6.302   5.288  -0.068 -0.8680  0.3319  0.7166
17586TIP3    H274174   6.395   5.336   0.041  0.9201 -1.3525 -0.0056
17587TIP3   OH274175   2.930   2.204  14.587  0.1600  0.1683 -0.1804
17587TIP3    H174176   2.859   2.269  14.592  1.9607  2.1662  0.8470
17587TIP3    H274177   2.996   2.237  14.648  2.1584 -1.4233 -1.4006
17588TIP3   OH274178   3.860   5.560  14.524  0.7934 -0.1065 -0.5026
17588TIP3    H174179   3.855   5.485  14.584  1.3719  1.1818  1.2523
17588TIP3    H274180   3.945   5.599  14.543  0.1378  1.4901 -0.7545
17589TIP3   OH274181   5.914   1.642  10.401 -0.4460 -0.1443 -0.0696
17589TIP3    H174182   5.836   1.646  10.346 -0.1959  0.6212 -0.3765
17589TIP3    H274183   5.881   1.637  10.491 -0.8485 -0.8474 -0.2502
17590TIP3   OH274184   5.050   2.820  16.009  0.2618  0.0709  0.5599
17590TIP3    H174185   5.144   2.834  16.000  0.9989 -3.7288  0.6649
17590TIP3    H274186   5.032   2.746  15.951 -2.2996 -0.4785  1.9323
17591TIP3   OH274187   5.629   0.615  13.103 -0.4847  0.2817 -0.7033
17591TIP3    H174188   5.698   0.587  13.043 -1.1317 -1.5756 -0.6372
17591TIP3    H274189   5.616   0.708  13.083  2.6582  0.9476 -0.0640
17592TIP3   OH274190   0.460   2.077  12.693 -0.7742  0.0769  0.2032
17592TIP3    H174191   0.534   2.127  12.658 -1.4363 -0.7353 -2.6965
17592TIP3    H274192   0.486   1.985  12.683 -1.6294 -0.1923  0.3780
17593TIP3   OH274193   3.327   0.094  12.824  0.3455 -0.3089  0.2947
17593TIP3    H174194   3.356   0.174  12.782  0.5170  0.4082  1.7152
17593TIP3    H274195   3.262   0.057  12.764 -0.4211  1.3786  0.0322
17594TIP3   OH274196   1.623   3.939  14.367  0.3551 -0.1742  0.4841
17594TIP3    H174197   1.690   3.871  14.360 -0.7267 -1.1328 -0.9782
17594TIP3    H274198   1.605   3.945  14.461  0.8446 -1.5370  0.6907
17595TIP3   OH274199   4.931   4.467  12.918 -0.2218  0.2176 -0.3483
17595TIP3    H174200   4.915   4.559  12.895 -0.3617 -0.0445 -1.3425
17595TIP3    H274201   5.010   4.444  12.869 -0.2123 -0.2050 -0.1327
17596TIP3   OH274202   4.248   3.187  14.816 -0.1333 -0.4484  0.0278
17596TIP3    H174203   4.236   3.218  14.727 -0.8976 -2.6996 -0.7092
17596TIP3    H274204   4.284   3.262  14.863 -2.0012  1.5671 -1.5735
17597TIP3   OH274205   6.574   4.165  14.891  0.2006 -0.2419  0.2662
17597TIP3    H174206   6.571   4.176  14.986  0.6849  2.6632  0.0474
17597TIP3    H274207   6.495   4.210  14.859 -0.3640 -1.8465 -0.7080
17598TIP3   OH274208   2.933   5.412   5.023 -0.1547  0.2937 -0.1640
17598TIP3    H174209   2.940   5.504   5.050  1.6096  0.0344  0.4145
17598TIP3    H274210   2.941   5.363   5.104 -0.9824 -0.3941 -0.4873
17599TIP3   OH274211   6.560   6.532   1.209 -0.0739  0.0409  0.2243
17599TIP3    H174212   6.548   6.501   1.119 -1.2997  0.0857  0.3565
17599TIP3    H274213   6.614   6.611   1.199 -1.4829  0.9447 -0.6534
17600TIP3   OH274214   4.159   2.839   3.859  0.2972 -0.1676  0.1265
17600TIP3    H174215   4.090   2.853   3.924  0.7201 -0.8196  0.7242
17600TIP3    H274216   4.217   2.914   3.870 -0.0757  0.1542 -0.0737
17601TIP3   OH274217   3.507   5.976  16.825  0.0220  0.4562 -0.1627
17601TIP3    H174218   3.418   5.994  16.793 -0.2692 -0.4595  0.0835
17601TIP3    H274219   3.500   5.890  16.867  1.0257  0.3792 -0.1283
17602TIP3   OH274220   2.767   1.812   0.816  0.1514  0.3548  0.1894
17602TIP3    H174221   2.680   1.846   0.794  0.7243  1.5623 -0.3606
17602TIP3    H274222   2.782   1.741   0.754 -1.7877 -2.2729  2.4782
17603TIP3   OH274223   4.551   2.570   1.918 -0.6897 -0.1199 -0.0107
17603TIP3    H174224   4.477   2.607   1.870 -0.0690 -0.2602 -1.0882
17603TIP3    H274225   4.573   2.490   1.871  1.9500  1.3349 -1.4480
17604TIP3   OH274226   1.519   0.426  15.437  0.1522 -0.2495 -0.3619
17604TIP3    H174227   1.605   0.402  15.472 -0.2324  0.7201  1.3726
17604TIP3    H274228   1.538   0.467  15.353  1.3450 -0.4521 -0.2102
17605TIP3   OH274229   4.629   4.688   4.468 -0.2416  0.1215 -0.4727
17605TIP3    H174230   4.577   4.742   4.526  1.7035  1.3606  0.2205
17605TIP3    H274231   4.683   4.634   4.526 -2.4694 -3.1295 -1.1089
17606TIP3   OH274232   3.780   4.525  12.035  0.2476 -0.0908  0.5927
17606TIP3    H174233   3.700   4.576  12.045  0.9304  0.7752  1.8634
17606TIP3    H274234   3.802   4.533  11.942 -0.8988  0.0080  0.3144
17607TIP3   OH274235   5.760   4.167   3.286  0.0708 -0.0106  0.3590
17607TIP3    H174236   5.789   4.137   3.200 -0.3832  1.3574 -0.3000
17607TIP3    H274237   5.664   4.170   3.279  0.0907  1.4321  0.4293
17608TIP3   OH274238   2.593   2.380  13.183 -0.7958  0.1141  0.6398
17608TIP3    H174239   2.659   2.401  13.250 -0.1948 -0.3728  0.2154
17608TIP3    H274240   2.632   2.410  13.101 -0.8842 -0.6044  0.3250
17609TIP3   OH274241   3.009   1.058   3.847 -0.2331 -0.1122  0.1913
17609TIP3    H174242   2.970   0.980   3.807 -0.8739  0.2784  0.0438
17609TIP3    H274243   2.983   1.130   3.790  2.4474 -0.0690 -1.1113
17610TIP3   OH274244   1.537   2.320   2.646  0.6143  0.1251 -0.1771
17610TIP3    H174245   1.480   2.274   2.708  0.5472  0.8766  0.3249
17610TIP3    H274246   1.562   2.252   2.582  0.1661 -0.5023  0.2995
17611TIP3   OH274247   5.567   1.765   2.856 -0.2115 -0.1632  0.1127
17611TIP3    H174248   5.594   1.825   2.926  2.7836 -1.9127  0.6478
17611TIP3    H274249   5.513   1.700   2.900  1.4814 -1.1355  0.8482
17612TIP3   OH274250   2.308   2.524   4.606  0.1302  0.1335 -0.0388
17612TIP3    H174251   2.283   2.512   4.514  0.9934 -0.6946 -0.1715
17612TIP3    H274252   2.393   2.568   4.602  0.9910 -1.4396  0.3166
17613TIP3   OH274253   2.375   1.873  15.334  0.7587  0.0331  0.5075
17613TIP3    H174254   2.458   1.911  15.362  1.5301 -1.2698  0.0911
17613TIP3    H274255   2.322   1.948  15.306  2.5059  0.7462 -1.0669
17614TIP3   OH274256   2.896   2.248  13.506 -0.3886  0.3995  0.0970
17614TIP3    H174257   2.836   2.322  13.520 -0.5472  0.1750  0.6412
17614TIP3    H274258   2.882   2.222  13.415 -2.4903 -0.8200  0.7026
17615TIP3   OH274259   5.053   4.167   1.731 -0.0627  0.1510 -0.8510
17615TIP3    H174260   4.958   4.160   1.727 -0.0662  0.4922 -1.5271
17615TIP3    H274261   5.070   4.226   1.804 -0.2912 -1.2783  0.4115
17616TIP3   OH274262   4.629   2.568  14.676  0.0310  0.4270 -0.1850
17616TIP3    H174263   4.661   2.607  14.756  0.9333  0.4756 -0.5600
17616TIP3    H274264   4.542   2.607  14.662  0.9645  2.4609 -0.6571
17617TIP3   OH274265   2.510   5.927   6.239 -0.0083 -0.2318 -0.0403
17617TIP3    H174266   2.599   5.928   6.276 -0.4066  0.1788  0.9450
17617TIP3    H274267   2.508   6.001   6.179  0.9830 -1.5262 -1.7728
17618TIP3   OH274268   4.637   6.642  10.899  0.0195 -0.4884 -0.5576
17618TIP3    H174269   4.618   6.671  10.988 -1.8878 -0.5630 -0.8958
17618TIP3    H274270   4.732   6.642  10.894  0.1602  1.1690  0.9427
17619TIP3   OH274271   3.482   6.242  11.019 -0.0244  0.2594 -0.2452
17619TIP3    H174272   3.407   6.184  11.006  0.5919 -0.9005  1.0891
17619TIP3    H274273   3.508   6.268  10.930 -1.0787 -0.5066 -0.7983
17620TIP3   OH274274   3.401   2.843  13.776  0.2471 -0.7093 -0.6634
17620TIP3    H174275   3.449   2.918  13.811 -0.0713  0.0675 -1.8393
17620TIP3    H274276   3.311   2.857  13.806 -0.3061  0.6405 -2.7085
17621TIP3   OH274277   2.105   5.916  13.693 -0.0054  0.2990  0.5496
17621TIP3    H174278   2.182   5.877  13.652  0.9458  2.3925  0.2365
17621TIP3    H274279   2.137   5.996  13.734 -1.5749 -0.0093  2.5669
17622TIP3   OH274280   4.845   0.870   3.397 -0.4746 -0.0956  0.2274
17622TIP3    H174281   4.773   0.872   3.333  0.7492 -0.1699 -1.2146
17622TIP3    H274282   4.813   0.923   3.470 -1.8492  0.1962 -0.5453
17623TIP3   OH274283   2.281   6.303   0.808 -0.5096  0.4001 -0.0045
17623TIP3    H174284   2.371   6.306   0.841  0.2402 -1.6244 -1.6362
17623TIP3    H274285   2.284   6.350   0.724 -0.6747 -0.6123 -0.5992
17624TIP3   OH274286   5.463   6.089   4.511  0.1968  0.3272 -0.1451
17624TIP3    H174287   5.481   5.997   4.493  0.7566  0.2975  0.5112
17624TIP3    H274288   5.391   6.112   4.451  0.1924 -0.4725 -0.4588
17625TIP3   OH274289   4.523   3.719  13.452  0.3498  0.0099  0.3285
17625TIP3    H174290   4.613   3.701  13.479  1.2994  0.7028 -2.1120
17625TIP3    H274291   4.507   3.656  13.381 -0.9095  0.2262  0.4071
17626TIP3   OH274292   1.431   0.661  12.082  0.2203 -0.0513 -0.6641
17626TIP3    H174293   1.512   0.635  12.125 -0.3937  0.5826  0.9488
17626TIP3    H274294   1.460   0.716  12.009  1.2529 -0.2296 -0.4094
17627TIP3   OH274295   6.555   5.978   0.070  0.6623 -0.4341  0.9872
17627TIP3    H174296   6.540   6.069   0.044 -0.9575 -1.2535 -1.1593
17627TIP3    H274297   6.587   5.984   0.160 -1.5539  2.1683  1.7171
17628TIP3   OH274298   4.016   6.286   4.287 -0.0412  0.1700  0.9112
17628TIP3    H174299   3.969   6.320   4.211  0.0033 -1.3328  0.1498
17628TIP3    H274300   4.106   6.317   4.275  0.0822 -0.4798  0.0365
17629TIP3   OH274301   1.523   6.631   4.150  0.2526  0.5234  0.4914
17629TIP3    H174302   1.454   6.572   4.179  1.3206 -1.0570 -0.0636
17629TIP3    H274303   1.603   6.578   4.151  1.0094  1.5043 -1.4913
17630TIP3   OH274304   4.217   0.895   2.266 -0.5213 -0.2949  0.3281
17630TIP3    H174305   4.273   0.937   2.200  0.6125 -2.2143 -0.0254
17630TIP3    H274306   4.152   0.961   2.288 -0.7477  0.5523 -2.4740
17631TIP3   OH274307   5.588   6.630   3.770 -0.1784  0.0098 -0.1095
17631TIP3    H174308   5.526   6.639   3.842  0.2772  2.4463  0.0811
17631TIP3    H274309   5.630   6.546   3.785 -1.5855 -0.5062  1.2482
17632TIP3   OH274310   1.126   1.269  14.131  0.0970 -0.0067 -0.4861
17632TIP3    H174311   1.215   1.303  14.135 -0.9048  3.1700 -2.2017
17632TIP3    H274312   1.112   1.230  14.218  2.2553  1.8234  0.7989
17633TIP3   OH274313   0.757   5.954  12.771  0.3292 -0.3674  0.5145
17633TIP3    H174314   0.661   5.957  12.767  0.1753 -0.1312  2.9815
17633TIP3    H274315   0.782   6.039  12.808  1.4087 -0.9008  1.0433
17634TIP3   OH274316   3.356   0.961   4.930  0.0268  0.3387  0.3157
17634TIP3    H174317   3.342   0.976   4.837 -0.9664 -1.0090  0.2134
17634TIP3    H274318   3.277   0.915   4.959 -0.2422  1.7569  2.0994
17635TIP3   OH274319   6.693   4.861   1.130  0.1134 -0.3420 -0.2852
17635TIP3    H174320   6.668   4.908   1.050  2.5321 -1.6287 -1.9296
17635TIP3    H274321   6.729   4.929   1.187  0.6584  0.2960 -1.3430
17636TIP3   OH274322   0.567   3.858  15.618 -0.5617 -0.0190 -0.1689
17636TIP3    H174323   0.544   3.948  15.594 -1.4329 -0.7502 -2.3405
17636TIP3    H274324   0.651   3.842  15.576 -0.3759 -0.1990  0.2661
17637TIP3   OH274325   4.761   3.263  15.286 -0.3274 -0.2674  0.3575
17637TIP3    H174326   4.714   3.186  15.319  0.1116  0.2187  2.2246
17637TIP3    H274327   4.787   3.311  15.365 -0.6853  1.8750 -0.7559
17638TIP3   OH274328   0.554   4.533  14.931 -0.3562  0.2287  0.1157
17638TIP3    H174329   0.494   4.524  14.856 -1.5764 -0.3980  1.1264
17638TIP3    H274330   0.531   4.460  14.988  2.2022 -0.7260  0.0123
17639TIP3   OH274331   6.499   4.499  11.532  0.4082  0.1708  0.3114
17639TIP3    H174332   6.523   4.561  11.463 -1.1887  0.6231  0.1103
17639TIP3    H274333   6.577   4.446  11.546  0.8967  0.3294 -1.5712
17640TIP3   OH274334   4.614   6.130  17.132  0.3326 -0.5546  0.3568
17640TIP3    H174335   4.548   6.111  17.199  0.0642  3.1981  1.3684
17640TIP3    H274336   4.697   6.135  17.180  0.9498 -2.3038 -0.4322
17641TIP3   OH274337   3.415   3.603  13.802  0.1588 -0.2221  0.1134
17641TIP3    H174338   3.327   3.565  13.809 -0.5208  1.4189  0.9431
17641TIP3    H274339   3.458   3.551  13.735 -1.7057 -0.5766 -0.8738
17642TIP3   OH274340   1.417   2.232  11.853  0.1145  0.5578  0.1181
17642TIP3    H174341   1.493   2.284  11.827  0.7898 -0.5884 -0.2817
17642TIP3    H274342   1.365   2.224  11.773  0.5316 -0.2165 -0.0875
17643TIP3   OH274343   4.344   4.890   1.449 -0.5462 -0.6982  0.0271
17643TIP3    H174344   4.373   4.930   1.531 -1.3766 -1.6936  0.8441
17643TIP3    H274345   4.383   4.803   1.450 -1.0954 -0.9544 -0.3170
17644TIP3   OH274346   4.429   6.310  12.383 -0.3708  0.1515 -0.5896
17644TIP3    H174347   4.520   6.337  12.366  0.1848 -1.4609 -0.3240
17644TIP3    H274348   4.415   6.237  12.323 -0.5835 -1.3394  1.1974
17645TIP3   OH274349   6.177   5.193   1.672 -0.2484  0.3760  0.3434
17645TIP3    H174350   6.140   5.221   1.588  2.0172  0.1008 -0.8040
17645TIP3    H274351   6.139   5.253   1.736 -1.1181  1.3445 -1.0308
17646TIP3   OH274352   5.570   2.326   0.349  0.4016 -0.4512 -1.0580
17646TIP3    H174353   5.563   2.316   0.254 -0.7958 -0.3871 -0.9968
17646TIP3    H274354   5.559   2.237   0.384  1.2740 -0.5386 -0.9909
17647TIP3   OH274355   6.053   1.895  13.192  0.3675 -0.2473  0.1786
17647TIP3    H174356   6.108   1.835  13.141  2.1132  0.0053  1.6683
17647TIP3    H274357   6.068   1.980  13.152 -0.6730 -0.4876 -0.7739
17648TIP3   OH274358   6.317   1.945  14.484  0.1586 -0.1154 -0.2084
17648TIP3    H174359   6.295   1.889  14.409 -0.9977  0.8097 -0.5899
17648TIP3    H274360   6.252   1.922  14.551  0.8825 -0.5843  0.3531
17649TIP3   OH274361   0.147   5.382   1.809  0.4567 -0.4832 -0.2522
17649TIP3    H174362   0.179   5.305   1.856  0.7511 -1.4410 -1.9333
17649TIP3    H274363   0.198   5.455   1.845  0.3199 -1.0913  1.2252
17650TIP3   OH274364   0.039   4.685   0.295 -0.8190  0.7192  1.1298
17650TIP3    H174365   0.097   4.754   0.261 -1.2988  0.2587 -0.7507
17650TIP3    H274366   0.022   4.711   0.386  0.0850  2.3565  0.8792
17651TIP3   OH274367   0.809   1.051  10.905 -0.1585 -0.2929 -0.2508
17651TIP3    H174368   0.888   1.081  10.861 -0.1141  0.6855  0.4661
17651TIP3    H274369   0.770   1.131  10.942 -1.4303 -0.7676 -0.5089
17652TIP3   OH274370   5.090   2.700  14.095  0.3218 -0.4647  0.3527
17652TIP3    H174371   5.155   2.768  14.115  0.9991 -1.3918  1.4071
17652TIP3    H274372   5.008   2.733  14.133  0.7414 -0.4083  1.2387
17653TIP3   OH274373   3.399   5.310  17.120  0.2491 -0.1877 -0.2795
17653TIP3    H174374   3.399   5.227  17.071  0.2909 -0.2608 -0.1545
17653TIP3    H274375   3.340   5.367  17.070 -1.9472 -1.1423  1.0770
17654TIP3   OH274376   3.509   2.332   2.920 -0.2308  0.4251  0.8072
17654TIP3    H174377   3.462   2.249   2.911 -0.7159  0.8306 -0.6681
17654TIP3    H274378   3.601   2.308   2.910 -0.3830  0.0849  0.1789
17655TIP3   OH274379   5.105   4.639   1.178  0.2066  0.1967  0.7216
17655TIP3    H174380   5.171   4.685   1.124 -0.2470 -0.2357 -0.2213
17655TIP3    H274381   5.055   4.710   1.219  0.4829  0.5383  0.4818
17656TIP3   OH274382   3.536   3.402  16.818  0.1275  0.2854  0.1558
17656TIP3    H174383   3.588   3.417  16.896  1.1320  0.3927 -0.5069
17656TIP3    H274384   3.451   3.441  16.837  0.6400  1.0837  0.8584
17657TIP3   OH274385   6.253   5.149  16.184 -0.1389 -0.1896  0.0676
17657TIP3    H174386   6.197   5.113  16.252  0.7762 -2.3206 -0.2363
17657TIP3    H274387   6.193   5.168  16.111 -0.5159 -2.5868 -0.3201
17658TIP3   OH274388   6.774   2.938   4.498  0.8124 -0.2780 -0.4538
17658TIP3    H174389   6.754   2.923   4.406  0.5482 -0.1361 -0.4187
17658TIP3    H274390   6.770   3.033   4.509  1.6335 -0.2320 -0.4766
17659TIP3   OH274391   6.321   5.954  15.968 -0.5980 -0.1546 -0.0333
17659TIP3    H174392   6.281   5.993  15.891  0.4031 -1.5936 -1.3341
17659TIP3    H274393   6.330   6.027  16.030 -0.5721  1.2443 -1.6144
17660TIP3   OH274394   1.478   1.240  17.048  0.2058 -0.2038  0.0142
17660TIP3    H174395   1.388   1.252  17.078  0.0368 -1.7290  0.2182
17660TIP3    H274396   1.531   1.251  17.127  0.2221  0.8115 -0.1298
17661TIP3   OH274397   2.041   2.305  13.443 -0.1758 -0.3365 -0.0120
17661TIP3    H174398   2.095   2.385  13.448 -1.0130  0.1721  1.5359
17661TIP3    H274399   1.969   2.329  13.385  0.2321 -0.3927 -0.5534
17662TIP3   OH274400   0.071   3.385  14.823 -0.0664 -0.0890  0.0471
17662TIP3    H174401   0.025   3.467  14.805  0.1086  0.0293  0.1300
17662TIP3    H274402   0.090   3.348  14.737  0.1230  0.1106  0.0017
17663TIP3   OH274403   3.619   1.022  16.063  0.3074 -0.3220 -0.0675
17663TIP3    H174404   3.650   1.109  16.088  2.0255 -0.5238 -1.3315
17663TIP3    H274405   3.698   0.967  16.065 -0.1335 -1.1260 -2.3111
17664TIP3   OH274406   4.457   2.748   1.244  0.5427  0.2305  0.2127
17664TIP3    H174407   4.496   2.836   1.235  0.1503  0.2941 -1.1213
17664TIP3    H274408   4.381   2.750   1.186 -0.1708 -0.6152  1.1063
17665TIP3   OH274409   2.712   5.596   5.247  0.5138  0.1330 -0.0185
17665TIP3    H174410   2.669   5.519   5.282  0.7528  0.1112  0.2322
17665TIP3    H274411   2.656   5.625   5.175  0.8868 -0.8048 -0.7095
17666TIP3   OH274412   6.305   5.774   2.580 -0.0474  0.2972  0.2030
17666TIP3    H174413   6.226   5.722   2.568  0.5697  0.0084 -4.0009
17666TIP3    H274414   6.372   5.711   2.604 -0.3081 -0.0506  0.0164
17667TIP3   OH274415   3.665   0.963   0.129  0.5444 -0.7740  0.1285
17667TIP3    H174416   3.594   0.901   0.112 -1.4716  1.7287 -1.1513
17667TIP3    H274417   3.704   0.978   0.042 -0.3854  1.2920  0.0352
17668TIP3   OH274418   3.067   0.938  15.350  0.3755  0.0095 -0.2867
17668TIP3    H174419   3.055   0.985  15.268 -0.4190 -0.8921 -0.6969
17668TIP3    H274420   3.070   0.846  15.326  2.5948 -0.1653  0.4403
17669TIP3   OH274421   0.463   4.722  13.296 -0.5410  0.1775 -0.4512
17669TIP3    H174422   0.441   4.654  13.231  0.7859 -1.5687  0.8067
17669TIP3    H274423   0.558   4.729  13.291 -0.4549  0.3264  0.9580
17670TIP3   OH274424   5.763   4.019  11.980  0.8735 -0.3932 -0.1724
17670TIP3    H174425   5.722   3.973  12.053  0.6161 -2.1070 -1.3275
17670TIP3    H274426   5.836   4.068  12.020 -0.5177  0.4347  1.4938
17671TIP3   OH274427   4.366   4.861  15.142 -0.3660  0.1096 -0.7460
17671TIP3    H174428   4.348   4.935  15.199 -3.1184 -1.5266  0.7283
17671TIP3    H274429   4.350   4.894  15.054  1.2872  1.9593 -0.4015
17672TIP3   OH274430   1.617   4.371   4.276  0.2508  0.2321  0.0633
17672TIP3    H174431   1.701   4.389   4.318  0.5741 -0.1597 -0.3921
17672TIP3    H274432   1.626   4.406   4.187  0.5813 -1.2923 -0.5529
17673TIP3   OH274433   4.450   5.088  14.732  0.6750  0.2647 -0.0929
17673TIP3    H174434   4.428   5.098  14.639  0.8442  1.3736 -0.0353
17673TIP3    H274435   4.546   5.085  14.734  0.8551  2.9325  0.1959
17674TIP3   OH274436   4.230   1.115  12.719 -0.4049 -0.0333 -0.1882
17674TIP3    H174437   4.183   1.187  12.760  0.4265  0.4416 -0.0463
17674TIP3    H274438   4.237   1.139  12.627 -0.3196 -0.0439 -0.1842
17675TIP3   OH274439   4.420   1.716   6.263 -0.6873  0.4639 -0.1535
17675TIP3    H174440   4.485   1.766   6.215  0.4876  0.8750  1.7675
17675TIP3    H274441   4.344   1.773   6.268 -0.0648  1.2680  0.2954
17676TIP3   OH274442   2.076   0.298  15.743  0.0196 -0.0180 -0.8734
17676TIP3    H174443   2.039   0.386  15.739 -1.5924 -0.7068 -1.7785
17676TIP3    H274444   2.075   0.276  15.837  0.8062  1.0478 -0.5929
17677TIP3   OH274445   3.172   3.668   6.064 -0.0153  0.1184  0.3527
17677TIP3    H174446   3.086   3.689   6.101 -1.2603 -1.4292 -1.4610
17677TIP3    H274447   3.182   3.574   6.078  1.4298  0.2754  0.5713
17678TIP3   OH274448   1.250   6.297   5.491 -0.1429  0.2624 -0.2093
17678TIP3    H174449   1.278   6.334   5.407 -1.9952  1.3368 -0.3994
17678TIP3    H274450   1.155   6.305   5.491 -0.2068  0.1991  1.9550
17679TIP3   OH274451   0.652   5.105   0.491  0.0998 -0.2025 -0.2268
17679TIP3    H174452   0.620   5.120   0.402  0.5842 -0.1621 -0.3980
17679TIP3    H274453   0.588   5.046   0.530  0.5365 -1.2115 -1.0073
17680TIP3   OH274454   0.133   1.421  13.435 -0.4131  0.2846 -0.3685
17680TIP3    H174455   0.123   1.484  13.505 -0.0534 -1.4634  1.3468
17680TIP3    H274456   0.044   1.392  13.415 -0.5701  1.2430 -1.1053
17681TIP3   OH274457   0.649   0.233   2.269 -0.3704 -0.0798 -0.0228
17681TIP3    H174458   0.724   0.260   2.217  0.4422  1.6387  1.9050
17681TIP3    H274459   0.670   0.144   2.298  1.1443  0.5204  0.8070
17682TIP3   OH274460   5.081   5.578   5.106 -0.5383 -0.3090 -0.0375
17682TIP3    H174461   5.080   5.599   5.013 -0.5226 -0.0336  0.0224
17682TIP3    H274462   5.001   5.618   5.141 -0.0748  0.4166  0.2371
17683TIP3   OH274463   3.757   6.685   3.387 -0.3473 -0.1446 -0.5183
17683TIP3    H174464   3.745   6.597   3.351  2.1834 -0.2517 -1.2913
17683TIP3    H274465   3.833   6.720   3.340 -0.6115  2.0366  0.5613
17684TIP3   OH274466   1.620   4.488  11.993  0.2558 -0.0768 -0.6355
17684TIP3    H174467   1.579   4.550  12.053 -0.0476 -0.7810 -0.0858
17684TIP3    H274468   1.600   4.522  11.905  1.5137  1.4757 -0.3635
17685TIP3   OH274469   0.247   5.835   1.197  0.3164 -0.1023 -0.0425
17685TIP3    H174470   0.253   5.786   1.115  0.3184 -2.4582  1.2756
17685TIP3    H274471   0.327   5.888   1.199  1.8845 -2.3194 -0.2100
17686TIP3   OH274472   4.052   1.875  12.481  0.2520  0.4117 -0.1940
17686TIP3    H174473   4.132   1.863  12.532  0.4908 -0.7386 -0.8140
17686TIP3    H274474   4.062   1.962  12.442 -0.6557  2.0726  2.9192
17687TIP3   OH274475   3.256   3.705  12.129 -0.4923 -0.3419  0.7002
17687TIP3    H174476   3.169   3.682  12.163 -1.1782  2.7030  1.3406
17687TIP3    H274477   3.241   3.784  12.076  1.7436 -0.4105 -0.1552
17688TIP3   OH274478   0.801   0.719   5.476  0.3925  0.2377  0.3814
17688TIP3    H174479   0.856   0.658   5.526 -0.7511 -0.9316  0.2953
17688TIP3    H274480   0.713   0.705   5.511 -0.6008 -1.1313 -2.3550
17689TIP3   OH274481   5.810   5.811  13.577  0.3389  0.4693 -0.2106
17689TIP3    H174482   5.799   5.783  13.667 -0.2112 -0.1083 -0.4544
17689TIP3    H274483   5.904   5.802  13.560  0.4632  0.7191  0.3411
17690TIP3   OH274484   5.951   5.848   3.884 -0.0038 -0.1716 -0.5358
17690TIP3    H174485   6.040   5.816   3.866 -0.3762 -1.0271 -0.8857
17690TIP3    H274486   5.919   5.880   3.800  0.1667  0.6686 -0.2973
17691TIP3   OH274487   5.572   1.787  11.635  0.3285 -0.0546 -0.3871
17691TIP3    H174488   5.514   1.713  11.655  0.7699 -0.3386 -0.1440
17691TIP3    H274489   5.537   1.824  11.554  0.2304 -0.6596 -0.6262
17692TIP3   OH274490   3.702   1.891  13.407  0.3742 -0.0822  0.0911
17692TIP3    H174491   3.616   1.870  13.442  0.5911  0.6015  1.0680
17692TIP3    H274492   3.730   1.968  13.456  1.4478 -0.1561 -0.3755
17693TIP3   OH274493   2.641   2.592  15.829  0.4810 -0.5113  0.0896
17693TIP3    H174494   2.615   2.506  15.865  1.5228 -0.4331  1.0742
17693TIP3    H274495   2.688   2.571  15.749  0.2718 -0.8316  0.0462
17694TIP3   OH274496   2.805   5.659  14.748  0.0583  0.7285  0.2787
17694TIP3    H174497   2.719   5.626  14.774 -0.0346  0.3294 -0.5172
17694TIP3    H274498   2.808   5.748  14.784 -0.2609  0.3806  1.2072
17695TIP3   OH274499   1.230   6.644   5.683  0.1972 -0.2074  0.2014
17695TIP3    H174500   1.139   6.658   5.658 -0.0387 -0.4265  0.9023
17695TIP3    H274501   1.225   6.587   5.760  0.8908  0.4275  0.7331
17696TIP3   OH274502   6.705   2.580   6.093 -0.6372  0.0570  0.0715
17696TIP3    H174503   6.756   2.616   6.020  0.5696  0.4021  1.0396
17696TIP3    H274504   6.616   2.611   6.078  0.0189  1.9748 -0.0984
17697TIP3   OH274505   1.478   4.760  16.663  0.2120 -0.0896  0.2876
17697TIP3    H174506   1.404   4.778  16.605 -0.9443  1.7851  2.1935
17697TIP3    H274507   1.438   4.721  16.741  1.5514 -1.2958  0.4077
17698TIP3   OH274508   4.901   2.094  16.544 -0.9689 -0.1606  0.4755
17698TIP3    H174509   4.823   2.138  16.509 -1.5370  1.0417  3.0246
17698TIP3    H274510   4.893   2.103  16.639  0.5550 -3.0234  0.9944
17699TIP3   OH274511   5.343   0.928   0.296 -0.3061  0.5935  0.2912
17699TIP3    H174512   5.396   1.007   0.289 -0.6140  0.6759 -1.8221
17699TIP3    H274513   5.277   0.937   0.227  1.2646 -2.6501 -1.8848
17700TIP3   OH274514   4.942   0.522   0.344  0.2657 -0.6247 -0.2456
17700TIP3    H174515   4.951   0.613   0.316 -0.7346 -0.4252  0.0550
17700TIP3    H274516   5.026   0.482   0.321  1.0725  0.5980  0.4691
17701TIP3   OH274517   2.126   2.098  16.199  0.2357 -0.2527  0.6968
17701TIP3    H174518   2.154   2.008  16.184 -0.2998 -0.2290 -0.5744
17701TIP3    H274519   2.032   2.092  16.214  0.2237  0.0699  0.7585
17702TIP3   OH274520   3.655   2.021   1.181  0.0155  0.3715 -0.2630
17702TIP3    H174521   3.578   2.014   1.238  0.0048 -2.9755 -0.4759
17702TIP3    H274522   3.619   2.045   1.095 -0.5848  0.4960  0.0210
17703TIP3   OH274523   0.448   2.824   5.414  0.0421 -0.2677  0.2013
17703TIP3    H174524   0.518   2.817   5.348  0.7807 -1.7953  1.0950
17703TIP3    H274525   0.494   2.827   5.498 -0.8875  1.7526  0.7096
17704TIP3   OH274526   3.041   3.611   2.787  0.3922  0.1617 -0.3671
17704TIP3    H174527   3.002   3.684   2.740  1.3351  1.5034  0.8335
17704TIP3    H274528   3.127   3.643   2.813  1.3325 -1.8272 -0.8371
17705TIP3   OH274529   2.811   3.258  15.388  0.1146 -0.2551 -0.2498
17705TIP3    H174530   2.751   3.194  15.350  0.2911  0.1537 -1.2390
17705TIP3    H274531   2.767   3.342  15.377 -0.4147 -0.2304  1.6322
17706TIP3   OH274532   4.110   6.553  11.173  0.2955 -0.1489  0.4835
17706TIP3    H174533   4.187   6.594  11.135 -0.2443  0.5105  0.0645
17706TIP3    H274534   4.144   6.482  11.228  1.1447 -0.6083 -0.5921
17707TIP3   OH274535   0.066   5.748  14.285 -0.0724 -0.6045 -0.4209
17707TIP3    H174536   0.073   5.673  14.345 -1.7062 -0.5811 -0.1754
17707TIP3    H274537  -0.027   5.766  14.279  0.3127  2.1130  0.3718
17708TIP3   OH274538   0.893   5.221  12.656  0.4069 -0.3417  0.7229
17708TIP3    H174539   0.976   5.245  12.696  0.1379 -1.3144  1.9313
17708TIP3    H274540   0.826   5.261  12.711  0.0579  0.2929 -0.1420
17709TIP3   OH274541   4.416   3.617  15.224 -0.4253  1.1933 -0.8105
17709TIP3    H174542   4.349   3.595  15.159 -1.3451 -0.0715  0.5001
17709TIP3    H274543   4.388   3.571  15.303  1.2758  1.7614  0.1630
17710TIP3   OH274544   0.482   0.493  16.021  0.1458  0.0086 -0.3500
17710TIP3    H174545   0.436   0.412  15.998 -0.0207 -0.0927  0.2921
17710TIP3    H274546   0.554   0.464  16.077 -1.3245  0.4640  1.9170
17711TIP3   OH274547   2.465   3.637   0.638 -0.7239 -0.4401 -0.1405
17711TIP3    H174548   2.412   3.716   0.634 -1.5614 -0.9149  1.0308
17711TIP3    H274549   2.499   3.636   0.728  1.1940 -0.2175 -0.8177
17712TIP3   OH274550   3.762   6.107   6.244  0.3561  0.8540 -0.4585
17712TIP3    H174551   3.816   6.034   6.275 -2.3433 -1.7098 -1.3189
17712TIP3    H274552   3.716   6.138   6.323 -0.3644 -0.1290 -0.4737
17713TIP3   OH274553   0.617   4.908   2.915 -0.2915  0.1101 -0.2025
17713TIP3    H174554   0.654   4.867   2.993  0.4492  1.6146  0.2702
17713TIP3    H274555   0.590   4.835   2.860 -0.4175 -0.9856  1.2630
17714TIP3   OH274556   5.949   0.774  16.187  0.7453 -0.2370  0.2439
17714TIP3    H174557   5.879   0.719  16.150  0.6877 -0.1206  0.1805
17714TIP3    H274558   5.906   0.856  16.210  0.3089 -1.0251  2.5440
17715TIP3   OH274559   0.541   4.108   0.259  0.0132  0.1517 -0.2741
17715TIP3    H174560   0.612   4.147   0.309  0.7407 -0.7775 -0.5406
17715TIP3    H274561   0.534   4.162   0.180 -1.0490  1.5354  0.7248
17716TIP3   OH274562   2.697   5.382  14.925 -0.0723  0.0471  0.4513
17716TIP3    H174563   2.616   5.429  14.904 -0.1515 -0.1655  0.2738
17716TIP3    H274564   2.744   5.377  14.842  2.6067  4.7226  1.3305
17717TIP3   OH274565   6.288   6.631   3.273  0.0372  0.5037 -0.0208
17717TIP3    H174566   6.203   6.622   3.316 -0.9696  1.0669 -1.8055
17717TIP3    H274567   6.308   6.544   3.241  0.1971  0.3418  0.5165
17718TIP3   OH274568   6.372   6.126   3.941  0.0479  0.3813  0.8305
17718TIP3    H174569   6.347   6.080   4.021  1.0899  1.0879  1.5830
17718TIP3    H274570   6.467   6.134   3.946  0.1658  0.1579 -0.6398
17719TIP3   OH274571   6.800   4.699  15.458  0.1970 -0.5050  0.5183
17719TIP3    H174572   6.864   4.667  15.522  0.3328 -1.8710 -0.2467
17719TIP3    H274573   6.723   4.643  15.472  0.1203 -0.6106 -0.2814
17720TIP3   OH274574   6.021   1.392  11.494  0.1340  0.2735  0.1651
17720TIP3    H174575   5.949   1.416  11.552  1.2365  1.2534  1.1844
17720TIP3    H274576   6.006   1.300  11.474 -1.5280  0.5159  0.1300
17721TIP3   OH274577   5.737   1.296   2.755 -0.3621 -0.0634  0.0047
17721TIP3    H174578   5.815   1.352   2.754 -1.0854  0.9761  0.4011
17721TIP3    H274579   5.678   1.337   2.819 -0.6169 -1.7105  0.9015
17722TIP3   OH274580   4.657   3.955  14.277  0.4438  0.3323  0.3578
17722TIP3    H174581   4.703   3.905  14.345 -0.6786 -0.4817  0.5445
17722TIP3    H274582   4.720   3.962  14.205  0.5700 -1.5522  0.2475
17723TIP3   OH274583   2.906   3.717  13.424 -0.8772 -0.0043 -0.6311
17723TIP3    H174584   2.982   3.659  13.425 -0.4874  0.3388  2.6529
17723TIP3    H274585   2.831   3.657  13.423 -0.5173 -0.4586 -0.7637
17724TIP3   OH274586   3.116   4.340  16.034 -0.1258  0.7421 -0.3144
17724TIP3    H174587   3.148   4.337  16.124  0.9325 -0.6473 -0.6998
17724TIP3    H274588   3.056   4.266  16.028 -1.0703  1.5032 -0.4581
17725TIP3   OH274589   5.443   4.489  12.363  0.2561 -0.1169 -0.5800
17725TIP3    H174590   5.508   4.559  12.364 -1.0627  1.1725 -0.9897
17725TIP3    H274591   5.406   4.493  12.275 -0.7171 -0.4830 -0.1983
17726TIP3   OH274592   1.927   2.327   3.664  0.1071  0.3616  0.1044
17726TIP3    H174593   1.919   2.294   3.574 -1.5944 -0.4009  0.4936
17726TIP3    H274594   1.989   2.268   3.706 -0.2128 -0.1839 -0.1790
17727TIP3   OH274595   5.782   1.512  11.627 -0.2043 -0.1801  0.2231
17727TIP3    H174596   5.792   1.590  11.572  1.8606 -0.7998 -0.3524
17727TIP3    H274597   5.688   1.495  11.627 -0.6964  2.1603  0.1827
17728TIP3   OH274598   5.471   6.746  15.071 -0.1439  0.6391  0.4615
17728TIP3    H174599   5.420   6.809  15.121  0.6189  0.1319  1.9728
17728TIP3    H274600   5.561   6.759  15.103  0.2465 -0.2044 -0.2710
17729TIP3   OH274601   3.901   0.561   5.047 -0.3049 -0.0953 -0.7521
17729TIP3    H174602   3.843   0.605   5.109  1.5044  0.4644  0.6515
17729TIP3    H274603   3.918   0.627   4.979 -1.7549 -0.4764 -1.5142
17730TIP3   OH274604   5.525   4.434  15.884  0.1164  0.4288  0.4178
17730TIP3    H174605   5.504   4.517  15.841  0.5867  0.7427  0.7860
17730TIP3    H274606   5.618   4.420  15.866  0.0424 -0.0224  0.3579
17731TIP3   OH274607   3.375   4.412   6.444  0.4462  0.4453  0.7435
17731TIP3    H174608   3.454   4.358   6.449 -0.6931 -1.2944  1.0550
17731TIP3    H274609   3.303   4.350   6.459 -0.9880  1.9489  0.3780
17732TIP3   OH274610   5.728   2.921   0.568  1.0010 -0.1989 -0.3419
17732TIP3    H174611   5.780   3.001   0.565 -0.5244  0.8215 -0.4689
17732TIP3    H274612   5.696   2.910   0.479  0.9742 -0.8148 -0.2628
17733TIP3   OH274613   2.989   2.084  15.096 -0.4361 -0.0282 -0.3398
17733TIP3    H174614   2.929   2.156  15.077 -2.0041 -1.0772  0.3546
17733TIP3    H274615   3.073   2.111  15.059 -0.6055  2.7423  1.0711
17734TIP3   OH274616   3.820   3.047   4.038 -0.4817 -0.2362  0.3310
17734TIP3    H174617   3.825   2.956   4.010 -0.1487 -0.5494  1.3782
17734TIP3    H274618   3.873   3.095   3.975  3.1717 -1.3780  2.2571
17735TIP3   OH274619   1.556   3.472   1.762 -0.3146 -0.3922 -0.2826
17735TIP3    H174620   1.535   3.462   1.855  0.2862 -0.2959 -0.1349
17735TIP3    H274621   1.500   3.408   1.718  1.1610 -2.1982  0.3593
17736TIP3   OH274622   3.262   5.799  17.030 -0.1347  0.5295 -0.6566
17736TIP3    H174623   3.345   5.770  16.992 -0.8509 -0.4799 -1.5130
17736TIP3    H274624   3.195   5.771  16.967 -1.3903 -1.3165  1.3630
17737TIP3   OH274625   0.719   0.582  10.926 -0.3432  0.1179 -0.4550
17737TIP3    H174626   0.791   0.636  10.894 -0.8071  1.1038  0.1171
17737TIP3    H274627   0.645   0.642  10.933 -1.5425 -1.0733 -2.0335
17738TIP3   OH274628   4.684   0.130  13.109  0.4064 -1.0261 -0.2820
17738TIP3    H174629   4.677   0.035  13.103 -0.8873 -0.9973  0.3619
17738TIP3    H274630   4.593   0.161  13.106  0.8415  0.2453 -1.1843
17739TIP3   OH274631   2.320   1.133   3.680 -0.5714  0.2283  0.6610
17739TIP3    H174632   2.331   1.139   3.775 -0.8121  0.6512  0.6633
17739TIP3    H274633   2.391   1.075   3.652 -1.0745 -0.6816  1.2136
17740TIP3   OH274634   4.234   2.081   2.375 -0.0827  0.0794 -0.6006
17740TIP3    H174635   4.155   2.107   2.421  1.1609  0.5704  1.3616
17740TIP3    H274636   4.267   2.162   2.337 -0.0591  0.0310 -0.6830
17741TIP3   OH274637   5.640   2.039   0.365 -0.0140 -0.6558  0.1872
17741TIP3    H174638   5.723   2.067   0.327 -1.4429  1.8561 -1.3655
17741TIP3    H274639   5.649   1.945   0.376  3.5321 -0.3190  1.4581
17742TIP3   OH274640   1.910   6.606   2.320  0.4582 -0.4719  0.1336
17742TIP3    H174641   1.990   6.652   2.344 -0.7317  1.5112  0.5153
17742TIP3    H274642   1.843   6.639   2.380 -0.8273 -1.4806 -0.6670
17743TIP3   OH274643   0.965   5.271   5.291 -0.3496 -0.5696 -0.7385
17743TIP3    H174644   0.955   5.200   5.228  0.9065 -2.1181  0.7335
17743TIP3    H274645   1.058   5.290   5.293 -0.4244 -0.2381  0.3327
17744TIP3   OH274646   6.136   6.728  17.161 -0.0572 -0.3486 -0.5883
17744TIP3    H174647   6.122   6.637  17.134 -0.6691 -0.3788 -0.1875
17744TIP3    H274648   6.207   6.723  17.225  1.4558 -0.2674 -2.1774
17745TIP3   OH274649   0.290   0.478   5.183 -0.4961  0.2571  0.6097
17745TIP3    H174650   0.224   0.529   5.137 -1.1703 -1.4703 -0.4399
17745TIP3    H274651   0.270   0.492   5.276 -0.8344  1.6135  0.3574
17746TIP3   OH274652   4.363   2.399  11.570 -0.2933  0.0075  0.3658
17746TIP3    H174653   4.329   2.310  11.574  1.1884 -0.6687 -0.8398
17746TIP3    H274654   4.458   2.389  11.579 -0.0466  1.4134 -0.3415
17747TIP3   OH274655   3.086   3.583   0.277 -0.5894  0.0363 -0.6130
17747TIP3    H174656   3.081   3.580   0.373 -2.0700  0.2483 -0.6620
17747TIP3    H274657   3.086   3.491   0.251  1.4949 -0.0763 -0.3796
17748TIP3   OH274658   3.225   3.504   4.007 -0.2037 -0.3545  0.4718
17748TIP3    H174659   3.294   3.462   4.058 -1.3377  0.5139  2.8834
17748TIP3    H274660   3.148   3.450   4.021 -0.4916 -0.2383 -0.5756
17749TIP3   OH274661   4.228   0.740  12.250 -0.4399 -0.1519  0.2525
17749TIP3    H174662   4.214   0.730  12.344 -0.1020 -0.2200  0.2963
17749TIP3    H274663   4.140   0.757  12.215 -0.3596  1.5243  0.7830
17750TIP3   OH274664   6.736   1.408   5.693 -0.6184  0.6359  0.2735
17750TIP3    H174665   6.700   1.434   5.778  1.8174 -0.7972  1.8332
17750TIP3    H274666   6.661   1.370   5.647 -2.1118  1.8863  1.5570
17751TIP3   OH274667   3.944   6.048  10.711 -0.5175 -0.1024 -0.8000
17751TIP3    H174668   3.943   6.131  10.665  2.6705  0.9202  0.6703
17751TIP3    H274669   3.865   6.049  10.765  0.6389  3.2911  1.1545
17752TIP3   OH274670   5.222   4.763  13.881 -0.6284 -0.8690 -0.7712
17752TIP3    H174671   5.138   4.808  13.882 -1.2513 -1.9935  0.3305
17752TIP3    H274672   5.240   4.743  13.973  1.3515  0.2273 -0.8559
17753TIP3   OH274673   1.459   0.890  13.629  0.0368 -0.1273 -0.6864
17753TIP3    H174674   1.552   0.867  13.624  0.1439  0.3641 -1.0098
17753TIP3    H274675   1.457   0.985  13.621 -0.4794 -0.1102 -0.4166
17754TIP3   OH274676   3.402   3.980   3.960  0.0328 -0.7577  0.3616
17754TIP3    H174677   3.454   4.059   3.974 -1.6357  0.4013  0.2467
17754TIP3    H274678   3.422   3.953   3.871  0.2393 -0.1725  0.2306
17755TIP3   OH274679   4.808   2.572   3.609 -0.7008  0.8159 -0.5638
17755TIP3    H174680   4.791   2.491   3.560 -2.2884  0.1053  1.0787
17755TIP3    H274681   4.893   2.601   3.576 -0.7772 -0.6996 -2.2824
17756TIP3   OH274682   5.476   2.656  13.898  0.7270  0.2132 -0.1385
17756TIP3    H174683   5.552   2.715  13.904  1.3512 -0.6402  0.6306
17756TIP3    H274684   5.510   2.571  13.927 -0.2309 -0.4636 -0.9636
17757TIP3   OH274685   1.227   2.515   5.618 -0.2160 -0.3411 -1.0133
17757TIP3    H174686   1.183   2.447   5.669 -0.7182  0.4600 -0.3521
17757TIP3    H274687   1.305   2.536   5.669  0.6606 -1.3511 -1.8952
17758TIP3   OH274688   1.826   1.981  13.078 -0.3985  0.4180  0.5008
17758TIP3    H174689   1.823   1.980  12.983  0.3479  1.7801  0.4467
17758TIP3    H274690   1.838   2.073  13.102  3.5067 -0.2178  1.7339
17759TIP3   OH274691   5.456   4.622  12.675  0.6431  0.1193 -0.4072
17759TIP3    H174692   5.473   4.626  12.581 -0.2498 -0.8424 -0.6318
17759TIP3    H274693   5.446   4.713  12.702  2.7708  0.5623 -0.8553
17760TIP3   OH274694   0.508   4.294  12.652  0.8010  0.5160  0.2831
17760TIP3    H174695   0.538   4.207  12.625 -2.2935 -0.5674 -0.1555
17760TIP3    H274696   0.503   4.344  12.570  0.5546  0.3837  0.2152
17761TIP3   OH274697   2.323   3.606  11.972  0.3808  0.3923  0.0576
17761TIP3    H174698   2.411   3.641  11.959  0.2921  0.3882 -0.5648
17761TIP3    H274699   2.280   3.617  11.888  0.1444 -0.6260  0.0308
17762TIP3   OH274700   0.873   2.128  10.837  0.3750  0.1019 -0.2128
17762TIP3    H174701   0.821   2.153  10.913 -0.7008 -0.2244 -0.8235
17762TIP3    H274702   0.893   2.036  10.851  1.7947  0.4979  0.5745
17763TIP3   OH274703   2.298   1.506  12.660  0.3049 -0.1487 -0.1088
17763TIP3    H174704   2.311   1.587  12.611 -0.2427  0.2278  0.3573
17763TIP3    H274705   2.378   1.456  12.645  1.4563  1.2334  1.0870
17764TIP3   OH274706   6.112   1.631   1.704 -0.4215  0.4815  0.3715
17764TIP3    H174707   6.168   1.709   1.712  0.9751 -0.4874  0.4839
17764TIP3    H274708   6.101   1.600   1.794  0.3818 -0.3506  0.1915
17765TIP3   OH274709   1.339   1.676   0.059 -0.0555 -0.1063  0.1018
17765TIP3    H174710   1.246   1.696   0.066 -0.9046 -3.4786  0.1009
17765TIP3    H274711   1.366   1.655   0.148  0.4350 -0.2395 -0.0751
17766TIP3   OH274712   3.535   4.873  10.371 -0.0298  0.5307 -0.2125
17766TIP3    H174713   3.462   4.933  10.361  1.2373  2.0897 -0.5505
17766TIP3    H274714   3.526   4.840  10.460 -1.3177  0.4254 -0.3607
17767TIP3   OH274715   2.079   4.506  17.143 -0.6424  0.0268  0.1510
17767TIP3    H174716   2.015   4.530  17.210 -0.5747 -0.7651  0.5162
17767TIP3    H274717   2.141   4.579  17.141 -0.7748  0.1628  0.8039
17768TIP3   OH274718   1.602   5.355   5.399  0.0383 -0.4865 -0.2247
17768TIP3    H174719   1.651   5.332   5.478  2.2728  1.8840 -0.7795
17768TIP3    H274720   1.511   5.340   5.422  0.6227 -0.1743  2.7127
17769TIP3   OH274721   5.722   2.521  12.982  0.1635 -0.0515 -0.5000
17769TIP3    H174722   5.650   2.584  12.987  0.4546  0.1971  0.9584
17769TIP3    H274723   5.680   2.436  12.995  0.0370  0.0266 -0.3883
17770TIP3   OH274724   1.448   0.229  16.517  0.4476  0.2259  0.3545
17770TIP3    H174725   1.420   0.207  16.606  0.5463 -1.0222  0.0870
17770TIP3    H274726   1.368   0.228  16.465  0.0327  3.0644  0.7785
17771TIP3   OH274727   1.163   3.767   4.833  0.9076 -0.3493 -0.3701
17771TIP3    H174728   1.084   3.726   4.867  0.3181  0.1783 -1.0698
17771TIP3    H274729   1.156   3.859   4.860  0.8707 -0.1201 -1.1342
17772TIP3   OH274730   0.917   6.250  14.430  0.3908 -0.7028 -0.1035
17772TIP3    H174731   0.826   6.220  14.437  0.4820 -0.6940  1.6277
17772TIP3    H274732   0.967   6.171  14.411 -0.0953 -0.4933 -2.4990
17773TIP3   OH274733   3.004   3.932  10.595 -0.5614  0.2269  0.0456
17773TIP3    H174734   2.928   3.908  10.648  0.3737  1.3727  1.9936
17773TIP3    H274735   2.985   4.021  10.566 -0.3475  0.1855 -0.2230
17774TIP3   OH274736   3.318   3.989  13.699 -0.6603  0.1271  0.3335
17774TIP3    H174737   3.298   3.980  13.606  0.4831 -0.3698  0.1110
17774TIP3    H274738   3.379   4.063  13.703 -1.1050  0.4762  0.7589
17775TIP3   OH274739   4.638   6.114  14.756 -0.1222  0.0925 -0.0247
17775TIP3    H174740   4.588   6.034  14.768 -0.7276  0.4192 -0.3462
17775TIP3    H274741   4.632   6.133  14.662  1.4782 -0.4264 -0.2630
17776TIP3   OH274742   4.096   3.188   6.472  0.9547  0.2301  0.0112
17776TIP3    H174743   4.034   3.260   6.479  0.2985 -0.3554  0.3996
17776TIP3    H274744   4.100   3.168   6.379 -1.0060 -1.0254  0.1470
17777TIP3   OH274745   6.549   3.919  15.914 -0.2360 -0.4376  0.6350
17777TIP3    H174746   6.618   3.868  15.872  0.7763  0.2628  1.3847
17777TIP3    H274747   6.515   3.862  15.983 -0.3206 -0.7368  0.3473
17778TIP3   OH274748   4.563   4.145  16.250  0.3093 -0.0468  0.0160
17778TIP3    H174749   4.637   4.111  16.301  0.7129 -0.1937 -0.6495
17778TIP3    H274750   4.505   4.070  16.239 -1.0655  0.5531  2.4015
17779TIP3   OH274751   4.492   5.410   5.150 -0.0872 -0.0847  0.3942
17779TIP3    H174752   4.442   5.478   5.195  0.8323 -0.0647  1.4223
17779TIP3    H274753   4.504   5.341   5.216  2.3624  0.4855  0.6302
17780TIP3   OH274754   0.011   1.025  15.064 -0.3722 -0.5808  0.1350
17780TIP3    H174755   0.003   0.945  15.013 -1.6160  0.4904 -1.4782
17780TIP3    H274756   0.096   1.062  15.039 -0.6194 -0.4754 -0.5825
17781TIP3   OH274757   1.219   1.619  15.113 -0.0215 -0.4503  0.5726
17781TIP3    H174758   1.241   1.705  15.149 -1.5624  0.2846 -0.1344
17781TIP3    H274759   1.124   1.612  15.126  0.1468 -2.2576  1.0300
17782TIP3   OH274760   4.992   4.132   0.348  0.0022 -0.0858 -0.0249
17782TIP3    H174761   4.991   4.063   0.281  2.1142 -0.8580  0.6622
17782TIP3    H274762   4.911   4.118   0.397 -0.0438 -1.5294 -0.4648
17783TIP3   OH274763   2.243   6.359  13.712 -0.2018 -0.0854  0.5440
17783TIP3    H174764   2.216   6.330  13.798  0.3085  1.0167  1.1045
17783TIP3    H274765   2.162   6.373  13.664 -0.5318  0.3805  1.2296
17784TIP3   OH274766   5.099   0.541   0.644 -0.0233 -0.6192  0.8383
17784TIP3    H174767   5.165   0.503   0.586  0.0113 -0.7907  0.9878
17784TIP3    H274768   5.016   0.501   0.616 -0.7226  2.2554 -1.7882
17785TIP3   OH274769   2.508   4.503   2.655  0.0915 -0.5580 -0.2286
17785TIP3    H174770   2.474   4.539   2.573 -1.4050  1.8502  1.3177
17785TIP3    H274771   2.552   4.577   2.697 -0.1057 -1.4295  1.5874
17786TIP3   OH274772   4.626   0.458   5.259  0.1268  0.6476 -0.0261
17786TIP3    H174773   4.626   0.543   5.214  1.1573 -0.3237 -2.0129
17786TIP3    H274774   4.542   0.418   5.234  0.8971 -0.0824 -1.5604
17787TIP3   OH274775   4.267   4.766  15.899 -0.2867  0.0060  0.1798
17787TIP3    H174776   4.216   4.842  15.870  3.1597  2.7899  0.6243
17787TIP3    H274777   4.346   4.768  15.845  0.5136 -2.5586  1.0824
17788TIP3   OH274778   1.898   0.897  16.195 -0.2697 -0.0203 -0.3265
17788TIP3    H174779   1.824   0.866  16.247  0.0352 -1.2191 -0.5711
17788TIP3    H274780   1.935   0.817  16.158  0.9358  0.5987 -0.4846
17789TIP3   OH274781   6.319   6.521  12.255  0.2198  0.0175  0.1185
17789TIP3    H174782   6.394   6.467  12.233 -1.5797 -2.3305 -0.5831
17789TIP3    H274783   6.305   6.576  12.178 -0.1069 -1.1434 -0.6677
17790TIP3   OH274784   0.191   1.254   1.724  0.0748  0.0123  0.4445
17790TIP3    H174785   0.139   1.175   1.710  1.6179 -1.2282  1.4034
17790TIP3    H274786   0.127   1.325   1.726 -1.3435 -1.1771 -0.5366
17791TIP3   OH274787   4.941   1.288   5.948 -0.7328  0.1968  0.5577
17791TIP3    H174788   4.857   1.334   5.955 -0.2710  1.3861 -1.0507
17791TIP3    H274789   5.004   1.349   5.987 -0.3829  0.1176  0.1221
17792TIP3   OH274790   3.679   2.574   1.198  0.1400 -0.1194 -0.0727
17792TIP3    H174791   3.603   2.609   1.151  0.5838  0.8019 -0.1148
17792TIP3    H274792   3.646   2.553   1.285  0.0751  1.3074  0.2644
17793TIP3   OH274793   1.122   3.648  10.252 -0.1116  0.0565  0.4159
17793TIP3    H174794   1.137   3.734  10.290 -0.3966 -0.5834  2.0411
17793TIP3    H274795   1.199   3.597  10.275 -0.3266 -0.3775  0.2029
17794TIP3   OH274796   2.842   3.169  14.873  0.1120  0.4128 -0.0094
17794TIP3    H174797   2.924   3.194  14.916 -0.0648  0.7066  0.1625
17794TIP3    H274798   2.814   3.248  14.828 -0.0860  0.3151 -0.0569
17795TIP3   OH274799   0.284   6.333  16.636  0.0223  0.0825 -0.1302
17795TIP3    H174800   0.277   6.408  16.577  0.6132 -0.2274 -0.6065
17795TIP3    H274801   0.269   6.257  16.580  0.7437 -0.2261  0.0861
17796TIP3   OH274802   5.916   0.482   2.733 -0.0696 -0.0720  0.0204
17796TIP3    H174803   6.010   0.468   2.743 -0.2634 -0.7262  1.2213
17796TIP3    H274804   5.882   0.483   2.823 -1.4514 -1.8160 -0.4037
17797TIP3   OH274805   0.022   0.792  14.512 -0.4414 -0.4118  0.2165
17797TIP3    H174806  -0.073   0.801  14.505 -0.3763 -0.1661 -0.3557
17797TIP3    H274807   0.036   0.699  14.531 -0.9090 -0.0586  2.6427
17798TIP3   OH274808   0.801   6.447  16.789  0.0434  0.2409  0.5144
17798TIP3    H174809   0.750   6.377  16.831 -0.3414 -0.8461 -1.6246
17798TIP3    H274810   0.891   6.412  16.788  0.0037  0.1481  0.2040
17799TIP3   OH274811   3.674   3.628   2.346 -0.2892  0.1684 -0.1131
17799TIP3    H174812   3.753   3.674   2.373  0.2306 -1.0604  0.5839
17799TIP3    H274813   3.701   3.576   2.271 -0.1179 -1.0545  0.7528
17800TIP3   OH274814   5.118   2.228  12.034  0.5331  0.1414 -0.1245
17800TIP3    H174815   5.084   2.139  12.027 -0.3571  0.5345 -0.9994
17800TIP3    H274816   5.213   2.218  12.027  0.3834 -0.6445 -1.2604
17801TIP3   OH274817   0.626   6.333   5.034 -0.0383  0.1687  0.1661
17801TIP3    H174818   0.609   6.244   5.002 -0.4455  0.2737  0.0749
17801TIP3    H274819   0.672   6.376   4.962 -1.9693  0.7558 -0.7955
17802TIP3   OH274820   0.767   4.255   1.754  0.1421  0.5199 -0.2597
17802TIP3    H174821   0.701   4.236   1.820  0.6042  0.8070  0.2940
17802TIP3    H274822   0.718   4.295   1.682 -0.3637  0.2106 -0.0914
17803TIP3   OH274823   3.207   4.407  15.798  0.1530  0.1977 -0.0723
17803TIP3    H174824   3.253   4.490  15.785  0.5120  0.1936  1.1385
17803TIP3    H274825   3.190   4.403  15.892 -1.0495 -0.4824 -0.3025
17804TIP3   OH274826   3.204   3.610  15.656  0.2032  0.1662 -0.0642
17804TIP3    H174827   3.129   3.554  15.676  0.8663 -0.3862  0.9360
17804TIP3    H274828   3.275   3.548  15.637 -0.0959  0.6112 -3.3622
17805TIP3   OH274829   4.040   1.278  12.911  0.0628 -0.6001 -0.2723
17805TIP3    H174830   4.054   1.372  12.923 -0.2741 -0.5826  0.0386
17805TIP3    H274831   3.978   1.255  12.980  1.7203 -1.4655  0.9983
17806TIP3   OH274832   1.170   2.526   3.233  0.4044 -0.5928  0.1919
17806TIP3    H174833   1.089   2.562   3.271 -0.1265  0.1026 -1.4848
17806TIP3    H274834   1.143   2.490   3.149  1.5511 -1.9767  0.3880
17807TIP3   OH274835   4.331   0.605   1.970  0.0250  0.7535 -0.1705
17807TIP3    H174836   4.289   0.602   1.884  0.2656  2.3779 -0.3889
17807TIP3    H274837   4.325   0.516   2.003 -1.3680  0.4071 -1.2529
17808TIP3   OH274838   0.289   1.979   4.146  0.2292 -0.2974  0.3913
17808TIP3    H174839   0.266   1.983   4.238  1.4091 -1.7957  0.7962
17808TIP3    H274840   0.205   1.980   4.100 -0.3645  0.6213  1.4551
17809TIP3   OH274841   3.450   0.611   4.209 -0.2228 -0.6009 -0.0729
17809TIP3    H174842   3.399   0.549   4.262 -1.3391 -0.8643 -1.4093
17809TIP3    H274843   3.409   0.609   4.123  2.0446 -0.7624 -1.2145
17810TIP3   OH274844   1.550   4.082  10.836 -0.2031 -0.0545  0.6404
17810TIP3    H174845   1.524   4.171  10.810 -0.8525 -0.6166 -0.7096
17810TIP3    H274846   1.471   4.044  10.873 -0.2579 -0.4792  0.0865
17811TIP3   OH274847   5.504   2.281  14.783  0.0872  0.3046  0.1788
17811TIP3    H174848   5.563   2.250  14.715 -3.4426 -1.4609 -2.3921
17811TIP3    H274849   5.478   2.369  14.754 -2.2406 -0.8524 -1.5659
17812TIP3   OH274850   3.272   0.332  13.228 -0.4500  0.1125  0.0101
17812TIP3    H174851   3.357   0.306  13.265 -1.0757  0.5839  1.9093
17812TIP3    H274852   3.231   0.250  13.202 -0.5088 -0.4064  1.6298
17813TIP3   OH274853   2.206   4.104   4.706  0.1351  0.2823 -0.8390
17813TIP3    H174854   2.243   4.175   4.758 -0.8383 -0.4529  0.9130
17813TIP3    H274855   2.270   4.033   4.715 -0.3049 -0.0340 -0.1637
17814TIP3   OH274856   2.166   2.082   4.153  0.2518 -0.8218  0.1223
17814TIP3    H174857   2.206   2.078   4.240 -0.2438 -1.0421  0.3438
17814TIP3    H274858   2.074   2.103   4.170  0.6034  1.4745 -0.4591
17815TIP3   OH274859   2.124   2.447   3.145 -0.2196 -0.2562 -0.5988
17815TIP3    H174860   2.102   2.479   3.058  0.3139 -2.0730 -1.4624
17815TIP3    H274861   2.085   2.359   3.149  3.9064 -2.3538 -1.0469
17816TIP3   OH274862   6.439   3.678  13.130 -0.1949 -0.0774 -0.6423
17816TIP3    H174863   6.349   3.700  13.107 -0.3507  1.3909  1.1885
17816TIP3    H274864   6.433   3.641  13.218  1.0164  0.3435 -0.3621
17817TIP3   OH274865   5.580   1.501  14.932  0.5136  0.3558 -0.4087
17817TIP3    H174866   5.526   1.450  14.992  0.3520  2.0803  1.0073
17817TIP3    H274867   5.599   1.441  14.860 -2.0477 -0.7845 -0.2654
17818TIP3   OH274868   4.541   0.593   4.588  0.0432 -0.3116 -0.0712
17818TIP3    H174869   4.524   0.623   4.677  0.1122 -1.0147  0.1891
17818TIP3    H274870   4.624   0.633   4.564 -0.3623  0.5124 -0.1159
17819TIP3   OH274871   1.354   0.731   5.618 -0.1677 -0.0008  0.6658
17819TIP3    H174872   1.359   0.644   5.578  1.2537 -0.2391  1.2943
17819TIP3    H274873   1.399   0.721   5.702  1.8044  1.8005 -0.0841
17820TIP3   OH274874   0.229   2.227   2.951  0.0162 -0.4927 -0.1105
17820TIP3    H174875   0.187   2.243   3.035 -0.8048 -0.0270 -0.5949
17820TIP3    H274876   0.181   2.154   2.913  0.3792 -0.6954 -0.1858
17821TIP3   OH274877   1.438   1.234  16.190 -0.5712 -0.1532  0.3164
17821TIP3    H174878   1.355   1.199  16.222  0.7527 -3.3731  0.6119
17821TIP3    H274879   1.490   1.251  16.268 -0.9735  2.1380  0.1495
17822TIP3   OH274880   3.939   2.112  11.333 -0.1734  0.2413  0.5492
17822TIP3    H174881   4.024   2.127  11.373 -0.4903  0.1751  1.2663
17822TIP3    H274882   3.951   2.035  11.277  0.7836  1.5114 -1.0589
17823TIP3   OH274883   5.567   0.199   2.636  0.4348  0.1586 -0.0796
17823TIP3    H174884   5.626   0.160   2.571  0.4293  1.7543 -1.0846
17823TIP3    H274885   5.623   0.220   2.710  0.5416 -1.1831  0.2408
17824TIP3   OH274886   2.905   2.469  11.655  0.1853  0.3995  0.1954
17824TIP3    H174887   2.838   2.505  11.712 -0.0013 -1.3085  1.1460
17824TIP3    H274888   2.987   2.483  11.703  0.2890  0.8550 -0.1126
17825TIP3   OH274889   2.100   1.023   2.756  0.5544 -0.6884  0.2652
17825TIP3    H174890   2.044   1.033   2.833 -2.8960 -0.0934 -2.0965
17825TIP3    H274891   2.139   1.109   2.743  3.4356 -1.4488  2.7322
17826TIP3   OH274892   4.793   1.959  15.185  0.3327  0.5170 -0.0400
17826TIP3    H174893   4.847   1.898  15.235  0.0229 -0.1680 -0.5239
17826TIP3    H274894   4.789   2.037  15.240 -1.2094 -0.7196  1.7363
17827TIP3   OH274895   4.769   1.900  13.585  0.7394  0.0124  0.1169
17827TIP3    H174896   4.799   1.957  13.656  1.5743 -2.3476  1.7829
17827TIP3    H274897   4.849   1.874  13.539  0.4678 -0.4308 -0.1166
17828TIP3   OH274898   0.801   4.501   4.977 -0.3613  0.2552  0.4048
17828TIP3    H174899   0.851   4.582   4.986 -0.9526  0.9306 -1.6748
17828TIP3    H274900   0.827   4.447   5.052  0.4544  2.1418  1.5375
17829TIP3   OH274901   4.601   1.202   1.990 -0.1862 -0.3922  0.1116
17829TIP3    H174902   4.652   1.256   1.929  0.5749 -1.7634 -0.5298
17829TIP3    H274903   4.661   1.131   2.015 -0.5249  0.0592  2.3976
17830TIP3   OH274904   0.011   6.135  11.902  0.0905  0.3351  0.2147
17830TIP3    H174905   0.046   6.047  11.913  1.7556  0.6647 -1.7302
17830TIP3    H274906   0.070   6.191  11.952 -0.0479  0.4947  0.2017
17831TIP3   OH274907   4.968   3.291   4.657 -0.5332  0.1009 -0.0475
17831TIP3    H174908   5.004   3.208   4.690  0.5587  0.0127 -1.3869
17831TIP3    H274909   4.908   3.265   4.587 -1.1703  0.4038  0.3682
17832TIP3   OH274910   2.379   2.503   1.587  0.0439  0.1020  0.3438
17832TIP3    H174911   2.316   2.431   1.594  0.4818 -0.3602 -0.2903
17832TIP3    H274912   2.406   2.520   1.677 -1.1191  0.4422  0.6553
17833TIP3   OH274913   2.754   4.268   5.605 -0.1464  0.4758 -0.4352
17833TIP3    H174914   2.799   4.283   5.688  1.3169  1.5031 -1.3661
17833TIP3    H274915   2.728   4.355   5.575 -1.4275  0.0316 -0.6510
17834TIP3   OH274916   0.569   0.802   3.199  0.1147 -0.6323  0.2645
17834TIP3    H174917   0.505   0.874   3.199 -0.3637 -1.0425  1.1506
17834TIP3    H274918   0.531   0.737   3.257  0.6927 -1.4804 -0.2912
17835TIP3   OH274919   1.811   6.370   0.001 -0.4256 -0.3137 -0.3118
17835TIP3    H174920   1.831   6.379  -0.092 -1.4628  0.0068 -0.5118
17835TIP3    H274921   1.778   6.281   0.010 -0.8859 -0.1515 -0.3646
17836TIP3   OH274922   6.678   0.506  16.737  0.3305 -0.0737 -0.0744
17836TIP3    H174923   6.660   0.415  16.760 -0.8519  0.1535 -0.0132
17836TIP3    H274924   6.624   0.557  16.798 -0.2218  0.6208 -1.0978
17837TIP3   OH274925   6.714   2.764  14.910 -0.1491  0.0049  0.1682
17837TIP3    H174926   6.759   2.837  14.953 -0.4495 -0.5203  1.4179
17837TIP3    H274927   6.773   2.739  14.838  0.2152  1.1108  0.0624
17838TIP3   OH274928   5.364   0.695   4.398 -0.4789 -0.5591  0.3590
17838TIP3    H174929   5.434   0.668   4.457 -0.1385  0.2467  0.3300
17838TIP3    H274930   5.318   0.613   4.376  0.2544 -1.0496  0.6241
17839TIP3   OH274931   1.553   0.291   1.860  0.4575 -0.5500  0.4181
17839TIP3    H174932   1.485   0.344   1.818  0.4604 -0.3693  0.6431
17839TIP3    H274933   1.600   0.251   1.786 -0.6234 -1.6074  0.2841
17840TIP3   OH274934   4.716   3.442   2.977 -1.1740  0.1686  0.5322
17840TIP3    H174935   4.806   3.425   3.004 -0.9008  2.2686  1.1580
17840TIP3    H274936   4.695   3.372   2.916  0.4170 -1.1091  1.3828
17841TIP3   OH274937   6.449   1.019   3.559 -0.0844 -0.4197 -0.4082
17841TIP3    H174938   6.447   0.948   3.495 -1.0348  0.8114 -1.8080
17841TIP3    H274939   6.365   1.013   3.604  0.0211 -0.4584 -0.2168
17842TIP3   OH274940   1.751   4.599  16.307 -0.4285 -0.2798 -0.0411
17842TIP3    H174941   1.803   4.670  16.268 -2.3732  0.7240 -0.9754
17842TIP3    H274942   1.762   4.526  16.247  0.0086 -0.1207 -0.1582
17843TIP3   OH274943   3.850   4.692   3.514  0.5286 -0.0495 -0.6641
17843TIP3    H174944   3.799   4.697   3.595  1.5951 -0.4854  0.0566
17843TIP3    H274945   3.802   4.748   3.452 -0.1519  0.5213  0.3461
17844TIP3   OH274946   1.400   6.123   3.732 -0.2280 -0.0822  0.1575
17844TIP3    H174947   1.436   6.197   3.780 -0.1565 -0.1958  0.2814
17844TIP3    H274948   1.305   6.136   3.734 -0.1315  1.6712 -2.4986
17845TIP3   OH274949   6.518   6.009   5.607 -0.3123  0.5321  0.6264
17845TIP3    H174950   6.605   6.041   5.629  0.8489 -0.8028 -1.5860
17845TIP3    H274951   6.490   6.065   5.534  0.7337 -1.7259 -1.6856
17846TIP3   OH274952   0.840   2.567   4.945 -0.3010 -0.4177  0.4476
17846TIP3    H174953   0.934   2.587   4.940 -0.7043  1.3500 -1.4426
17846TIP3    H274954   0.836   2.472   4.953  1.6541 -0.3965  3.3611
17847TIP3   OH274955   4.617   3.789  17.004 -0.2136 -0.2773  0.4002
17847TIP3    H174956   4.621   3.764  16.911 -0.3251  0.3818  0.2077
17847TIP3    H274957   4.706   3.778  17.036  0.1346  0.7883 -0.1508
17848TIP3   OH274958   5.697   5.677   4.971  0.0200  0.2766  0.4027
17848TIP3    H174959   5.697   5.755   4.915  0.2629  0.8475  1.1684
17848TIP3    H274960   5.608   5.643   4.965  0.1985 -0.0117 -0.7742
17849TIP3   OH274961   5.491   6.285  12.071  0.1842  0.1141 -0.2734
17849TIP3    H174962   5.502   6.197  12.106 -2.2371  0.5278  1.8435
17849TIP3    H274963   5.479   6.341  12.148 -1.4138  1.7615 -1.6074
17850TIP3   OH274964   6.253   5.129   5.254 -0.0525 -0.4017  0.0470
17850TIP3    H174965   6.187   5.158   5.192  0.7995  0.7471 -0.3548
17850TIP3    H274966   6.326   5.101   5.199  0.0627 -1.0239  0.5005
17851TIP3   OH274967   0.077   5.262  15.972  0.0037 -0.7168  0.0812
17851TIP3    H174968   0.148   5.205  15.941  1.9085  1.6754 -0.2875
17851TIP3    H274969   0.041   5.302  15.893  0.4547  0.4843  0.4577
17852TIP3   OH274970   6.171   0.362  10.941  0.3211 -0.1589  0.5508
17852TIP3    H174971   6.250   0.410  10.917 -0.0885  1.1959  1.7613
17852TIP3    H274972   6.170   0.365  11.037 -0.0750 -2.0563  0.6496
17853TIP3   OH274973   1.895   3.300   2.609 -0.0842  0.1479 -0.0943
17853TIP3    H174974   1.844   3.234   2.561 -1.0503 -0.5969  1.8348
17853TIP3    H274975   1.834   3.334   2.674  1.3448  0.6656  1.0171
17854TIP3   OH274976   4.511   5.663  12.538 -0.1299 -0.3933 -0.2193
17854TIP3    H174977   4.508   5.707  12.622 -0.4923  0.3637 -0.6223
17854TIP3    H274978   4.519   5.570  12.560  0.2600 -0.1658  0.6379
17855TIP3   OH274979   4.925   6.115  10.756  0.4324 -0.2135  0.3160
17855TIP3    H174980   4.954   6.124  10.665 -2.1209 -0.7079 -0.6154
17855TIP3    H274981   4.967   6.035  10.787 -1.2241 -1.9093 -1.5626
17856TIP3   OH274982   3.136   0.139   4.064 -0.3584  0.3777 -0.3412
17856TIP3    H174983   3.197   0.211   4.076 -0.3682  0.2601  0.4630
17856TIP3    H274984   3.159   0.076   4.133 -0.9750  0.0519 -0.4259
17857TIP3   OH274985   1.704   0.511   2.406 -0.4511 -0.0876  0.1437
17857TIP3    H174986   1.793   0.478   2.416  0.0620  1.4165  0.8008
17857TIP3    H274987   1.679   0.541   2.493 -0.0133  3.2479 -0.7343
17858TIP3   OH274988   4.801   5.819  12.357 -0.1647  0.4364  0.4664
17858TIP3    H174989   4.764   5.786  12.275  1.2128 -3.0884  1.0841
17858TIP3    H274990   4.728   5.821  12.418 -0.6317  0.0734 -0.0738
17859TIP3   OH274991   4.682   2.659  14.930 -0.5140  0.1927 -0.5200
17859TIP3    H174992   4.709   2.750  14.943 -1.6784  0.5057 -0.1308
17859TIP3    H274993   4.629   2.638  15.007  0.7170 -1.2275 -0.0019
17860TIP3   OH274994   4.344   5.227   3.836 -0.0430  0.0727 -0.1235
17860TIP3    H174995   4.324   5.133   3.831  1.0797 -0.2368  0.9297
17860TIP3    H274996   4.433   5.231   3.870 -0.3756  1.5507  0.6283
17861TIP3   OH274997   3.756   3.765   3.486 -0.8940 -0.0887  0.4701
17861TIP3    H174998   3.778   3.810   3.568  0.0864  1.6591 -0.6907
17861TIP3    H274999   3.698   3.825   3.440  0.8544  0.3299 -1.3495
17862TIP3   OH275000   0.877   0.364   3.939 -0.3189 -0.3441  0.2231
17862TIP3    H175001   0.970   0.372   3.962 -0.0312 -2.1822 -0.1446
17862TIP3    H275002   0.847   0.454   3.929  0.6834  0.4504  3.1775
17863TIP3   OH275003   2.173   2.378   5.729  0.2916 -0.3349 -0.1137
17863TIP3    H175004   2.131   2.306   5.682 -0.0624  0.1740 -0.5868
17863TIP3    H275005   2.226   2.423   5.663  3.1900 -2.0926  0.8371
17864TIP3   OH275006   2.844   6.334   4.234 -0.1289 -0.0120  0.0835
17864TIP3    H175007   2.793   6.411   4.260 -0.9198 -0.2096 -0.8160
17864TIP3    H275008   2.808   6.310   4.149 -0.7082 -2.0818  0.8588
17865TIP3   OH275009   1.235   1.506  17.063  0.3177  0.1988 -0.3693
17865TIP3    H175010   1.228   1.412  17.080 -0.6863  0.5282  1.3052
17865TIP3    H275011   1.309   1.535  17.116  0.0905  0.4757 -0.1987
17866TIP3   OH275012   0.393   0.547  15.654 -0.1340  0.1184 -0.2332
17866TIP3    H175013   0.360   0.618  15.709  0.8259  1.1324 -0.9214
17866TIP3    H275014   0.363   0.569  15.566  0.1327 -0.3587 -0.4501
17867TIP3   OH275015   5.320   3.788  11.116  0.4898 -0.0559  0.1975
17867TIP3    H175016   5.256   3.733  11.162  0.0848 -1.3209 -1.7799
17867TIP3    H275017   5.299   3.877  11.144 -1.1122 -0.5937  0.8090
17868TIP3   OH275018   1.727   4.198   5.304 -1.0207 -0.0348  0.5686
17868TIP3    H175019   1.703   4.175   5.394 -0.9540 -1.7228  0.1874
17868TIP3    H275020   1.821   4.181   5.299 -0.7171  1.4788  0.5630
17869TIP3   OH275021   1.988   2.994   0.639 -0.2474  0.5405  0.1561
17869TIP3    H175022   2.062   3.045   0.673  1.2386 -1.1602 -0.3172
17869TIP3    H275023   1.969   2.931   0.709 -0.8584  0.5919  0.0384
17870TIP3   OH275024   0.739   0.496  12.946  0.2923  0.1287  0.1288
17870TIP3    H175025   0.739   0.419  12.889 -2.4167 -0.0512  0.2657
17870TIP3    H275026   0.748   0.461  13.034 -4.3981 -0.6025  0.5862
17871TIP3   OH275027   6.401   3.279   3.251 -0.2420 -0.3607  0.1813
17871TIP3    H175028   6.446   3.355   3.290 -2.1892  0.8872  0.1183
17871TIP3    H275029   6.309   3.294   3.269 -1.0251 -0.9738 -2.7952
17872TIP3   OH275030   6.615   6.652   1.801  0.2343 -0.6733 -0.3874
17872TIP3    H175031   6.608   6.740   1.766  0.1596 -0.5554 -0.0779
17872TIP3    H275032   6.583   6.659   1.891  0.6361 -0.9241 -0.2201
17873TIP3   OH275033   5.898   5.187  15.585 -0.4412 -0.5512 -0.1815
17873TIP3    H175034   5.947   5.255  15.540  0.0292  0.1295  1.3294
17873TIP3    H275035   5.806   5.209  15.568 -0.2847  0.2175 -0.0668
17874TIP3   OH275036   5.899   3.077  14.017  0.1386  0.1612  0.0144
17874TIP3    H175037   5.830   3.138  13.992  0.1353 -0.3111 -1.1784
17874TIP3    H275038   5.855   3.016  14.078 -0.5604 -0.2390 -0.8612
17875TIP3   OH275039   3.608   5.133  13.651 -0.5865  0.2461 -0.6640
17875TIP3    H175040   3.534   5.074  13.664 -1.5758  1.0447 -2.3228
17875TIP3    H275041   3.602   5.196  13.723 -0.1022 -1.0427  0.5430
17876TIP3   OH275042   4.424   2.118  15.714  0.0284  0.1848 -0.3818
17876TIP3    H175043   4.432   2.045  15.653  1.7184 -0.8887  0.9972
17876TIP3    H275044   4.388   2.079  15.794 -2.6407  1.6508 -0.7377
17877TIP3   OH275045   2.385   6.309   1.500 -0.2024 -0.0104  0.3128
17877TIP3    H175046   2.399   6.344   1.587 -0.2675  0.8367 -0.0099
17877TIP3    H275047   2.402   6.382   1.441  1.3753 -0.9718 -0.4933
17878TIP3   OH275048   3.781   5.120  14.511  0.6715  0.5016  0.1380
17878TIP3    H175049   3.722   5.188  14.545  0.4083 -0.1684  1.0462
17878TIP3    H275050   3.838   5.167  14.450  0.4196  1.5236  0.6548
17879TIP3   OH275051   0.543   4.489   4.062 -0.9037  0.4343  0.0681
17879TIP3    H175052   0.473   4.499   4.127 -0.8033  0.1592  0.2233
17879TIP3    H275053   0.578   4.577   4.051 -2.1415  0.8174 -1.0022
17880TIP3   OH275054   3.069   3.465  14.871  0.3940  0.3080  0.3454
17880TIP3    H175055   2.976   3.490  14.868  0.0713 -0.5080  2.2834
17880TIP3    H275056   3.099   3.474  14.780 -1.0434  2.5070  0.0032
17881TIP3   OH275057   4.479   5.968   0.470 -0.2462 -0.5184 -0.0681
17881TIP3    H175058   4.401   6.021   0.451  0.0436 -0.0023  0.1650
17881TIP3    H275059   4.447   5.898   0.526 -0.5210 -0.2416  0.1262
17882TIP3   OH275060   1.731   5.259   5.650  0.1453 -0.0083  0.2545
17882TIP3    H175061   1.827   5.258   5.650  0.1755 -1.9649  0.3561
17882TIP3    H275062   1.707   5.307   5.729  1.0496 -0.0950  0.5936
17883TIP3   OH275063   0.142   2.373   3.895  0.4907  0.6013 -0.2185
17883TIP3    H175064   0.211   2.433   3.921  1.0691 -0.0909 -0.1268
17883TIP3    H275065   0.146   2.371   3.799 -0.4225  1.7287 -0.3047
17884TIP3   OH275066   6.763   3.976  11.962 -0.1552  0.1737 -0.4438
17884TIP3    H175067   6.770   4.035  11.887 -1.9950 -0.8989 -1.5190
17884TIP3    H275068   6.790   3.891  11.928 -1.1289 -0.3485  0.0541
17885TIP3   OH275069   6.160   2.131  11.415  0.4507 -0.2896  0.0982
17885TIP3    H175070   6.223   2.184  11.367  1.4895 -2.4165 -1.0495
17885TIP3    H275071   6.102   2.096  11.347  0.2868 -1.2481  0.7127
17886TIP3   OH275072   2.566   0.873  11.522  0.0858  0.9174  0.5332
17886TIP3    H175073   2.484   0.877  11.474  0.2126  1.1316  0.3302
17886TIP3    H275074   2.634   0.870  11.454  0.3066  2.0817  0.6908
17887TIP3   OH275075   1.578   3.080   0.473 -0.5939 -0.5475 -0.0380
17887TIP3    H175076   1.503   3.098   0.416  2.1441  1.7408 -3.3990
17887TIP3    H275077   1.589   3.160   0.524 -0.3479 -0.8299  0.3583
17888TIP3   OH275078   5.091   6.647   6.345 -0.6597  0.6283  0.2899
17888TIP3    H175079   5.004   6.607   6.352  0.5488 -2.5559 -1.1425
17888TIP3    H275080   5.120   6.625   6.256  1.2928  2.3812  0.4210
17889TIP3   OH275081   2.650   2.412  12.604 -0.5788  0.1787 -0.0932
17889TIP3    H175082   2.673   2.319  12.593  0.8427  0.4867  0.1440
17889TIP3    H275083   2.568   2.422  12.555  0.4360 -0.6725 -2.0832
17890TIP3   OH275084   3.856   1.836   5.145 -0.1640 -0.5171  0.5132
17890TIP3    H175085   3.872   1.804   5.233 -1.2699 -0.5445  0.7241
17890TIP3    H275086   3.914   1.911   5.135  0.0195 -0.5569  1.2352
17891TIP3   OH275087   6.079   1.362  13.884 -0.0976 -0.2422  0.1656
17891TIP3    H175088   6.069   1.428  13.953 -1.2818 -3.1187  3.0062
17891TIP3    H275089   6.171   1.337  13.889 -0.0725 -0.1174  0.3455
17892TIP3   OH275090   6.430   2.449   6.061 -0.3580 -0.1413 -0.1307
17892TIP3    H175091   6.439   2.361   6.096 -2.3013 -0.4986 -0.4033
17892TIP3    H275092   6.377   2.438   5.982 -1.4073  1.3286  0.3179
17893TIP3   OH275093   4.758   5.486   5.340 -0.2718  0.4472  0.2906
17893TIP3    H175094   4.724   5.416   5.395 -1.6111  0.6470 -0.2411
17893TIP3    H275095   4.828   5.525   5.392 -0.3356 -0.4914  1.1096
17894TIP3   OH275096   5.667   2.628  11.392  0.1026 -0.5776 -0.4536
17894TIP3    H175097   5.635   2.560  11.451 -0.1878 -0.7007 -0.7525
17894TIP3    H275098   5.739   2.586  11.345  0.6608 -0.3284  0.1526
17895TIP3   OH275099   1.192   1.124  15.872  0.0278  0.5223  0.0586
17895TIP3    H175100   1.262   1.183  15.846 -0.3488  0.6230 -0.7473
17895TIP3    H275101   1.138   1.115  15.794 -1.2993  1.0714  0.8745
17896TIP3   OH275102   3.266   0.469   4.328  0.0028  0.2001  0.0478
17896TIP3    H175103   3.213   0.480   4.249  2.7842  0.5458 -1.9262
17896TIP3    H275104   3.286   0.376   4.330  3.0598  0.6549 -2.0339
17897TIP3   OH275105   5.120   2.990  11.511  0.1374 -0.0754  0.3314
17897TIP3    H175106   5.036   2.983  11.556  0.6605  0.0105  1.3443
17897TIP3    H275107   5.137   2.902  11.477 -1.4710  0.4198 -1.9780
17898TIP3   OH275108   5.932   1.369  16.476  0.0189 -0.0007  0.5393
17898TIP3    H175109   5.998   1.326  16.423 -0.6461  0.3452 -0.6007
17898TIP3    H275110   5.977   1.445  16.513  0.4137 -0.0914  0.2493
17899TIP3   OH275111   2.247   0.268  16.173  0.1975 -0.8382 -0.6197
17899TIP3    H175112   2.255   0.356  16.210 -0.5694 -0.9158 -0.2403
17899TIP3    H275113   2.308   0.267  16.099 -1.0725  0.6480 -1.7720
17900TIP3   OH275114   2.218   5.113  11.462  0.2488 -0.7945  0.5435
17900TIP3    H175115   2.173   5.068  11.390  0.3051 -2.5478  1.5626
17900TIP3    H275116   2.157   5.182  11.489  0.9468  1.1166 -2.2821
17901TIP3   OH275117   5.906   0.779   2.130 -0.4321 -0.6158 -0.5109
17901TIP3    H175118   5.880   0.864   2.163  0.5825  0.6076 -2.6401
17901TIP3    H275119   5.825   0.737   2.101 -0.8282  0.0797 -0.4077
17902TIP3   OH275120   0.374   4.221  10.952  0.0284  0.1462 -0.2871
17902TIP3    H175121   0.291   4.179  10.972 -0.9265  2.4060  0.8062
17902TIP3    H275122   0.368   4.242  10.858 -0.6294  0.2888 -0.2151
17903TIP3   OH275123   5.170   6.575  11.884 -0.2183  0.4751  0.2151
17903TIP3    H175124   5.211   6.574  11.970 -0.2525 -0.4916  0.2317
17903TIP3    H275125   5.199   6.657  11.844  2.4806 -0.5521 -0.1084
17904TIP3   OH275126   4.622   1.766   2.028 -0.1662 -0.9103  0.5820
17904TIP3    H175127   4.654   1.679   2.052  1.1417 -0.1538  1.7110
17904TIP3    H275128   4.650   1.822   2.100 -0.6712  0.5167 -0.3090
17905TIP3   OH275129   2.341   4.422   2.256 -0.0854  0.1614  0.1645
17905TIP3    H175130   2.257   4.466   2.265 -0.5885 -0.6120 -0.5871
17905TIP3    H275131   2.325   4.333   2.288  0.3334 -0.1041 -0.3474
17906TIP3   OH275132   6.267   0.129   1.674  0.2922  0.3203  0.1041
17906TIP3    H175133   6.286   0.047   1.720  1.5218 -0.1047 -1.1182
17906TIP3    H275134   6.274   0.196   1.742 -1.5165 -0.6079  1.3071
17907TIP3   OH275135   3.497   0.440  14.055  0.1010  0.0714 -0.4005
17907TIP3    H175136   3.475   0.351  14.028 -2.3600  0.8114 -1.0451
17907TIP3    H275137   3.532   0.481  13.977 -0.2226  0.1058 -0.5298
17908TIP3   OH275138   4.455   5.485   1.664  0.1558  0.4368  0.3526
17908TIP3    H175139   4.383   5.465   1.604  0.6308 -2.6973  0.6529
17908TIP3    H275140   4.417   5.546   1.727 -2.8701 -2.2385  1.4467
17909TIP3   OH275141   5.216   3.296  16.991  0.2738 -0.4751 -0.1155
17909TIP3    H175142   5.310   3.293  16.971  0.5277 -0.8990  1.0660
17909TIP3    H275143   5.178   3.228  16.936  0.9889 -1.8008  0.9634
17910TIP3   OH275144   2.769   5.677  13.034 -0.4707 -0.0283  0.2265
17910TIP3    H175145   2.680   5.685  13.001 -0.2842 -0.5883 -0.4379
17910TIP3    H275146   2.786   5.761  13.077 -1.5818 -0.2094  1.0500
17911TIP3   OH275147   6.184   2.916  16.043 -0.0919  0.1728 -0.2998
17911TIP3    H175148   6.233   2.995  16.018  0.7965 -0.3997 -0.3980
17911TIP3    H275149   6.220   2.891  16.128  0.6636 -0.9465 -0.9205
17912TIP3   OH275150   4.305   6.780   0.065 -0.0050 -0.4181  0.4294
17912TIP3    H175151   4.379   6.834   0.038  0.1896 -1.1056 -0.4763
17912TIP3    H275152   4.254   6.768  -0.016 -1.0883  0.0042  1.0237
17913TIP3   OH275153   5.066   4.690   3.031  0.1664  0.2570 -0.0935
17913TIP3    H175154   5.093   4.737   3.111  0.9668  0.6805 -0.5946
17913TIP3    H275155   5.083   4.753   2.960 -0.0364 -0.3063 -0.6458
17914TIP3   OH275156   3.974   2.337  14.977 -0.0913 -0.1797 -0.0376
17914TIP3    H175157   3.990   2.427  14.950 -0.5701 -0.3345 -0.8590
17914TIP3    H275158   4.053   2.290  14.950  0.6828  0.1977  1.4680
17915TIP3   OH275159   6.323   4.148  11.710  0.3170 -0.1664 -0.3714
17915TIP3    H175160   6.370   4.232  11.712  1.5056 -0.8309  0.4288
17915TIP3    H275161   6.258   4.156  11.779  0.9136 -0.1712  0.1981
17916TIP3   OH275162   5.391   1.453   2.275  0.3943 -0.0840 -0.3614
17916TIP3    H175163   5.326   1.413   2.217  0.4028  0.4089 -0.7182
17916TIP3    H275164   5.343   1.469   2.356  0.3797 -0.7729 -0.2305
17917TIP3   OH275165   4.986   0.325  12.095 -0.6240  0.2902 -0.2281
17917TIP3    H175166   5.003   0.312  12.002 -2.2792 -0.3978 -0.4586
17917TIP3    H275167   4.937   0.407  12.099  1.3388  1.5188  0.2975
17918TIP3   OH275168   0.974   5.575   5.998 -0.0485  0.4728  0.1163
17918TIP3    H175169   1.033   5.635   6.043  0.0660 -0.4122  1.1980
17918TIP3    H275170   0.928   5.530   6.069  0.2348 -1.0696 -0.6363
17919TIP3   OH275171   2.257   1.721   0.073  0.0444 -0.6323 -1.0135
17919TIP3    H175172   2.296   1.761   0.151 -1.3135 -2.0309  0.4594
17919TIP3    H275173   2.331   1.678   0.029  1.1199  1.5073 -1.4286
17920TIP3   OH275174   5.083   0.179  12.301 -0.1444  0.4201  0.1640
17920TIP3    H175175   5.151   0.125  12.262 -1.1461 -1.4109  0.7914
17920TIP3    H275176   5.045   0.227  12.228 -0.2527 -0.9561 -0.7156
17921TIP3   OH275177   4.945   5.658   2.810 -0.9370 -0.4705 -0.1644
17921TIP3    H175178   5.028   5.622   2.841 -0.6684  0.1933 -0.1113
17921TIP3    H275179   4.880   5.593   2.836 -0.6360 -0.2668  1.1668
17922TIP3   OH275180   1.006   4.743   4.814 -0.3881 -0.7581 -0.3337
17922TIP3    H175181   1.016   4.785   4.728  2.0710  0.3531  0.3918
17922TIP3    H275182   1.079   4.682   4.819 -0.7469 -1.1100  0.8059
17923TIP3   OH275183   2.223   1.684  10.630 -0.1687 -0.1044 -0.7370
17923TIP3    H175184   2.223   1.588  10.639  1.8211  0.0177  1.2705
17923TIP3    H275185   2.197   1.699  10.539 -2.6669 -2.4330 -0.5401
17924TIP3   OH275186   4.976   2.699   3.027  0.5680  0.3608  0.6239
17924TIP3    H175187   4.932   2.781   3.051  0.0639  0.5521 -0.8163
17924TIP3    H275188   5.070   2.719   3.034  0.5240  1.7704 -1.6464
17925TIP3   OH275189   1.037   2.678  11.963  0.1592  0.4193 -0.1608
17925TIP3    H175190   0.969   2.643  12.019  0.0836 -0.5486 -0.8348
17925TIP3    H275191   1.091   2.603  11.939  1.5725  1.1761  0.4732
17926TIP3   OH275192   2.300   4.964  14.634 -0.3735 -0.6014  0.2732
17926TIP3    H175193   2.210   4.965  14.600  0.1497 -1.8508 -1.2628
17926TIP3    H275194   2.328   4.873  14.627  1.2763 -0.1137 -0.0043
17927TIP3   OH275195   5.886   0.512   2.999 -0.0625  0.4331 -0.6243
17927TIP3    H175196   5.898   0.596   3.043 -0.0387 -0.1762  0.5780
17927TIP3    H275197   5.888   0.447   3.070  0.0943 -0.5994 -1.5433
17928TIP3   OH275198   5.928   4.818   5.571 -0.1234 -0.0889 -0.0223
17928TIP3    H175199   5.883   4.863   5.643  0.2618  1.1488 -0.5297
17928TIP3    H275200   5.919   4.878   5.497 -1.0251 -1.5966 -1.1943
17929TIP3   OH275201   4.690   3.587   5.011 -0.5411  0.1874 -0.0867
17929TIP3    H175202   4.724   3.658   4.957 -0.8861  1.4938  1.3489
17929TIP3    H275203   4.757   3.518   5.005 -0.0184  0.7695 -1.1936
17930TIP3   OH275204   3.111   0.838  12.792  0.4574 -0.0796 -0.1612
17930TIP3    H175205   3.096   0.792  12.875  1.9898  1.5760  1.1086
17930TIP3    H275206   3.038   0.899  12.784  0.2052 -0.3760 -0.1423
17931TIP3   OH275207   6.028   0.516  13.677 -0.3477  0.5880  0.4347
17931TIP3    H175208   6.023   0.611  13.678 -1.0440  0.5854 -0.8111
17931TIP3    H275209   5.950   0.487  13.726 -0.9624  0.6625 -0.4818
17932TIP3   OH275210   1.735   6.745   5.021 -0.2349 -0.4634 -0.1647
17932TIP3    H175211   1.798   6.736   5.092  1.1809 -2.8851 -1.5885
17932TIP3    H275212   1.789   6.769   4.945 -1.6159  1.4054 -0.6186
17933TIP3   OH275213   6.244   1.925  16.111  0.4369  0.2809 -0.9381
17933TIP3    H175214   6.204   2.010  16.127 -2.3188 -0.8941 -0.8980
17933TIP3    H275215   6.281   1.931  16.023  0.0854  1.4493 -1.0198
17934TIP3   OH275216   5.207   2.384   1.408 -0.1390 -0.2330  0.6254
17934TIP3    H175217   5.255   2.465   1.393 -0.4940 -0.0723  0.3524
17934TIP3    H275218   5.267   2.315   1.381 -1.1779  0.0606 -2.9071
17935TIP3   OH275219   0.132   2.685  15.641  0.5232  0.0153 -0.7520
17935TIP3    H175220   0.091   2.615  15.590 -0.9925  0.0375  0.3509
17935TIP3    H275221   0.171   2.641  15.716 -0.3713  0.3205 -0.0918
17936TIP3   OH275222   0.773   2.784  11.112  0.4430 -0.3075 -0.5770
17936TIP3    H175223   0.752   2.714  11.174 -2.6186  0.0460 -1.0607
17936TIP3    H275224   0.714   2.770  11.039  1.3309  1.4979 -1.7137
17937TIP3   OH275225   2.951   5.104   0.083  0.2544 -0.2231  0.1818
17937TIP3    H175226   3.037   5.141   0.104  0.4272  0.1920 -1.1987
17937TIP3    H275227   2.917   5.161   0.015 -1.4315  0.0220  1.1844
17938TIP3   OH275228   1.852   3.263   2.884 -0.1640 -0.2090  0.1224
17938TIP3    H175229   1.942   3.231   2.874 -0.0715 -0.3598  1.2344
17938TIP3    H275230   1.801   3.185   2.905 -0.2557  0.0994  1.0820
17939TIP3   OH275231   4.652   2.197   4.851  0.5945 -0.0409 -0.0661
17939TIP3    H175232   4.624   2.106   4.836  0.7305 -0.0257 -0.4238
17939TIP3    H275233   4.579   2.237   4.899  0.5650 -0.3591  0.1536
17940TIP3   OH275234   1.652   4.102   5.782  0.2012 -0.3757  0.3999
17940TIP3    H175235   1.747   4.114   5.790  0.1770  1.0607 -1.0506
17940TIP3    H275236   1.643   4.022   5.730  0.5642 -1.1536  1.4879
17941TIP3   OH275237   3.693   6.628  13.156  0.5423  0.1459  0.3009
17941TIP3    H175238   3.674   6.643  13.063 -0.1438  1.6951  0.6622
17941TIP3    H275239   3.607   6.611  13.195  0.6396  0.9700  0.8903
17942TIP3   OH275240   0.999   6.187  15.456  0.1799  0.5174  0.4933
17942TIP3    H175241   1.085   6.147  15.471 -1.0780 -2.3092  0.9480
17942TIP3    H275242   0.971   6.153  15.371 -1.4781 -0.7224  1.4707
17943TIP3   OH275243   3.840   3.689  15.484  0.1221 -0.4221 -0.0713
17943TIP3    H175244   3.897   3.735  15.546  1.0642 -1.5270 -0.0700
17943TIP3    H275245   3.767   3.658  15.537 -0.0868  0.3386  0.0921
17944TIP3   OH275246   4.530   1.071  16.577  0.4358  0.1362 -0.6277
17944TIP3    H175247   4.625   1.077  16.567  0.4122  1.4054 -0.2709
17944TIP3    H275248   4.498   1.159  16.556 -0.4986  0.2195  1.0242
17945TIP3   OH275249   0.967   1.514   3.027  0.1776 -0.2307 -0.2694
17945TIP3    H175250   0.962   1.609   3.036 -2.4458  0.0250 -2.8865
17945TIP3    H275251   1.036   1.500   2.962  2.0223 -0.3652  1.6119
17946TIP3   OH275252   4.813   1.780  15.481 -0.4663 -0.7362  0.5155
17946TIP3    H175253   4.864   1.754  15.558  1.6487  2.7794  0.5105
17946TIP3    H275254   4.811   1.875  15.484 -1.2804 -0.4676 -3.1876
17947TIP3   OH275255   1.074   4.518  13.875  0.0050 -0.6971 -0.1520
17947TIP3    H175256   1.030   4.518  13.790  0.4814  1.7591 -0.4613
17947TIP3    H275257   1.049   4.601  13.915  0.7563 -1.2760  1.5984
17948TIP3   OH275258   1.613   6.786  15.580 -0.3343  0.4200  0.2473
17948TIP3    H175259   1.648   6.699  15.561 -1.6872 -0.3708  1.1560
17948TIP3    H275260   1.624   6.835  15.499  0.2415 -0.6639 -0.3530
17949TIP3   OH275261   6.031   4.775  11.214 -0.1756 -1.0561  0.1248
17949TIP3    H175262   6.006   4.730  11.133 -0.2219 -0.2804 -0.2941
17949TIP3    H275263   6.046   4.865  11.188  2.5921 -1.3409  0.4527
17950TIP3   OH275264   5.653   2.190  14.576 -0.4808 -0.0080 -0.1398
17950TIP3    H175265   5.607   2.218  14.497  0.1530 -3.6853 -2.0845
17950TIP3    H275266   5.744   2.217  14.563 -0.7844  1.3490  0.4568
17951TIP3   OH275267   2.741   1.308   2.005 -0.1466  0.1533  0.9388
17951TIP3    H175268   2.681   1.236   2.026 -1.7977  1.5225  1.1037
17951TIP3    H275269   2.746   1.359   2.085 -0.5787  1.2985  0.2611
17952TIP3   OH275270   3.265   4.315  13.156  0.2826 -0.3512  0.8542
17952TIP3    H175271   3.183   4.274  13.131  0.1657 -0.3893  1.2929
17952TIP3    H275272   3.333   4.255  13.124  0.1780  0.1970 -0.4394
17953TIP3   OH275273   5.231   0.392  12.742  0.2776 -0.0785 -0.2773
17953TIP3    H175274   5.212   0.423  12.653  3.7025  1.6465 -0.5412
17953TIP3    H275275   5.189   0.456  12.799 -1.9052 -1.1690 -0.5362
17954TIP3   OH275276   4.162   5.226  14.057  0.6785 -0.4775  0.1856
17954TIP3    H175277   4.156   5.147  14.111  0.2583 -1.0043 -0.6208
17954TIP3    H275278   4.248   5.220  14.016  0.4929 -0.7055 -0.1685
17955TIP3   OH275279   4.579   0.502  17.107 -0.2426 -0.4946  0.2329
17955TIP3    H175280   4.566   0.480  17.015 -0.4701 -0.2132  0.1983
17955TIP3    H275281   4.610   0.593  17.105  1.2373 -0.9704  0.3375
17956TIP3   OH275282   4.304   2.377   6.039 -0.1070 -0.3538  0.9244
17956TIP3    H175283   4.240   2.311   6.013 -0.8349  1.1299 -1.4138
17956TIP3    H275284   4.376   2.367   5.977  0.1849  0.4078  1.1234
17957TIP3   OH275285   4.694   6.571  16.314  0.0040 -0.0924  0.3084
17957TIP3    H175286   4.704   6.507  16.385 -1.1411 -0.1148  0.4596
17957TIP3    H275287   4.603   6.597  16.318  0.3604  1.2717 -0.0073
17958TIP3   OH275288   0.776   4.685  14.882 -0.2005  0.1351  0.3186
17958TIP3    H175289   0.720   4.616  14.920 -1.5505  0.8231 -0.3404
17958TIP3    H275290   0.731   4.767  14.904  0.4646  0.7038 -0.3827
17959TIP3   OH275291   2.038   5.952  13.096 -0.2127  0.1406 -0.2121
17959TIP3    H175292   2.101   5.880  13.087 -0.3170  0.0114  0.0891
17959TIP3    H275293   2.092   6.031  13.101 -0.1003  0.0937 -0.6243
17960TIP3   OH275294   3.394   1.043   3.701  0.0887 -0.1447  0.1000
17960TIP3    H175295   3.370   0.951   3.688 -0.6421  0.1771 -1.0186
17960TIP3    H275296   3.320   1.092   3.666  0.3739  0.8812  0.8837
17961TIP3   OH275297   1.171   3.477   5.908 -0.2760 -0.0205 -0.2906
17961TIP3    H175298   1.098   3.467   5.846 -0.1615  1.1680 -0.6512
17961TIP3    H275299   1.191   3.571   5.905  1.5913 -0.4018 -0.5525
17962TIP3   OH275300   4.059   4.558  13.181  0.0229 -0.3885  0.0484
17962TIP3    H175301   4.097   4.473  13.155  0.8113 -0.4712  1.3656
17962TIP3    H275302   4.026   4.595  13.099 -0.8538 -2.2045 -0.4848
17963TIP3   OH275303   4.820   2.936  12.832 -0.4371  0.1598 -0.1760
17963TIP3    H175304   4.736   2.893  12.814 -0.2879  0.0760 -0.6809
17963TIP3    H275305   4.861   2.945  12.747  1.1179 -1.8998  0.2839
17964TIP3   OH275306   6.148   0.757  12.439 -0.0295 -0.4854  0.0233
17964TIP3    H175307   6.134   0.712  12.356  1.1367  0.3858 -0.6671
17964TIP3    H275308   6.241   0.746  12.458 -0.2048 -0.3424  1.0164
17965TIP3   OH275309   4.633   4.817  12.286 -0.2881  0.0309 -0.1909
17965TIP3    H175310   4.703   4.826  12.221  0.7523  0.3981  0.9430
17965TIP3    H275311   4.631   4.724  12.307  0.1316  0.0743  0.0522
17966TIP3   OH275312   5.064   4.519   5.067  0.3746 -0.6039  0.2577
17966TIP3    H175313   5.048   4.427   5.084  1.0673 -0.4043  2.2482
17966TIP3    H275314   5.009   4.539   4.991 -0.0466 -2.5494 -0.0031
17967TIP3   OH275315   0.204   0.142  11.808  0.0145 -0.1402 -0.0478
17967TIP3    H175316   0.287   0.098  11.823  0.2455  0.4946  0.5720
17967TIP3    H275317   0.159   0.088  11.743  0.4614 -1.0599  0.4018
17968TIP3   OH275318   4.994   3.392  16.768  0.1303 -0.4066  0.5077
17968TIP3    H175319   5.075   3.420  16.725  0.5762 -0.9900  0.9441
17968TIP3    H275320   4.955   3.330  16.706 -1.5319  2.0481 -1.0633
17969TIP3   OH275321   4.624   3.818  15.255  0.4707  0.0528  0.0815
17969TIP3    H175322   4.576   3.750  15.210  0.4091  0.6556 -0.7968
17969TIP3    H275323   4.619   3.795  15.347 -0.5458 -0.4874 -0.0995
17970TIP3   OH275324   0.244   6.795   2.050  0.1985 -0.1996 -0.0296
17970TIP3    H175325   0.217   6.756   1.968 -0.7317 -0.6752  0.4885
17970TIP3    H275326   0.332   6.828   2.033  0.1917 -0.6854 -1.0742
17971TIP3   OH275327   4.999   5.388  14.928  0.9300  0.2103 -0.5709
17971TIP3    H175328   4.933   5.411  14.862  0.0194 -3.6058 -1.2430
17971TIP3    H275329   4.954   5.400  15.012  0.9272  1.7841 -0.7664
17972TIP3   OH275330   3.148   3.638   5.020  0.4835 -0.3328 -0.4262
17972TIP3    H175331   3.130   3.685   5.101  0.9934  0.1328 -0.5841
17972TIP3    H275332   3.208   3.694   4.971  3.3253 -2.3210  0.5479
17973TIP3   OH275333   5.584   6.602  14.858  0.1267  0.1413 -0.0417
17973TIP3    H175334   5.521   6.630  14.925  1.0001  1.3408  0.3201
17973TIP3    H275335   5.533   6.599  14.777 -0.8124 -0.7593  0.5509
17974TIP3   OH275336   0.797   0.655  15.515 -0.3469  0.3357  0.1983
17974TIP3    H175337   0.856   0.657  15.591  0.2630  0.1678 -0.2598
17974TIP3    H275338   0.779   0.563  15.501  0.7846  0.2371 -0.7828
17975TIP3   OH275339   2.933   1.151  11.965 -0.5169 -0.2073 -0.2308
17975TIP3    H175340   2.853   1.181  12.007 -0.1280  2.0804 -0.9692
17975TIP3    H275341   2.906   1.127  11.877 -0.4460  0.3952 -0.4234
17976TIP3   OH275342   0.426   4.985  15.134 -0.5126 -0.2375  0.4371
17976TIP3    H175343   0.356   5.029  15.084  0.1841 -0.0142 -0.3571
17976TIP3    H275344   0.382   4.955  15.214 -1.7475 -0.9463 -0.4697
17977TIP3   OH275345   2.684   0.100  12.255 -0.4725  0.1293  0.0190
17977TIP3    H175346   2.671   0.105  12.161 -0.5268 -0.8476 -0.0317
17977TIP3    H275347   2.656   0.012  12.279 -0.3148  0.3129  0.9282
17978TIP3   OH275348   4.063   5.892   6.052  0.1305  0.3489  0.3807
17978TIP3    H175349   4.157   5.910   6.049  0.1766  0.2172  0.8648
17978TIP3    H275350   4.028   5.959   6.112 -0.2492  1.0512 -0.6036
17979TIP3   OH275351   0.846   3.489  12.280 -0.3325 -0.5939  0.2262
17979TIP3    H175352   0.786   3.549  12.324 -0.8276 -0.3045 -0.8156
17979TIP3    H275353   0.921   3.483  12.339 -1.5487 -1.3080  1.7729
17980TIP3   OH275354   3.428   1.309  11.287 -0.2997  0.1505  0.1327
17980TIP3    H175355   3.390   1.393  11.260 -0.6204 -0.5299 -1.6340
17980TIP3    H275356   3.500   1.295  11.226 -1.1578 -1.5431 -0.5251
17981TIP3   OH275357   4.747   2.569  12.926  0.0795 -0.0204  0.3856
17981TIP3    H175358   4.758   2.635  12.859 -0.5789  0.0492  0.3417
17981TIP3    H275359   4.836   2.536  12.942  0.2689  0.1243 -0.3419
17982TIP3   OH275360   5.746   3.963  14.971  0.0948 -0.5784 -0.1614
17982TIP3    H175361   5.709   4.048  14.993  0.3744 -0.3512 -0.5449
17982TIP3    H275362   5.701   3.937  14.890 -0.9120 -1.3951  0.6279
17983TIP3   OH275363   5.278   6.658  12.459  0.1073 -0.2416 -0.2050
17983TIP3    H175364   5.206   6.695  12.408  0.3341  0.4903 -0.0042
17983TIP3    H275365   5.327   6.734  12.490  0.9180 -0.7267 -0.2647
17984TIP3   OH275366   0.692   2.279   3.681 -0.2793 -0.2230  0.8412
17984TIP3    H175367   0.784   2.297   3.663 -0.4499  0.0225  0.1901
17984TIP3    H275368   0.658   2.242   3.600 -0.9450  0.4524  0.8018
17985TIP3   OH275369   5.666   4.848  15.961 -0.0409  0.0180  0.1078
17985TIP3    H175370   5.583   4.894  15.970 -0.4234 -0.5466 -0.4006
17985TIP3    H275371   5.673   4.793  16.039  1.2331  2.1480  1.5789
17986TIP3   OH275372   0.452   4.612  13.569  0.2853  0.5946  0.0094
17986TIP3    H175373   0.459   4.640  13.477  2.5939 -1.3314 -0.5157
17986TIP3    H275374   0.371   4.560  13.572  0.1057  0.8006 -0.9194
17987TIP3   OH275375   5.970   0.553   3.757  0.0782  0.3953  0.5632
17987TIP3    H175376   5.980   0.533   3.850 -1.4972 -2.0737  0.2887
17987TIP3    H275377   5.878   0.537   3.739  0.5774 -0.3249 -1.6301
17988TIP3   OH275378   3.096   3.761   4.711 -0.3085  0.2482 -0.0849
17988TIP3    H175379   3.023   3.727   4.660 -0.6442  0.4226  0.2775
17988TIP3    H275380   3.086   3.856   4.707 -0.5792  0.2553  0.6550
17989TIP3   OH275381   5.349   6.766  11.752 -0.2062 -0.1537 -0.2095
17989TIP3    H175382   5.348   6.775  11.656 -0.2029 -1.9367 -0.4132
17989TIP3    H275383   5.440   6.784  11.776  0.3513 -1.8673 -0.8388
17990TIP3   OH275384   1.504   2.195   0.561  0.2646 -0.0377  0.3031
17990TIP3    H175385   1.486   2.214   0.653 -0.7704 -1.8378  0.5196
17990TIP3    H275386   1.417   2.180   0.523  0.7211  0.1815 -0.8572
17991TIP3   OH275387   0.297   1.101   4.834 -0.8765  0.3535 -0.1108
17991TIP3    H175388   0.361   1.135   4.897 -1.2240 -1.4530  1.2771
17991TIP3    H275389   0.322   1.141   4.750  1.9483 -0.1474  0.4143
17992TIP3   OH275390   0.222   0.104  11.499 -0.4921  0.6297  0.2734
17992TIP3    H175391   0.189   0.028  11.548 -0.8546  2.1307  2.5293
17992TIP3    H275392   0.144   0.156  11.480 -0.0124  1.7926  1.3032
17993TIP3   OH275393   6.308   6.473   1.244  0.1016  0.2199  0.1895
17993TIP3    H175394   6.396   6.510   1.254 -0.9296  2.9371 -0.0618
17993TIP3    H275395   6.251   6.536   1.287 -2.3697  1.7895 -4.6637
17994TIP3   OH275396   2.604   4.590  14.728 -0.0101 -0.3786 -0.4042
17994TIP3    H175397   2.692   4.618  14.703 -0.1339 -0.4159 -0.8933
17994TIP3    H275398   2.551   4.604  14.649 -1.5769  4.2504  1.1859
17995TIP3   OH275399   5.449   0.082  16.770 -0.2478 -0.0205  0.1355
17995TIP3    H175400   5.452   0.068  16.864  1.8329  1.5771  0.3966
17995TIP3    H275401   5.535   0.052  16.738 -1.3009 -1.5423 -1.4628
17996TIP3   OH275402   4.013   5.789   4.062 -0.3448  0.0006  0.2313
17996TIP3    H175403   4.025   5.695   4.076 -1.8915 -0.1310  0.9139
17996TIP3    H275404   3.944   5.814   4.124  0.0959  1.6055  0.1227
17997TIP3   OH275405   6.184   6.123  12.819 -0.2462  0.1051 -0.1553
17997TIP3    H175406   6.259   6.063  12.817  1.4057  2.0465 -0.1528
17997TIP3    H275407   6.201   6.181  12.893 -0.7381  1.7714 -1.2771
17998TIP3   OH275408   6.037   0.906   1.825 -0.1762  0.1515  0.0648
17998TIP3    H175409   5.989   0.886   1.906  0.4573 -2.4331 -0.1094
17998TIP3    H275410   6.112   0.958   1.855 -2.2682  3.1639  0.4865
17999TIP3   OH275411   2.539   0.540   0.888  0.3800  0.3155  0.0624
17999TIP3    H175412   2.496   0.458   0.866  0.6924 -0.1116  0.9615
17999TIP3    H275413   2.611   0.547   0.825  0.8799 -0.5562  0.5095
18000TIP3   OH275414   6.753   5.087   2.938 -0.3097 -0.0378  0.4145
18000TIP3    H175415   6.831   5.121   2.894  0.3047 -2.0187 -0.1395
18000TIP3    H275416   6.777   4.998   2.965 -2.4170 -0.7731  0.0907
18001TIP3   OH275417   3.640   3.244  15.408 -0.0051 -0.0795  0.0673
18001TIP3    H175418   3.605   3.316  15.356 -0.4745  0.5160  1.1756
18001TIP3    H275419   3.734   3.245  15.391 -0.4853 -2.6816 -4.1971
18002TIP3   OH275420   4.127   5.672   3.394 -0.6761 -0.7986 -0.0253
18002TIP3    H175421   4.039   5.675   3.357 -0.1012  0.0036 -1.3981
18002TIP3    H275422   4.172   5.604   3.344 -0.2415 -0.5697  0.0497
18003TIP3   OH275423   4.917   1.486  13.026  0.1531 -0.4517  0.5025
18003TIP3    H175424   4.894   1.578  13.037  0.2175 -0.2853 -0.6870
18003TIP3    H275425   4.988   1.471  13.089  1.5821  0.8538 -0.7441
18004TIP3   OH275426   2.035   1.674   2.192  0.1711  0.1249  0.2171
18004TIP3    H175427   2.097   1.602   2.200 -0.6006 -0.5177  0.5980
18004TIP3    H275428   1.956   1.634   2.156  0.0365  0.9695 -0.4594
18005TIP3   OH275429   2.919   4.312   5.847 -0.0494  0.5512  0.6389
18005TIP3    H175430   2.996   4.256   5.861 -0.2573  0.1042  0.0331
18005TIP3    H275431   2.954   4.401   5.842  0.1916  0.5963  2.5118
18006TIP3   OH275432   6.226   6.635   4.118  0.5281 -0.1001 -0.3973
18006TIP3    H175433   6.210   6.600   4.206  0.8529 -1.1724 -0.7430
18006TIP3    H275434   6.263   6.722   4.133  0.9642 -0.4244  0.5405
18007TIP3   OH275435   6.066   6.089  10.696 -0.6238  0.1618  0.2691
18007TIP3    H175436   5.989   6.116  10.648 -0.2938  1.7444  0.5952
18007TIP3    H275437   6.102   6.169  10.733  0.7407 -0.6363  0.7767
18008TIP3   OH275438   2.596   3.662   0.260  0.0786  0.6945  0.0575
18008TIP3    H175439   2.555   3.637   0.177  0.1339  1.0301 -0.0739
18008TIP3    H275440   2.525   3.698   0.313  0.1175  0.8682 -0.0050
18009TIP3   OH275441   5.457   1.964  14.116  0.0516  0.5061  0.3841
18009TIP3    H175442   5.430   1.888  14.064 -0.5206 -0.0939  1.5403
18009TIP3    H275443   5.492   1.928  14.197 -0.0467  1.4630  0.8726
18010TIP3   OH275444   0.461   2.920   0.711 -0.3655 -0.3090 -0.3668
18010TIP3    H175445   0.477   2.935   0.618 -0.1780 -0.7244 -0.4048
18010TIP3    H275446   0.469   3.007   0.751 -0.9870 -0.0433 -0.8094
18011TIP3   OH275447   2.597   0.447  11.639  0.2824 -0.2105 -0.0683
18011TIP3    H175448   2.602   0.390  11.562 -0.6999 -1.0174  0.4529
18011TIP3    H275449   2.507   0.440  11.669  0.8841 -0.7241  1.7601
18012TIP3   OH275450   3.730   1.462  10.883 -0.2898  0.6139 -0.3735
18012TIP3    H175451   3.737   1.555  10.865 -3.0006  1.1723  0.8959
18012TIP3    H275452   3.646   1.436  10.843 -0.7038 -0.7100  1.2412
18013TIP3   OH275453   0.413   3.206  14.144  0.1470  0.4262 -0.2558
18013TIP3    H175454   0.418   3.284  14.199 -0.0531  0.4695 -0.2982
18013TIP3    H275455   0.319   3.192  14.131  0.2061  0.8792 -1.2489
18014TIP3   OH275456   6.291   5.500  15.319 -0.0176 -0.3201 -0.3928
18014TIP3    H175457   6.281   5.556  15.396 -2.6338 -0.8732 -0.2301
18014TIP3    H275458   6.333   5.556  15.253 -1.1788  1.3802  0.2453
18015TIP3   OH275459   1.781   2.105   0.692  0.2393  0.4391 -0.3897
18015TIP3    H175460   1.852   2.057   0.649 -0.5643 -0.8875 -0.2975
18015TIP3    H275461   1.703   2.084   0.640 -0.3329  0.7340  0.3274
18016TIP3   OH275462   4.438   2.194  13.709  0.3003 -0.2333 -0.1966
18016TIP3    H175463   4.445   2.163  13.618  0.2919 -0.3511 -0.1567
18016TIP3    H275464   4.529   2.203  13.738  0.3022 -1.1927  0.1220
18017TIP3   OH275465   3.757   2.547  15.973 -0.1381 -0.4724  1.0092
18017TIP3    H175466   3.813   2.478  15.938 -0.8254 -0.1012 -0.9803
18017TIP3    H275467   3.815   2.622  15.984  0.8408 -1.5155  4.1381
18018TIP3   OH275468   2.702   2.746   5.134  0.2778 -0.0170 -0.1588
18018TIP3    H175469   2.656   2.746   5.050  1.9209 -0.0577 -1.0872
18018TIP3    H275470   2.702   2.838   5.161  0.2380  0.0784 -0.4816
18019TIP3   OH275471   3.741   5.390  12.021 -0.1197 -0.3667  0.0253
18019TIP3    H175472   3.738   5.296  12.005 -0.0602 -1.0320  3.3495
18019TIP3    H275473   3.730   5.400  12.115  2.7250  2.8033  0.2158
18020TIP3   OH275474   6.781   0.741  13.817 -0.1291  0.0786 -0.0805
18020TIP3    H175475   6.730   0.666  13.847  2.0688 -1.3317  0.4092
18020TIP3    H275476   6.789   0.797  13.894  1.1166 -0.9470  0.5706
18021TIP3   OH275477   2.947   1.343   3.954  0.5354 -0.4849  0.2622
18021TIP3    H175478   3.011   1.358   3.884 -0.9781 -0.6480 -1.2503
18021TIP3    H275479   2.988   1.277   4.010  1.6056 -0.7481 -0.7801
18022TIP3   OH275480   3.541   3.296  15.115 -0.3780 -0.2023 -0.2429
18022TIP3    H175481   3.595   3.277  15.039  0.3505  1.2835 -0.1381
18022TIP3    H275482   3.472   3.354  15.082  0.0224  0.5637  0.2300
18023TIP3   OH275483   5.628   5.370   2.108 -0.3387  0.2112  0.1440
18023TIP3    H175484   5.601   5.460   2.090  1.0938  1.3523  3.0837
18023TIP3    H275485   5.688   5.348   2.037 -1.1761  1.2968 -0.9503
18024TIP3   OH275486   4.346   1.465  14.831  0.3334  0.4388  0.2275
18024TIP3    H175487   4.271   1.487  14.886  0.3017  1.2177 -0.1108
18024TIP3    H275488   4.374   1.549  14.794  0.2409 -0.0805 -1.0799
18025TIP3   OH275489   2.028   5.190  14.892 -0.0386  0.5286 -0.4810
18025TIP3    H175490   2.026   5.132  14.968 -0.5931 -0.6751 -1.3985
18025TIP3    H275491   1.936   5.214  14.877 -0.1468 -0.5949 -1.7704
18026TIP3   OH275492   1.761   3.061   2.486  0.2219 -0.3041 -0.7181
18026TIP3    H175493   1.809   2.989   2.527 -0.5939 -0.6770 -0.4023
18026TIP3    H275494   1.694   3.018   2.433  0.1573  0.2124 -1.0653
18027TIP3   OH275495   2.789   1.092  13.763 -0.0588  0.0102 -0.5699
18027TIP3    H175496   2.825   1.180  13.773  1.4566 -0.6149 -0.1657
18027TIP3    H275497   2.859   1.043  13.719  0.3946 -1.7228  1.8477
18028TIP3   OH275498   5.993   1.659  15.753  0.0246  0.3777  0.5447
18028TIP3    H175499   5.941   1.644  15.674  0.8092  6.1407 -1.6184
18028TIP3    H275500   5.930   1.688  15.818 -0.2725 -0.9556  0.8635
18029TIP3   OH275501   3.229   1.459  16.386 -0.2129 -0.3339 -0.0320
18029TIP3    H175502   3.183   1.520  16.328 -1.1685 -0.4152  0.6014
18029TIP3    H275503   3.248   1.511  16.465  0.4689 -0.4011 -0.1528
18030TIP3   OH275504   5.058   5.287   2.451  0.8069 -0.2958 -0.1943
18030TIP3    H175505   5.041   5.283   2.545  0.7601  0.2830 -0.1701
18030TIP3    H275506   4.979   5.327   2.415  0.2402 -1.7670 -0.6590
18031TIP3   OH275507   5.190   0.926   4.551  0.1316 -0.2444 -0.4288
18031TIP3    H175508   5.148   0.992   4.496 -0.1707 -0.0043  0.0813
18031TIP3    H275509   5.153   0.940   4.638 -1.6464 -2.5160 -0.7039
18032TIP3   OH275510   6.078   6.200  15.005 -0.4321  0.2480  0.0091
18032TIP3    H175511   6.079   6.158  14.919 -1.8443 -0.4435  0.2975
18032TIP3    H275512   6.104   6.291  14.988 -1.0806  0.2291 -1.2231
18033TIP3   OH275513   3.892   4.746  15.762 -0.1279 -0.2528  0.2015
18033TIP3    H175514   3.842   4.772  15.684 -0.3129  0.0664  0.4264
18033TIP3    H275515   3.923   4.658  15.741  1.3291  0.4835 -0.9790
18034TIP3   OH275516   6.396   1.858   5.862  0.3935  0.6717 -0.1913
18034TIP3    H175517   6.342   1.936   5.849  0.3289  0.5429 -0.6947
18034TIP3    H275518   6.470   1.890   5.914  0.3099  1.0440 -0.2952
18035TIP3   OH275519   0.010   6.714  12.719  0.2080 -0.0839 -0.1733
18035TIP3    H175520   0.072   6.707  12.646  1.8284 -0.2656  1.1596
18035TIP3    H275521  -0.059   6.650  12.698  1.7686 -1.7439 -0.5144
18036TIP3   OH275522   3.784   1.546  10.545  0.0479  0.2176 -0.4614
18036TIP3    H175523   3.760   1.637  10.560  1.0450  0.3810  0.2572
18036TIP3    H275524   3.704   1.496  10.561  0.2579  0.6755  2.4436
18037TIP3   OH275525   4.335   5.885  11.280 -0.5615 -0.6516 -0.9657
18037TIP3    H175526   4.367   5.926  11.360 -0.0015 -0.6162 -1.2067
18037TIP3    H275527   4.242   5.869  11.297 -0.1480 -1.9756  0.2401
18038TIP3   OH275528   0.534   3.454  14.190 -0.3052 -0.0885 -0.0520
18038TIP3    H175529   0.618   3.479  14.230  0.1632 -0.7660 -0.6049
18038TIP3    H275530   0.557   3.391  14.122 -1.0824  1.1189 -1.4869
18039TIP3   OH275531   2.022   3.185   1.990  0.2468 -0.0068  0.9943
18039TIP3    H175532   1.993   3.153   2.076 -2.4625 -1.6706 -0.4019
18039TIP3    H275533   1.955   3.247   1.964  2.6081  2.8832  1.2298
18040TIP3   OH275534   0.207   3.659  10.735 -0.2710 -0.4395 -0.2018
18040TIP3    H175535   0.261   3.738  10.744 -0.0661 -0.5012 -0.8461
18040TIP3    H275536   0.265   3.595  10.695 -0.5633 -0.7858 -0.0732
18041TIP3   OH275537   5.297   6.153   4.283  0.1758  0.5001  0.0659
18041TIP3    H175538   5.280   6.153   4.188 -0.8819  2.0201  0.2287
18041TIP3    H275539   5.263   6.068   4.313  3.5715 -1.5732 -1.3449
18042TIP3   OH275540   2.322   2.180   3.494 -0.5745 -0.1498 -0.5285
18042TIP3    H175541   2.396   2.126   3.522 -0.5615  0.0674 -0.1318
18042TIP3    H275542   2.324   2.177   3.399  0.9496  1.2200 -0.5694
18043TIP3   OH275543   0.702   3.338  15.034 -0.0196  0.5275  0.6271
18043TIP3    H175544   0.643   3.403  15.072  0.5148  0.3306  1.8569
18043TIP3    H275545   0.780   3.388  15.009  0.2876  0.4112  1.3329
18044TIP3   OH275546   6.555   3.027  16.453  0.2506 -0.2228 -0.4379
18044TIP3    H175547   6.508   3.110  16.442 -0.8180 -0.8918 -1.1651
18044TIP3    H275548   6.629   3.048  16.510 -0.6321  1.0037  0.3104
18045TIP3   OH275549   3.174   2.058  10.232  0.3355 -0.0150  0.1506
18045TIP3    H175550   3.199   2.016  10.315  1.1640  0.7723  0.3195
18045TIP3    H275551   3.089   2.020  10.211  0.5757 -0.9950  0.8306
18046TIP3   OH275552   4.786   3.779   2.753 -0.2854 -0.3032 -0.0815
18046TIP3    H175553   4.809   3.794   2.844 -0.0033  0.6056 -0.2902
18046TIP3    H275554   4.818   3.857   2.707 -0.9578 -0.4661 -0.8589
18047TIP3   OH275555   3.192   0.584   5.429 -0.8463 -0.0055 -0.7249
18047TIP3    H175556   3.238   0.646   5.372 -1.7653  0.7741 -0.6390
18047TIP3    H275557   3.259   0.520   5.454  0.6568  2.0339  0.8072
18048TIP3   OH275558   2.146   5.921   1.590  0.4022 -0.4337 -0.5160
18048TIP3    H175559   2.237   5.945   1.608 -0.3176  0.4944  2.2836
18048TIP3    H275560   2.118   5.984   1.523  0.8716  1.5329  1.0364
18049TIP3   OH275561   2.008   0.977   3.060  0.2102 -0.0536  0.2074
18049TIP3    H175562   1.958   0.903   3.028 -0.5216  0.1494  0.8593
18049TIP3    H275563   2.014   0.964   3.155  2.2317 -0.5778  0.0553
18050TIP3   OH275564   4.253   4.096  13.590 -0.3706 -0.3988 -0.1756
18050TIP3    H175565   4.330   4.149  13.610  0.3333 -1.4855  0.1037
18050TIP3    H275566   4.179   4.155  13.604  0.3594  0.3704  0.5852
18051TIP3   OH275567   1.179   4.194   0.696 -0.0252 -0.1247 -0.0999
18051TIP3    H175568   1.113   4.150   0.750  0.8913 -2.1405 -0.5276
18051TIP3    H275569   1.261   4.148   0.717  0.7996  0.7329 -1.3390
18052TIP3   OH275570   5.899   2.902  16.030 -0.0848  0.3779  0.2570
18052TIP3    H175571   5.881   2.965  15.961 -0.6958 -0.7122 -0.6126
18052TIP3    H275572   5.995   2.899  16.037  0.1206 -1.0524 -2.0782
18053TIP3   OH275573   4.329   2.165  11.939 -0.0366  0.4664 -0.1695
18053TIP3    H175574   4.334   2.261  11.940 -0.5808  0.4923  0.2195
18053TIP3    H275575   4.407   2.137  11.987  0.6375  0.6878 -1.1090
18054TIP3   OH275576   5.303   5.324   0.484  0.1505  0.0950 -0.2504
18054TIP3    H175577   5.395   5.325   0.512  0.2480 -0.1726 -0.5537
18054TIP3    H275578   5.262   5.261   0.544  0.6894 -1.7210 -1.6765
18055TIP3   OH275579   4.056   0.727   3.244  0.2591  0.2650  0.0609
18055TIP3    H175580   4.060   0.719   3.340  1.1520  3.2739  0.3965
18055TIP3    H275581   3.996   0.658   3.217 -2.9431  1.4662  3.1979
18056TIP3   OH275582   1.464   1.481   2.118  0.4010  0.0283  0.2166
18056TIP3    H175583   1.474   1.417   2.048 -1.3318  0.4284 -0.4524
18056TIP3    H275584   1.419   1.434   2.188  2.5014 -0.4873  1.2839
18057TIP3   OH275585   4.512   4.344   5.035 -0.1896 -0.4741  0.0297
18057TIP3    H175586   4.490   4.304   5.119  0.3466  0.8159  0.8233
18057TIP3    H275587   4.569   4.280   4.992  0.7421 -0.5454  1.3036
18058TIP3   OH275588   2.597   0.404  14.482  0.2344 -0.1446 -0.0868
18058TIP3    H175589   2.545   0.484  14.493 -0.0774 -0.4766  1.0155
18058TIP3    H275590   2.682   0.426  14.520  0.4004 -0.1064 -0.4718
18059TIP3   OH275591   3.604   4.117  14.817 -0.1885  0.6170  0.2401
18059TIP3    H175592   3.522   4.081  14.783  0.4998  0.0505 -0.8862
18059TIP3    H275593   3.589   4.211  14.822 -0.6045  0.6215 -0.8581
18060TIP3   OH275594   3.671   1.715   0.440 -0.5304  0.2076  0.3398
18060TIP3    H175595   3.638   1.744   0.355 -0.0854  0.0346  0.1059
18060TIP3    H275596   3.660   1.620   0.439  0.5022  0.0874  0.0297
18061TIP3   OH275597   6.055   3.025  14.935  1.0044  0.6188 -0.2478
18061TIP3    H175598   5.975   3.075  14.952  2.1792  2.0611  1.3584
18061TIP3    H275599   6.024   2.937  14.912 -1.0689  1.6450 -1.6343
18062TIP3   OH275600   5.018   6.666  13.916  0.2862  0.2143  0.4458
18062TIP3    H175601   4.941   6.721  13.900  0.1241  0.0101  0.5191
18062TIP3    H275602   5.033   6.621  13.833  2.2039  2.5556 -0.5876
18063TIP3   OH275603   3.452   3.371   1.775 -0.1227  0.9317 -0.1811
18063TIP3    H175604   3.376   3.408   1.821 -1.9123 -1.4333 -1.0210
18063TIP3    H275605   3.434   3.385   1.682  0.2567  0.0240 -0.4088
18064TIP3   OH275606   6.783   2.778  13.149 -0.0530 -0.2576  0.3799
18064TIP3    H175607   6.847   2.848  13.160 -0.5727  0.6009 -1.6495
18064TIP3    H275608   6.829   2.698  13.174  2.5777  0.0234 -2.9542
18065TIP3   OH275609   3.458   0.630  12.298  0.7129  0.1415 -0.3425
18065TIP3    H175610   3.384   0.571  12.280  1.3998 -0.4215 -1.3822
18065TIP3    H275611   3.502   0.640  12.214  1.0690  1.5283 -0.0112
18066TIP3   OH275612   1.969   5.574   2.037 -0.9209 -0.3507  0.0586
18066TIP3    H175613   1.931   5.525   1.964 -0.1740 -0.1422 -0.4813
18066TIP3    H275614   2.058   5.538   2.046 -1.0934 -0.5559  1.0339
18067TIP3   OH275615   3.543   4.042  15.411 -0.5719 -0.5847  0.6940
18067TIP3    H175616   3.596   4.117  15.385 -0.7991 -0.4038  0.7442
18067TIP3    H275617   3.459   4.056  15.368 -0.2285 -1.4442 -0.2845
18068TIP3   OH275618   4.224   5.563  12.761 -0.0547  0.2182 -0.4251
18068TIP3    H175619   4.175   5.599  12.687  0.4161 -0.9969 -1.3706
18068TIP3    H275620   4.267   5.485  12.726  0.9617  0.1394  0.8915
18069TIP3   OH275621   4.375   5.726   0.325  0.4822  0.3576  0.2607
18069TIP3    H175622   4.429   5.725   0.404 -1.2628  2.0869  1.5698
18069TIP3    H275623   4.383   5.637   0.290  2.4208 -0.0580  1.5772
18070TIP3   OH275624   6.541   5.179  14.264  0.0029  0.5080  0.0315
18070TIP3    H175625   6.534   5.256  14.321  0.7652  0.1874  0.5791
18070TIP3    H275626   6.466   5.125  14.289  0.6207  0.1295  1.1179
18071TIP3   OH275627   1.994   6.559   1.759 -0.1173  0.2367 -0.4192
18071TIP3    H175628   1.974   6.628   1.822  1.9983  2.3781 -1.8939
18071TIP3    H275629   2.024   6.486   1.813 -0.4119  1.2099  1.1380
18072TIP3   OH275630   1.626   0.434   1.479 -0.4848 -0.4137 -0.2997
18072TIP3    H175631   1.634   0.439   1.383 -2.0377 -0.5444 -0.4585
18072TIP3    H275632   1.642   0.524   1.508  0.8615 -0.5333 -0.5780
18073TIP3   OH275633   1.524   4.345   5.190  0.0680  0.5649  0.4384
18073TIP3    H175634   1.593   4.306   5.245  1.7583 -1.1559 -2.6506
18073TIP3    H275635   1.444   4.300   5.217  1.0172 -0.9799  0.8023
18074TIP3   OH275636   4.397   5.777  15.250  0.3081 -0.1381  0.8394
18074TIP3    H175637   4.311   5.740  15.230  0.2332  0.2524  0.4046
18074TIP3    H275638   4.377   5.854  15.304  0.3370  0.3192  0.2093
18075TIP3   OH275639   0.602   1.970  14.373 -1.0480 -0.4163  0.3403
18075TIP3    H175640   0.585   1.940  14.284 -0.5996 -2.9450  1.0369
18075TIP3    H275641   0.516   1.984  14.411 -1.3214 -1.7259  0.2413
18076TIP3   OH275642   6.109   3.433   4.678 -0.2484  0.2770 -0.2403
18076TIP3    H175643   6.024   3.461   4.645 -0.7000  0.5661  1.1475
18076TIP3    H275644   6.094   3.346   4.714 -0.0352  0.4551  0.2877
18077TIP3   OH275645   6.127   1.370   0.299  0.3050 -0.1378 -0.3813
18077TIP3    H175646   6.112   1.326   0.216  0.8769  0.9083 -1.0661
18077TIP3    H275647   6.139   1.462   0.275 -0.2666  0.3051  0.9359
18078TIP3   OH275648   4.459   0.949  15.844  0.4693  0.1024  0.2795
18078TIP3    H175649   4.516   1.023  15.826  1.7678 -0.3364  2.2690
18078TIP3    H275650   4.393   0.952  15.774  2.7682  0.7403 -2.0318
18079TIP3   OH275651   4.376   5.213   4.591  0.3710 -0.0890  0.1083
18079TIP3    H175652   4.378   5.308   4.587  0.2700 -0.1046 -0.3617
18079TIP3    H275653   4.424   5.191   4.671 -0.0184  0.3688  0.4687
18080TIP3   OH275654   3.019   4.504  13.298 -0.3617 -0.9234  0.6118
18080TIP3    H175655   3.100   4.544  13.331  0.5303 -0.0658 -2.3071
18080TIP3    H275656   3.047   4.421  13.259 -0.6065 -0.1108 -1.4229
18081TIP3   OH275657   0.474   2.733   1.676  0.2014  1.1480 -0.1326
18081TIP3    H175658   0.492   2.795   1.747  1.1582 -0.1235  0.8036
18081TIP3    H275659   0.396   2.686   1.704  0.7035  0.4979  0.2027
18082TIP3   OH275660   6.531   1.712  11.243  0.0746 -0.3882  0.5920
18082TIP3    H175661   6.565   1.799  11.266 -0.3461  0.1206 -0.6549
18082TIP3    H275662   6.525   1.713  11.148 -1.0924 -1.3559  0.6390
18083TIP3   OH275663   2.149   2.606   0.806 -0.9908  0.2823  0.1827
18083TIP3    H175664   2.072   2.594   0.751 -1.6561 -0.1775  1.1918
18083TIP3    H275665   2.206   2.664   0.755 -1.5821 -0.1200 -0.9773
18084TIP3   OH275666   4.317   6.516   2.623  0.1444 -0.2758  0.0008
18084TIP3    H175667   4.387   6.489   2.563  0.9287 -0.8940  1.1438
18084TIP3    H275668   4.343   6.478   2.707 -1.2962 -0.0380  0.5707
18085TIP3   OH275669   2.003   0.967   4.560  0.0375  0.8771 -0.0177
18085TIP3    H175670   1.943   1.020   4.612 -0.5623 -1.0666  1.3995
18085TIP3    H275671   1.947   0.922   4.497  0.4912  1.6290 -0.9816
18086TIP3   OH275672   3.584   6.775  15.837  0.1560  0.2707  0.1252
18086TIP3    H175673   3.651   6.718  15.799  0.3366 -0.3527  1.3353
18086TIP3    H275674   3.505   6.756  15.786  0.1894 -1.1325  0.5409
18087TIP3   OH275675   4.069   1.503  14.842  0.0239 -0.7908  0.1347
18087TIP3    H175676   4.117   1.576  14.882 -0.0202 -0.5571 -0.2341
18087TIP3    H275677   4.004   1.545  14.786 -0.7367 -1.1058  0.7666
18088TIP3   OH275678   5.572   3.573   0.721 -0.2686  0.1772  0.2076
18088TIP3    H175679   5.650   3.623   0.745 -0.6709  1.3759 -0.8482
18088TIP3    H275680   5.604   3.507   0.660  0.0791 -0.0290  0.6082
18089TIP3   OH275681   6.385   2.592   0.336  0.0835 -0.1765 -0.1141
18089TIP3    H175682   6.475   2.560   0.337  0.6344  1.3061  0.1552
18089TIP3    H275683   6.392   2.682   0.302 -1.5029 -0.6161 -1.7237
18090TIP3   OH275684   5.154   4.881   3.185  0.3013 -0.0956  0.4171
18090TIP3    H175685   5.228   4.856   3.241  0.0705  0.0957  0.8173
18090TIP3    H275686   5.106   4.945   3.237 -1.8672 -2.3987  1.4987
18091TIP3   OH275687   6.378   2.783   5.160 -0.0199 -0.2731 -0.4604
18091TIP3    H175688   6.410   2.719   5.224  0.7551 -0.7320 -1.2729
18091TIP3    H275689   6.318   2.733   5.104  1.1688 -0.5123 -1.5632
18092TIP3   OH275690   4.664   1.402   5.217 -0.3485  0.1385 -0.0416
18092TIP3    H175691   4.601   1.467   5.189  0.4724  0.7948 -0.4105
18092TIP3    H275692   4.619   1.354   5.287 -1.1433  0.7746 -0.0968
18093TIP3   OH275693   5.476   6.600   0.472 -0.3591  0.4050 -0.0728
18093TIP3    H175694   5.482   6.518   0.424  2.8091  1.0022 -0.9171
18093TIP3    H275695   5.544   6.595   0.538 -1.8629  1.3363  1.6511
18094TIP3   OH275696   3.277   5.980  14.889 -0.1257 -0.3523  0.0649
18094TIP3    H175697   3.278   6.033  14.969  2.1771 -1.1122  0.6103
18094TIP3    H275698   3.230   6.033  14.825 -1.1898  0.6850  1.6435
18095TIP3   OH275699   4.053   0.547  12.387 -0.1474  0.6603 -0.2565
18095TIP3    H175700   4.049   0.553  12.482 -2.1662 -4.0737  0.2219
18095TIP3    H275701   3.985   0.607  12.356 -1.8572 -0.2626  1.5502
18096TIP3   OH275702   5.415   2.778   4.055  0.4627 -0.0881  0.3556
18096TIP3    H175703   5.427   2.769   3.960  2.7447  1.0306  0.4618
18096TIP3    H275704   5.379   2.694   4.083  0.6312 -0.7812 -1.3930
18097TIP3   OH275705   6.011   3.155   1.072 -0.4671  0.2504 -0.4929
18097TIP3    H175706   5.977   3.068   1.050 -1.1787 -0.0177  1.4707
18097TIP3    H275707   6.106   3.146   1.066 -0.5473 -0.5785 -0.6240
18098TIP3   OH275708   5.248   0.919  12.043 -0.1108 -0.6388  0.1109
18098TIP3    H175709   5.174   0.871  12.080  0.9624 -1.2569  1.5458
18098TIP3    H275710   5.214   1.008  12.027 -1.1395 -0.9032  0.7658
18099TIP3   OH275711   5.971   6.133  13.535  0.1905 -0.3226  0.0348
18099TIP3    H175712   6.025   6.072  13.486  0.1094 -0.8160  0.5527
18099TIP3    H275713   5.951   6.088  13.617  0.3206  0.4779  0.5253
18100TIP3   OH275714   3.787   0.805  11.018 -0.0357  0.1242 -0.1844
18100TIP3    H175715   3.856   0.870  11.034 -1.4505  1.3782  1.0689
18100TIP3    H275716   3.715   0.855  10.979 -0.6673 -0.9488 -0.4372
18101TIP3   OH275717   6.475   5.654   1.507 -0.0696  0.5582 -0.1532
18101TIP3    H175718   6.564   5.625   1.524  0.4692  1.4557 -1.3342
18101TIP3    H275719   6.453   5.710   1.581  0.5477  0.7582 -0.1205
18102TIP3   OH275720   5.659   5.064   1.755 -0.0445 -0.0856 -0.3002
18102TIP3    H175721   5.727   5.025   1.810 -0.1723  1.4840  1.0234
18102TIP3    H275722   5.707   5.097   1.679  0.8084  1.5004  0.8765
18103TIP3   OH275723   5.563   0.842   1.966  0.0557  0.3586 -0.0325
18103TIP3    H175724   5.614   0.919   1.944 -0.1156  0.3101 -0.6177
18103TIP3    H275725   5.525   0.813   1.883  2.5529 -2.1565 -0.4425
18104TIP3   OH275726   1.972   3.062  14.620  0.3043  0.1642  0.2162
18104TIP3    H175727   1.985   3.066  14.715  0.5326 -0.8685  0.2373
18104TIP3    H275728   1.980   2.969  14.599 -1.0218  0.2239 -0.6456
18105TIP3   OH275729   3.363   1.239   4.551  0.1202 -0.0017  0.3745
18105TIP3    H175730   3.430   1.186   4.593  0.0659  0.4683  1.0656
18105TIP3    H275731   3.406   1.322   4.532  0.6076 -0.6950 -1.9152
18106TIP3   OH275732   0.278   3.011   5.334  0.9373 -0.2562 -0.2109
18106TIP3    H175733   0.265   2.956   5.257  0.6128 -1.2828  0.5508
18106TIP3    H275734   0.338   2.960   5.390  1.0074  0.3792  0.3074
18107TIP3   OH275735   0.037   5.858  11.593 -0.1465 -0.1287 -0.1324
18107TIP3    H175736   0.127   5.862  11.624 -0.7188  0.5401  1.5605
18107TIP3    H275737   0.029   5.934  11.535  0.4352 -0.3226 -0.4758
18108TIP3   OH275738   1.452   5.995  12.728 -0.0735 -0.0553 -0.2144
18108TIP3    H175739   1.406   5.975  12.647  0.9742 -0.3173 -0.7655
18108TIP3    H275740   1.543   6.008  12.701  0.3074 -0.2444  0.9321
18109TIP3   OH275741   1.307   2.062  16.245  0.6881  0.5664  0.2136
18109TIP3    H175742   1.239   1.999  16.220  1.7573  0.1733 -1.9816
18109TIP3    H275743   1.261   2.127  16.299 -1.1626 -0.3090 -0.2109
18110TIP3   OH275744   1.547   2.671   6.026  0.1575 -0.4580 -0.5548
18110TIP3    H175745   1.536   2.593   6.082 -0.8949  0.7055  0.9570
18110TIP3    H275746   1.464   2.718   6.035  1.1305  1.3418 -0.6341
18111TIP3   OH275747   1.392   2.266  11.120  0.7399 -0.1919  0.3495
18111TIP3    H175748   1.389   2.284  11.026 -0.8753  0.3270  0.4702
18111TIP3    H275749   1.482   2.287  11.146  1.0393  0.2139 -0.9705
18112TIP3   OH275750   5.928   3.206  15.847  0.0675 -0.5203 -0.0937
18112TIP3    H175751   5.846   3.160  15.825  0.3978 -0.4830 -1.4988
18112TIP3    H275752   5.996   3.152  15.807  0.7093 -0.2897  0.6660
18113TIP3   OH275753   3.234   3.398  14.637 -0.5483 -0.2996 -0.0804
18113TIP3    H175754   3.249   3.305  14.618  0.3640 -0.1664 -0.0748
18113TIP3    H275755   3.223   3.439  14.551 -0.9499 -0.4076 -0.0834
18114TIP3   OH275756   5.237   6.615  11.040  0.3742  0.2655 -0.1523
18114TIP3    H175757   5.248   6.523  11.065  2.0349  0.7419  1.0672
18114TIP3    H275758   5.230   6.661  11.124 -0.0314  1.3083 -0.7458
18115TIP3   OH275759   3.379   2.863   3.325  0.0078  0.2493 -0.0934
18115TIP3    H175760   3.339   2.867   3.238  1.5016  0.7455 -0.7805
18115TIP3    H275761   3.473   2.860   3.308  0.2898 -2.6891  1.4195
18116TIP3   OH275762   1.037   2.578   4.306 -0.0965 -0.2747 -0.3366
18116TIP3    H175763   1.089   2.650   4.343 -1.8847  0.9700 -0.0923
18116TIP3    H275764   1.051   2.505   4.367 -0.4279  0.7505  1.0401
18117TIP3   OH275765   2.548   0.888  16.056  0.3793  0.0135 -0.0419
18117TIP3    H175766   2.522   0.951  16.123  3.4509  0.9209  0.4420
18117TIP3    H275767   2.569   0.942  15.980  1.5557 -0.5369 -0.1246
18118TIP3   OH275768   5.724   0.039  12.243  0.2827 -0.5365 -0.1929
18118TIP3    H175769   5.736   0.133  12.250  0.0231 -0.4699 -0.6749
18118TIP3    H275770   5.773   0.004  12.318 -0.6720  0.0466  0.7395
18119TIP3   OH275771   4.904   3.922   4.214  0.0823 -0.2970 -0.3022
18119TIP3    H175772   4.933   3.851   4.270  1.1640  0.2095 -0.1942
18119TIP3    H275773   4.814   3.939   4.241  0.7505  0.3330  1.7139
18120TIP3   OH275774   4.389   3.876   1.243 -0.5122  0.0822  0.4766
18120TIP3    H175775   4.388   3.783   1.266 -0.3969 -0.0324  0.0293
18120TIP3    H275776   4.462   3.884   1.181 -2.3811 -0.1313 -1.8951
18121TIP3   OH275777   5.891   3.740   3.049 -0.0788  0.2326  0.2630
18121TIP3    H175778   5.955   3.681   3.090  0.8913  1.0732 -0.0063
18121TIP3    H275779   5.807   3.693   3.056  0.3727 -0.4234  1.5822
18122TIP3   OH275780   6.591   5.965   4.104 -0.3051 -0.5965 -0.0080
18122TIP3    H175781   6.665   6.025   4.110 -1.2139  0.5823 -0.0104
18122TIP3    H275782   6.527   6.000   4.167  0.0289 -2.9508  1.7634
18123TIP3   OH275783   0.545   2.272  14.948 -0.0384  0.2237  0.0162
18123TIP3    H175784   0.478   2.304  15.009 -0.3049 -1.9613  0.9557
18123TIP3    H275785   0.626   2.270  15.000  0.4655  1.4408 -0.6868
18124TIP3   OH275786   0.246   0.114   6.886 -0.6364  0.4630 -0.2710
18124TIP3    H175787   0.205   0.028   6.890 -0.5013  0.3943 -0.3509
18124TIP3    H275788   0.275   0.123   6.796 -0.3391  0.4455 -0.1787
18125TIP3   OH275789   3.274   4.593  15.238  0.1123  0.0929 -0.3907
18125TIP3    H175790   3.282   4.667  15.297 -1.4333 -0.1141  0.1150
18125TIP3    H275791   3.186   4.559  15.253  0.9716 -2.2347 -0.1516
18126TIP3   OH275792   5.371   1.886  10.831 -0.2795 -0.1915  0.6492
18126TIP3    H175793   5.393   1.925  10.746  1.6374  0.5928  1.4518
18126TIP3    H275794   5.409   1.797  10.826  2.1027  0.6872  1.5156
18127TIP3   OH275795   0.516   2.721  13.971 -0.2498 -0.3531  0.4000
18127TIP3    H175796   0.543   2.811  13.951  1.5700 -1.0779 -0.6213
18127TIP3    H275797   0.453   2.699  13.902  0.2623 -0.2846 -0.0917
18128TIP3   OH275798   4.653   2.878  16.598  0.6396  0.1890 -0.6052
18128TIP3    H175799   4.588   2.814  16.628  1.3709 -1.0408 -1.5512
18128TIP3    H275800   4.617   2.910  16.515  0.2897  1.0118 -0.1485
18129TIP3   OH275801   0.415   4.533  11.227  0.0502  0.0248 -0.4498
18129TIP3    H175802   0.348   4.493  11.283 -0.6019 -2.8114 -3.0263
18129TIP3    H275803   0.407   4.627  11.245 -1.1158 -0.5781  3.0154
18130TIP3   OH275804   6.458   0.104  12.181 -0.3271 -0.2523 -0.3474
18130TIP3    H175805   6.408   0.156  12.244  0.7858  2.6316 -1.6954
18130TIP3    H275806   6.540   0.085  12.225 -0.9945 -1.6079  0.4034
18131TIP3   OH275807   2.479   2.894  15.476 -0.9759 -0.2257 -0.5227
18131TIP3    H175808   2.398   2.944  15.476 -0.3494  0.8409 -2.1101
18131TIP3    H275809   2.545   2.953  15.441  0.5949 -0.9730  0.9755
18132TIP3   OH275810   4.648   3.979   0.188  0.3939  0.0707 -0.3880
18132TIP3    H175811   4.693   3.989   0.104  0.2853 -1.2201 -0.6175
18132TIP3    H275812   4.595   3.900   0.178 -1.5024  1.2196  0.0774
18133TIP3   OH275813   2.278   1.682   2.436 -0.2791 -0.1794  0.1531
18133TIP3    H175814   2.342   1.727   2.491  1.9681 -1.7773 -1.0269
18133TIP3    H275815   2.294   1.715   2.348 -1.5589 -0.1271 -0.0864
18134TIP3   OH275816   2.514   4.627   1.960  0.1497  0.2857  0.2082
18134TIP3    H175817   2.460   4.689   2.009 -1.8494 -1.1223 -0.0922
18134TIP3    H275818   2.484   4.636   1.869  0.7429 -0.2105 -0.0408
18135TIP3   OH275819   3.320   3.713   0.773 -1.4656  0.0408 -0.3598
18135TIP3    H175820   3.405   3.745   0.805 -1.9716  1.0871 -0.0117
18135TIP3    H275821   3.307   3.630   0.819 -1.1728  0.4553  0.4926
18136TIP3   OH275822   5.223   5.668   4.332  0.1707  0.0706  0.4073
18136TIP3    H175823   5.140   5.702   4.300  0.1332  0.5351  0.9797
18136TIP3    H275824   5.289   5.725   4.292  0.1662  0.1917  0.5721
18137TIP3   OH275825   1.545   1.767  16.040 -0.2497  0.5581 -0.1791
18137TIP3    H175826   1.525   1.674  16.046 -0.9132  0.7664  1.3344
18137TIP3    H275827   1.633   1.775  16.076 -0.2764  0.5407 -0.1091
18138TIP3   OH275828   5.869   6.664  11.180 -0.6290  0.0419 -0.2103
18138TIP3    H175829   5.943   6.646  11.237  0.0117 -3.5633 -1.8824
18138TIP3    H275830   5.795   6.676  11.240  0.6995  0.6521  1.4013
18139TIP3   OH275831   2.705   5.748  13.399  0.6726 -0.1246 -0.4216
18139TIP3    H175832   2.716   5.709  13.486 -2.2036 -3.0414 -1.1398
18139TIP3    H275833   2.793   5.748  13.362  1.5240 -1.6767  1.3956
18140TIP3   OH275834   3.655   3.303  15.670  0.2281  0.5900  0.1162
18140TIP3    H175835   3.654   3.266  15.582  1.6708 -0.6162  0.5545
18140TIP3    H275836   3.622   3.232  15.726  2.7825 -0.0730  0.9421
18141TIP3   OH275837   4.830   0.282   2.559 -0.8914 -0.1892  0.5236
18141TIP3    H175838   4.926   0.286   2.559 -0.8721 -0.3311  1.3859
18141TIP3    H275839   4.810   0.222   2.630 -1.5475 -2.6758 -1.6087
18142TIP3   OH275840   0.845   1.948  12.367  0.1852  0.1280 -0.2132
18142TIP3    H175841   0.913   1.912  12.309  0.8212  0.6657  0.1860
18142TIP3    H275842   0.822   2.032  12.327  0.4619  0.3957  0.1801
18143TIP3   OH275843   5.691   4.717   1.953 -0.3683 -0.0372  0.8598
18143TIP3    H175844   5.700   4.707   1.858 -0.4330  1.0752  0.7216
18143TIP3    H275845   5.780   4.736   1.983 -0.7390  2.2032  0.6585
18144TIP3   OH275846   3.455   1.674   5.545 -0.3207  0.3223 -0.3406
18144TIP3    H175847   3.374   1.636   5.509  0.1299 -0.0394 -0.9932
18144TIP3    H275848   3.425   1.744   5.603 -1.0526  1.1217 -1.6567
18145TIP3   OH275849   6.511   4.358   1.883 -0.2219 -0.1116  0.6267
18145TIP3    H175850   6.456   4.293   1.926 -1.4681  0.6493  0.2443
18145TIP3    H275851   6.489   4.351   1.790  0.0086  0.4791  0.5203
18146TIP3   OH275852   3.642   2.658   1.482 -0.1691 -0.1174 -0.1183
18146TIP3    H175853   3.692   2.718   1.427 -1.1223 -1.0680 -2.1190
18146TIP3    H275854   3.705   2.626   1.547  0.4301  2.7626  0.8585
18147TIP3   OH275855   1.448   4.867  14.485  0.5578 -0.2498  0.6823
18147TIP3    H175856   1.353   4.859  14.476  0.3374  1.6069  1.0019
18147TIP3    H275857   1.464   4.861  14.579  0.6846  0.0539  0.6807
18148TIP3   OH275858   3.705   0.824  13.645  0.1411  0.0910  0.4301
18148TIP3    H175859   3.698   0.789  13.734 -0.3755 -0.7866  0.0585
18148TIP3    H275860   3.654   0.763  13.592 -1.1970  1.6748 -0.1741
18149TIP3   OH275861   0.829   0.387  13.564 -0.0007 -0.2271  0.2795
18149TIP3    H175862   0.915   0.349  13.583  1.2287  1.9328 -0.6333
18149TIP3    H275863   0.809   0.359  13.475  0.7630  0.9411 -0.2799
18150TIP3   OH275864   3.714   4.969  15.039 -0.0196  0.1105  0.5136
18150TIP3    H175865   3.771   4.980  14.963 -1.3212  0.3367 -0.4653
18150TIP3    H275866   3.691   4.876  15.040 -1.0335  0.3427 -0.1535
18151TIP3   OH275867   3.790   3.011  12.234 -0.1342 -0.5524 -0.0144
18151TIP3    H175868   3.774   3.038  12.144 -2.3741  0.8751  0.7099
18151TIP3    H275869   3.846   3.079  12.270 -1.4660  0.3997  0.3563
18152TIP3   OH275870   2.941   6.033   1.561  0.8565 -0.1407  0.6432
18152TIP3    H175871   2.956   5.992   1.647  2.6949  0.3344  0.6000
18152TIP3    H275872   2.975   5.969   1.498  1.5618  0.4206  0.4336
18153TIP3   OH275873   1.054   6.652   1.768  0.1054  0.4294 -0.1728
18153TIP3    H175874   1.058   6.600   1.688 -1.3903 -0.0395  0.0221
18153TIP3    H275875   1.077   6.590   1.837 -1.1655  0.1325  0.0065
18154TIP3   OH275876   3.065   1.036   0.778 -0.7572 -0.0775 -0.1546
18154TIP3    H175877   3.008   0.959   0.775 -0.4914 -0.2629 -0.5203
18154TIP3    H275878   3.105   1.032   0.865 -0.1060 -0.8235 -0.4796
18155TIP3   OH275879   6.468   0.845   1.824 -0.2816 -0.4909  0.5354
18155TIP3    H175880   6.405   0.860   1.754 -1.7104 -0.2506  1.8267
18155TIP3    H275881   6.441   0.761   1.863 -0.0455 -0.2057  1.3383
18156TIP3   OH275882   6.616   3.110   2.607 -0.5152 -0.3711  0.1291
18156TIP3    H175883   6.551   3.059   2.655  0.7256 -1.2196  0.9637
18156TIP3    H275884   6.601   3.088   2.515 -1.2212 -0.7745  0.3338
18157TIP3   OH275885   0.429   2.979  11.193  0.0486  0.0639  0.2975
18157TIP3    H175886   0.465   2.966  11.106 -0.7895  2.2019 -0.4242
18157TIP3    H275887   0.452   2.899  11.241  1.7868 -0.5296 -1.4262
18158TIP3   OH275888   0.284   2.789   2.806 -0.3723  0.2579  0.3663
18158TIP3    H175889   0.365   2.753   2.842  0.3553  1.1071 -0.3915
18158TIP3    H275890   0.307   2.816   2.717 -1.8950 -0.9427 -0.4407
18159TIP3   OH275891   2.208   4.729   5.791 -0.1594  0.0593 -0.3387
18159TIP3    H175892   2.263   4.786   5.737 -0.4343 -0.3724 -1.0913
18159TIP3    H275893   2.268   4.662   5.823  0.1825  0.7887  0.6131
18160TIP3   OH275894   3.932   3.927   4.370 -0.0167 -0.7966  0.0979
18160TIP3    H175895   3.840   3.902   4.383 -0.5419  1.8057  2.0748
18160TIP3    H275896   3.931   3.983   4.292  0.1564 -1.7871 -0.6418
18161TIP3   OH275897   6.410   4.320   1.613 -0.2585  0.1913  0.2704
18161TIP3    H175898   6.425   4.227   1.597 -1.2950 -0.1424  1.1336
18161TIP3    H275899   6.318   4.326   1.637 -0.8038  1.7457 -1.9117
18162TIP3   OH275900   1.173   4.635   5.703  0.7252  0.0739  0.2310
18162TIP3    H175901   1.221   4.712   5.673  0.6814  0.4693  1.1265
18162TIP3    H275902   1.147   4.589   5.623  2.3316  0.0010 -0.2876
18163TIP3   OH275903   1.286   0.183  13.843 -0.2325  0.1949  0.5759
18163TIP3    H175904   1.198   0.175  13.879  0.1626  0.3509  1.6121
18163TIP3    H275905   1.289   0.271  13.806 -0.5469  0.1456  0.4304
18164TIP3   OH275906   3.845   2.095   1.933  0.0438  0.5206 -0.0203
18164TIP3    H175907   3.766   2.141   1.964  0.9743  2.5241 -0.4542
18164TIP3    H275908   3.907   2.104   2.005  0.8925  1.7454 -0.8619
18165TIP3   OH275909   1.400   0.603   5.320  0.3872 -0.2662  0.6744
18165TIP3    H175910   1.474   0.559   5.280  1.0821  1.2091  0.2676
18165TIP3    H275911   1.420   0.697   5.312 -1.1376  0.1482  1.2736
18166TIP3   OH275912   1.541   0.767   1.800  0.4292 -0.0998  0.1895
18166TIP3    H175913   1.583   0.750   1.715 -1.2190 -0.2929 -0.6277
18166TIP3    H275914   1.479   0.837   1.782 -0.0218 -0.2201  1.2190
18167TIP3   OH275915   1.733   3.123  14.537 -0.0335 -0.0184 -0.3814
18167TIP3    H175916   1.820   3.112  14.576 -0.0339 -0.3208 -0.4626
18167TIP3    H275917   1.676   3.067  14.588 -0.4251  1.0729  0.4288
18168TIP3   OH275918   5.336   4.055   1.209 -0.4266  0.0591  0.7175
18168TIP3    H175919   5.365   4.128   1.264 -1.3477  0.2692  0.9534
18168TIP3    H275920   5.308   3.988   1.272  2.5957 -1.5054  0.5743
18169TIP3   OH275921   4.309   5.514  13.085 -0.3148 -0.3397  0.0466
18169TIP3    H175922   4.337   5.426  13.060  1.5531  0.4258 -0.7120
18169TIP3    H275923   4.237   5.535  13.025 -1.1441 -1.5054  0.5884
18170TIP3   OH275924   6.386   2.948   2.692  0.5016 -0.6263  0.1898
18170TIP3    H175925   6.322   2.885   2.659 -0.0169  0.4636 -1.0072
18170TIP3    H275926   6.426   2.906   2.768 -2.1125 -1.0766  1.3933
18171TIP3   OH275927   1.368   3.197   1.255 -0.3099 -0.0444  0.0191
18171TIP3    H175928   1.417   3.262   1.205  0.7930  0.9979  2.3252
18171TIP3    H275929   1.288   3.242   1.282 -0.6255 -0.4121 -0.2829
18172TIP3   OH275930   4.592   1.000  14.133 -0.2059  0.6029  0.0524
18172TIP3    H175931   4.675   0.976  14.172 -0.2277  0.6387  0.1206
18172TIP3    H275932   4.588   0.950  14.051 -0.7988 -0.5438  0.7656
18173TIP3   OH275933   0.247   0.744  15.833 -0.4595  0.7173 -0.3686
18173TIP3    H175934   0.227   0.820  15.779  1.7736  1.3283 -0.4683
18173TIP3    H275935   0.263   0.781  15.920  0.7912  0.4205 -0.4530
18174TIP3   OH275936   2.881   3.102  12.708  0.3524 -0.0467  0.3160
18174TIP3    H175937   2.794   3.111  12.670 -0.1836 -0.6389  1.3513
18174TIP3    H275938   2.921   3.188  12.697  0.1732 -0.1596 -1.4231
18175TIP3   OH275939   3.802   4.889  16.327  0.0440  0.2180  0.6951
18175TIP3    H175940   3.724   4.924  16.284  1.2693  1.8390 -0.3487
18175TIP3    H275941   3.847   4.840  16.258  1.5393  2.0289  0.2858
18176TIP3   OH275942   2.662   2.041  15.716  0.5686  0.7313 -0.6638
18176TIP3    H175943   2.603   2.033  15.791 -1.0853  4.2140 -1.3724
18176TIP3    H275944   2.631   1.976  15.654  0.9972 -1.1650  1.0156
18177TIP3   OH275945   3.103   0.308  16.538 -0.4284  1.0726  0.4143
18177TIP3    H175946   3.108   0.224  16.584 -1.8400  0.9894  0.4610
18177TIP3    H275947   3.095   0.373  16.607  1.4491  1.3599  0.4136
18178TIP3   OH275948   3.566   4.731   6.276  0.0930  0.2940  0.4933
18178TIP3    H175949   3.613   4.813   6.264 -1.3482  1.3326  1.6569
18178TIP3    H275950   3.473   4.756   6.277 -0.3619 -1.2987  1.2056
18179TIP3   OH275951   5.584   3.740  14.315 -0.7886  0.1813 -0.2674
18179TIP3    H175952   5.489   3.729  14.312 -0.9311 -0.0676  2.4225
18179TIP3    H275953   5.598   3.832  14.291 -2.0330  1.0491  2.0051
18180TIP3   OH275954   6.652   3.031   4.803 -0.1696  0.1241  0.0535
18180TIP3    H175955   6.558   3.025   4.782 -0.0682 -1.9406 -0.0411
18180TIP3    H275956   6.688   3.085   4.733 -0.8203 -1.6574 -1.7369
18181TIP3   OH275957   3.116   0.146  11.493 -0.3339 -0.4069  0.1302
18181TIP3    H175958   3.199   0.169  11.536 -0.4443  1.0299 -0.3614
18181TIP3    H275959   3.135   0.065  11.446  0.9028  0.0571 -0.2258
18182TIP3   OH275960   2.527   0.660  14.583  0.5640 -0.1927 -0.6954
18182TIP3    H175961   2.537   0.726  14.514 -0.9695 -1.0894 -1.8611
18182TIP3    H275962   2.438   0.675  14.617  1.2368  0.1311  1.0287
18183TIP3   OH275963   3.897   5.656  16.206 -0.0693  0.3101  0.0454
18183TIP3    H175964   3.875   5.746  16.233 -1.3274 -0.1995  0.8162
18183TIP3    H275965   3.826   5.603  16.241 -0.2457 -0.7936 -1.8841
18184TIP3   OH275966   1.886   4.408   2.761  0.1224  0.1531  0.1833
18184TIP3    H175967   1.974   4.413   2.799  0.0771  1.8521  0.1639
18184TIP3    H275968   1.837   4.476   2.807 -0.6590  0.4841 -1.1052
18185TIP3   OH275969   6.737   6.330  13.290 -0.0991 -0.3308 -0.1613
18185TIP3    H175970   6.662   6.387  13.274  0.1180  0.5086  1.6312
18185TIP3    H275971   6.806   6.364  13.233 -0.7424 -0.4741 -1.0548
18186TIP3   OH275972   5.155   3.801   5.495  0.5291 -0.1589  0.0446
18186TIP3    H175973   5.174   3.893   5.511  0.9914  0.0440 -1.5453
18186TIP3    H275974   5.238   3.755   5.509  1.3035  0.1931 -2.8126
18187TIP3   OH275975   0.315   1.961   4.897 -0.4000 -0.1220  0.8374
18187TIP3    H175976   0.228   1.950   4.857  0.2222 -1.3690 -0.2526
18187TIP3    H275977   0.302   1.937   4.989 -1.4278  0.8028  0.9641
18188TIP3   OH275978   4.640   2.560   3.278 -0.1702  0.2092 -0.0554
18188TIP3    H175979   4.730   2.551   3.309  0.0581  0.8721 -0.5024
18188TIP3    H275980   4.637   2.513   3.195 -0.0193  0.8379 -0.4274
18189TIP3   OH275981   4.356   2.430  11.943  0.5668  0.1451 -0.6057
18189TIP3    H175982   4.288   2.446  12.008  0.4044 -1.0126 -0.4808
18189TIP3    H275983   4.362   2.513  11.894 -1.8898 -0.1402 -1.5329
18190TIP3   OH275984   5.865   5.391  11.027 -0.2375 -0.3566 -0.6043
18190TIP3    H175985   5.817   5.456  11.077 -0.3075  0.1005 -1.2471
18190TIP3    H275986   5.944   5.436  10.997  1.0819 -1.3457  1.1676
18191TIP3   OH275987   5.069   3.691   1.342  0.7306  0.8846 -0.1502
18191TIP3    H175988   4.999   3.750   1.367  0.3724  0.7450 -0.7804
18191TIP3    H275989   5.124   3.742   1.283  0.7938  0.7966 -0.1684
18192TIP3   OH275990   4.953   2.269  12.302 -0.2700  0.0566 -0.2662
18192TIP3    H175991   4.921   2.327  12.233 -0.6536  1.5091  1.0686
18192TIP3    H275992   4.883   2.204  12.313 -0.3362 -0.0094 -1.0250
18193TIP3   OH275993   4.275   3.324   1.433  0.1536 -0.4780  0.6895
18193TIP3    H175994   4.186   3.343   1.406  0.0522 -0.6463  0.8957
18193TIP3    H275995   4.269   3.315   1.529  0.9211  2.5270  1.1138
18194TIP3   OH275996   0.755   0.693   0.240 -0.0019  0.1123 -0.5870
18194TIP3    H175997   0.670   0.724   0.271  0.0791 -0.1082 -0.1290
18194TIP3    H275998   0.739   0.602   0.214  0.1812 -0.0676 -0.0925
18195TIP3   OH275999   3.804   1.526   6.578  0.4213  0.4175  0.0379
18195TIP3    H176000   3.861   1.603   6.585  1.3069 -0.3505  1.8958
18195TIP3    H276001   3.721   1.554   6.616  0.3580  0.7963 -0.3715
18196TIP3   OH276002   4.890   0.307  13.768  0.4228  0.3073 -0.3590
18196TIP3    H176003   4.855   0.248  13.702  0.9595 -0.3926 -0.0429
18196TIP3    H276004   4.976   0.270  13.790  0.3154  0.5929  0.6240
18197TIP3   OH276005   5.703   6.556   5.103 -0.0559  0.3298 -0.2489
18197TIP3    H176006   5.657   6.619   5.048  0.7106 -0.0402 -1.3433
18197TIP3    H276007   5.781   6.532   5.053  0.3532 -0.4841  0.7318
18198TIP3   OH276008   4.304   2.437   3.236 -0.3996 -0.1419 -0.9526
18198TIP3    H176009   4.211   2.432   3.218 -0.3310 -0.5624 -1.1854
18198TIP3    H276010   4.341   2.356   3.202 -0.1454 -0.6065  0.3510
18199TIP3   OH276011   1.449   0.133   3.588  0.2576  0.0929 -0.5291
18199TIP3    H176012   1.414   0.178   3.511  1.5598 -1.1859 -1.9447
18199TIP3    H276013   1.372   0.098   3.632 -0.5241  0.8738 -1.2132
18200TIP3   OH276014   2.229   5.164   3.118 -0.3900 -0.2402  0.8661
18200TIP3    H176015   2.172   5.143   3.193 -2.8184  0.7986 -0.5923
18200TIP3    H276016   2.201   5.251   3.090  1.1582 -0.1902 -0.6666
18201TIP3   OH276017   6.009   2.864  15.488 -0.5805  0.1870 -0.5002
18201TIP3    H176018   6.003   2.769  15.498 -0.4411  0.3609  1.9010
18201TIP3    H276019   5.941   2.886  15.425 -0.7061 -1.4814 -0.9985
18202TIP3   OH276020   2.193   4.436  16.223  0.2838  0.3270  0.4105
18202TIP3    H176021   2.277   4.403  16.190  0.4062  1.8659 -0.9254
18202TIP3    H276022   2.202   4.433  16.318  1.2617 -0.9585  0.3109
18203TIP3   OH276023   2.695   2.917  10.731  0.3718 -0.5508 -0.2541
18203TIP3    H176024   2.784   2.950  10.723 -0.3210  1.2297 -1.0010
18203TIP3    H276025   2.667   2.901  10.641 -0.2538 -0.5830 -0.0596
18204TIP3   OH276026   2.362   4.761   1.021 -0.4141  0.6625 -0.1334
18204TIP3    H176027   2.376   4.827   0.953  1.9383  1.5253  1.0589
18204TIP3    H276028   2.450   4.741   1.053 -1.2142 -1.7285  0.8217
18205TIP3   OH276029   5.661   5.108  14.118 -0.2055 -1.1557 -0.2807
18205TIP3    H176030   5.588   5.167  14.137 -0.3266  0.2739 -4.3644
18205TIP3    H276031   5.737   5.166  14.111  0.5195 -2.0771 -0.2510
18206TIP3   OH276032   4.313   6.646  16.129  0.0694  0.3510  0.2359
18206TIP3    H176033   4.284   6.735  16.149  1.4043  1.3148 -1.7776
18206TIP3    H276034   4.392   6.633  16.182  1.4315  1.4536 -1.4253
18207TIP3   OH276035   5.841   0.769  16.584  0.1415 -0.1560  0.7273
18207TIP3    H176036   5.923   0.769  16.535 -0.5352 -2.4637 -0.5649
18207TIP3    H276037   5.866   0.797  16.672  2.4774 -1.4996  0.5765
18208TIP3   OH276038   2.061   1.834  11.564 -0.1012  0.7003 -0.2262
18208TIP3    H176039   1.975   1.874  11.577 -0.0638  0.9067 -0.5878
18208TIP3    H276040   2.081   1.792  11.647 -0.0182  1.6768  0.2647
18209TIP3   OH276041   1.172   6.521   2.756 -0.3404  0.9100 -0.0467
18209TIP3    H176042   1.145   6.608   2.727  1.4922  1.0716 -1.4235
18209TIP3    H276043   1.264   6.515   2.732 -0.8002 -2.0401 -1.5670
18210TIP3   OH276044   5.216   1.405   6.288  0.2854 -0.1432 -0.5466
18210TIP3    H176045   5.129   1.434   6.260  0.7277 -0.0150 -1.8570
18210TIP3    H276046   5.201   1.317   6.323 -0.5821  0.4351  0.5786
18211TIP3   OH276047   4.863   3.276  12.682  0.1585  0.1086 -0.0769
18211TIP3    H176048   4.944   3.226  12.673  0.5931  0.4021  1.8292
18211TIP3    H276049   4.795   3.218  12.647  1.0970 -0.3287 -1.2592
18212TIP3   OH276050   1.222   6.096  12.881 -0.1352 -0.5855  0.0669
18212TIP3    H176051   1.280   6.066  12.812  0.7726 -1.0360  1.0192
18212TIP3    H276052   1.153   6.029  12.886 -0.2835 -0.4818 -0.4741
18213TIP3   OH276053   5.768   5.158   0.681 -0.2356  0.6421  0.1472
18213TIP3    H176054   5.855   5.123   0.703  0.0597  1.9594  1.2255
18213TIP3    H276055   5.782   5.206   0.600 -0.1351  0.2298 -0.0860
18214TIP3   OH276056   3.087   5.434  12.815  0.6155  0.3191 -0.2912
18214TIP3    H176057   3.141   5.468  12.743  0.0133 -0.5948 -1.2028
18214TIP3    H276058   3.144   5.372  12.861  1.0474  1.0086  0.1166
18215TIP3   OH276059   4.500   0.667   3.720 -0.0198 -0.1192 -0.4773
18215TIP3    H176060   4.504   0.750   3.671  1.7552  0.8347  1.1268
18215TIP3    H276061   4.484   0.693   3.811 -3.3334 -1.8446 -0.4174
18216TIP3   OH276062   0.651   5.493  14.652  0.2711 -0.3153  0.1516
18216TIP3    H176063   0.699   5.437  14.592  1.1915  0.0316  0.5415
18216TIP3    H276064   0.666   5.455  14.738 -0.2094 -0.2343  0.2765
18217TIP3   OH276065   3.405   3.189  10.609  0.2141 -0.4073  0.0910
18217TIP3    H176066   3.383   3.281  10.624 -0.2529 -0.3703 -0.7709
18217TIP3    H276067   3.336   3.156  10.552  0.5418 -1.2170  0.1399
18218TIP3   OH276068   6.714   5.645  16.442 -0.8614 -0.3676  0.4640
18218TIP3    H176069   6.635   5.592  16.428 -0.7926 -0.0102 -1.6188
18218TIP3    H276070   6.786   5.588  16.416 -0.3581 -0.7580  2.5370
18219TIP3   OH276071   0.764   5.288  11.377  0.4800  0.2741 -0.0924
18219TIP3    H176072   0.812   5.250  11.304 -1.6211 -0.7603 -1.0490
18219TIP3    H276073   0.728   5.370  11.342  1.6432  1.1464  0.6762
18220TIP3   OH276074   0.824   2.555   2.814 -0.3582  0.2596 -0.3277
18220TIP3    H176075   0.896   2.586   2.869  0.6357 -0.4999 -1.1610
18220TIP3    H276076   0.818   2.461   2.831 -2.2447  0.5480  0.9235
18221TIP3   OH276077   6.281   5.328  12.746 -0.1497  0.3543 -0.3438
18221TIP3    H176078   6.295   5.406  12.692 -0.7332  2.8542  2.7813
18221TIP3    H276079   6.362   5.316  12.795 -0.7978  0.4290  0.8065
18222TIP3   OH276080   0.408   3.179  13.306  0.4342  0.1169 -0.6057
18222TIP3    H176081   0.478   3.121  13.277 -0.6306 -0.5677 -1.9328
18222TIP3    H276082   0.328   3.128  13.294 -0.5076  1.7128 -1.4909
18223TIP3   OH276083   0.178   6.739  12.496 -0.2704 -0.0917  0.0446
18223TIP3    H176084   0.274   6.740  12.492 -0.2597  0.0046  0.3402
18223TIP3    H276085   0.150   6.740  12.404  0.0081  0.1750 -0.0369
18224TIP3   OH276086   2.005   0.627  16.167 -1.1350  0.8371  0.6214
18224TIP3    H176087   2.076   0.603  16.107 -0.6436  1.5607  0.8986
18224TIP3    H276088   2.049   0.649  16.249 -1.7006  1.0215  0.8830
18225TIP3   OH276089   0.675   0.725   6.418  0.3217 -0.3860  0.7979
18225TIP3    H176090   0.688   0.765   6.332 -0.4448 -0.7201  0.5150
18225TIP3    H276091   0.742   0.657   6.424  0.6542 -0.0750  0.6503
18226TIP3   OH276092   2.708   5.459  11.562  0.1718  0.4830  0.3301
18226TIP3    H176093   2.675   5.375  11.529  0.3749  0.8244 -0.8094
18226TIP3    H276094   2.648   5.524  11.526  0.1971  0.8558  0.9462
18227TIP3   OH276095   4.872   6.072   1.463 -0.5771  0.2245 -0.0981
18227TIP3    H176096   4.823   5.990   1.471  0.6483 -0.3886  1.9521
18227TIP3    H276097   4.902   6.073   1.373 -1.8027 -0.8727 -0.5556
18228TIP3   OH276098   5.270   3.053  13.783 -0.1014 -0.2749 -0.3235
18228TIP3    H176099   5.174   3.047  13.780 -0.1089 -0.1023 -0.4369
18228TIP3    H276100   5.298   3.018  13.698 -0.1210  0.8285 -0.7929
18229TIP3   OH276101   4.703   6.715  17.050 -0.8837  0.0840 -0.4775
18229TIP3    H176102   4.679   6.694  16.959 -2.6928 -1.7626  0.3429
18229TIP3    H276103   4.733   6.632  17.086  0.3243  0.9138  0.5054
18230TIP3   OH276104   4.244   3.696   5.220  0.2315 -0.0707 -0.2232
18230TIP3    H176105   4.336   3.713   5.199  0.6791  0.3228  1.8199
18230TIP3    H276106   4.196   3.763   5.171  1.3402  1.9067  1.2602
18231TIP3   OH276107   6.078   3.939  10.999  0.0784  0.0970  0.2906
18231TIP3    H176108   6.085   4.026  10.960  0.2032  0.1336  0.3919
18231TIP3    H276109   5.984   3.921  11.000 -0.1610  1.1298  2.1971
18232TIP3   OH276110   1.787   2.295  15.864 -1.0199  0.0583  0.1913
18232TIP3    H176111   1.750   2.380  15.841 -2.7952 -0.5103  0.7792
18232TIP3    H276112   1.790   2.248  15.781  2.0072  1.3468 -0.5551
18233TIP3   OH276113   2.636   2.008   3.154 -0.1830  0.6250 -0.4515
18233TIP3    H176114   2.692   2.025   3.079  1.1402  0.1541  0.3860
18233TIP3    H276115   2.615   1.915   3.148  1.8863 -0.0116  0.9659
18234TIP3   OH276116   3.966   1.253  11.699  0.1097 -0.0723  0.5537
18234TIP3    H176117   4.057   1.278  11.713  0.0993  0.8625 -0.8829
18234TIP3    H276118   3.966   1.207  11.615 -0.7013 -0.3683  0.7032
18235TIP3   OH276119   4.419   6.676   4.578 -0.2273 -0.1128  0.0516
18235TIP3    H176120   4.497   6.635   4.541 -0.5657  0.3189 -1.1931
18235TIP3    H276121   4.372   6.604   4.620 -0.5777 -0.9582 -1.6914
18236TIP3   OH276122   6.784   1.672   6.115 -0.0981  0.2031  0.2297
18236TIP3    H176123   6.844   1.597   6.111  0.8459  0.9623 -0.5522
18236TIP3    H276124   6.837   1.746   6.086 -1.9161  0.6001 -2.3640
18237TIP3   OH276125   2.825   0.309   3.408  0.0801 -0.2108  1.1461
18237TIP3    H176126   2.780   0.335   3.488 -1.0292  0.1863  0.4163
18237TIP3    H276127   2.793   0.370   3.341 -0.2379 -1.5202  0.0583
18238TIP3   OH276128   4.324   2.854   0.778  0.0223  0.5382  0.1872
18238TIP3    H176129   4.251   2.907   0.745 -0.1606  0.5817  0.6499
18238TIP3    H276130   4.283   2.779   0.821  0.1976  1.0466  1.2933
18239TIP3   OH276131   3.985   2.804  13.970 -0.3055  0.3072  0.4510
18239TIP3    H176132   3.914   2.743  13.991 -0.6968  0.6128  0.0242
18239TIP3    H276133   4.047   2.752  13.918 -0.1656  0.0149  0.9058
18240TIP3   OH276134   2.707   6.358  16.725  0.8028  0.3290 -0.2718
18240TIP3    H176135   2.631   6.373  16.670 -0.6452  0.4078  1.6752
18240TIP3    H276136   2.689   6.276  16.770  2.4074 -0.2518 -0.5920
18241TIP3   OH276137   4.683   4.902  17.064  0.2444  0.8869 -0.2265
18241TIP3    H176138   4.604   4.892  17.010  0.2499  2.4073 -0.5679
18241TIP3    H276139   4.655   4.956  17.138 -0.4500 -3.2615  2.9113
18242TIP3   OH276140   2.626   3.497   1.353  0.1511 -0.3966 -0.2396
18242TIP3    H176141   2.679   3.574   1.373 -2.2270  1.2583  0.2449
18242TIP3    H276142   2.660   3.428   1.410  1.1028  0.8678  0.7699
18243TIP3   OH276143   3.948   5.257  14.321 -0.3220 -0.0907 -0.4547
18243TIP3    H176144   4.015   5.190  14.308  0.2335  0.1361  1.0493
18243TIP3    H276145   3.987   5.318  14.383 -1.5298  0.6123 -0.3628
18244TIP3   OH276146   1.387   5.178   5.355 -0.1750  0.3868  0.5666
18244TIP3    H176147   1.336   5.097   5.359 -0.8478  0.7948  0.4136
18244TIP3    H276148   1.329   5.240   5.310  1.3318  0.2138 -1.7536
18245TIP3   OH276149   1.932   0.327  16.497 -0.1615  0.2781 -0.0424
18245TIP3    H176150   1.964   0.238  16.478 -0.4943 -0.1338  1.2548
18245TIP3    H276151   2.011   0.375  16.524 -0.4126 -0.4681  2.1850
18246TIP3   OH276152   3.360   1.566   3.587 -0.0995 -0.7311 -0.5925
18246TIP3    H176153   3.372   1.580   3.493 -1.2885 -0.8126 -0.7724
18246TIP3    H276154   3.448   1.550   3.621  1.0170  3.3263 -0.9921
18247TIP3   OH276155   3.464   2.373   1.489 -0.6082 -0.2890  0.0266
18247TIP3    H176156   3.532   2.307   1.473 -0.3686  0.3178 -1.6868
18247TIP3    H276157   3.513   2.454   1.504 -0.9209  0.0757 -0.8448
18248TIP3   OH276158   5.143   5.744   0.661  0.0988  0.1807 -0.1847
18248TIP3    H176159   5.204   5.818   0.671  0.0797 -0.0262  1.8254
18248TIP3    H276160   5.063   5.774   0.704 -0.0790 -0.8311  0.2001
18249TIP3   OH276161   3.272   4.275   0.337  0.1624  0.1262  0.1858
18249TIP3    H176162   3.241   4.210   0.274  0.6804  0.8356 -0.8452
18249TIP3    H276163   3.274   4.230   0.421  0.1762 -1.0724 -0.4455
18250TIP3   OH276164   4.719   4.810  14.057  0.0865 -0.2716 -0.5040
18250TIP3    H176165   4.739   4.798  14.150 -2.5302 -0.8269  0.0695
18250TIP3    H276166   4.744   4.727  14.016 -1.9726 -1.4055  0.3933
18251TIP3   OH276167   1.905   1.696  10.433  0.1192 -0.2368 -0.1906
18251TIP3    H176168   1.850   1.646  10.373  0.0684  0.8470 -1.0711
18251TIP3    H276169   1.843   1.750  10.483  0.3829  1.5441 -1.7012
18252TIP3   OH276170   4.014   3.166  14.006  0.0046 -0.0149 -0.1986
18252TIP3    H176171   3.953   3.169  13.933 -1.8635 -2.4034  1.1031
18252TIP3    H276172   4.001   3.249  14.052 -2.0837 -0.3072 -0.1535
18253TIP3   OH276173   0.292   4.330  14.494  0.1538  0.3328 -0.2034
18253TIP3    H176174   0.308   4.255  14.551  2.0647  0.0494 -1.0276
18253TIP3    H276175   0.262   4.399  14.554  1.1856 -0.2285  1.0108
18254TIP3   OH276176   0.919   3.099  17.173 -0.7191  0.3725  0.3253
18254TIP3    H176177   0.996   3.073  17.223  0.5127  0.6122 -1.3418
18254TIP3    H276178   0.939   3.073  17.083 -1.9979  1.6450 -0.3763
18255TIP3   OH276179   5.037   3.459   4.432 -0.5175  0.0602  0.6403
18255TIP3    H176180   5.067   3.412   4.510 -2.2039 -0.2498  1.1587
18255TIP3    H276181   5.064   3.549   4.447  0.7204 -0.3081  0.7362
18256TIP3   OH276182   5.725   2.468  16.102  0.4372  0.1138 -0.5333
18256TIP3    H176183   5.663   2.459  16.174 -0.4044  0.6838 -1.1680
18256TIP3    H276184   5.797   2.519  16.139 -0.5917  1.5619 -0.4247
18257TIP3   OH276185   0.019   1.251   2.236  0.1821 -0.0007  0.1071
18257TIP3    H176186   0.061   1.263   2.321  2.9312 -1.6406 -0.9063
18257TIP3    H276187  -0.040   1.177   2.248  0.6194 -0.2749  0.5794
18258TIP3   OH276188   5.358   0.074  11.186 -0.4846  0.3954 -0.2862
18258TIP3    H176189   5.314   0.086  11.102 -1.4738  1.6843  0.3911
18258TIP3    H276190   5.432   0.134  11.182  0.6662 -0.9898 -0.9902
18259TIP3   OH276191   2.454   6.745  16.771  0.5899  0.2096 -0.1175
18259TIP3    H176192   2.466   6.713  16.682  1.1003 -0.1587  0.0824
18259TIP3    H276193   2.362   6.724  16.791  0.8044 -0.7957 -0.1243
18260TIP3   OH276194   1.472   3.767  15.277 -0.4466 -0.2351 -0.0565
18260TIP3    H176195   1.558   3.742  15.245 -0.0872 -0.2586  0.9067
18260TIP3    H276196   1.487   3.801  15.365 -1.2275  1.1897 -0.4466
18261TIP3   OH276197   4.237   2.860  13.354 -0.2290 -0.1636  0.5113
18261TIP3    H176198   4.262   2.943  13.315 -1.5761  0.1759  0.3512
18261TIP3    H276199   4.270   2.865  13.444  2.6764 -0.8606 -0.4129
18262TIP3   OH276200   6.303   2.533   0.064 -0.1939  0.1599  0.0308
18262TIP3    H176201   6.227   2.488   0.102 -0.8903  2.0179  1.0101
18262TIP3    H276202   6.305   2.617   0.109  1.5744  0.7564 -1.0657
18263TIP3   OH276203   1.406   1.115   3.816  0.2407 -0.7826 -0.3618
18263TIP3    H176204   1.370   1.089   3.732  0.4063 -0.6608 -0.4704
18263TIP3    H276205   1.332   1.109   3.877 -0.1161  0.0484 -0.6959
18264TIP3   OH276206   4.484   0.524  13.398 -0.0144 -0.6866  0.0107
18264TIP3    H176207   4.513   0.464  13.467  0.8272  0.2310  0.4787
18264TIP3    H276208   4.495   0.474  13.317  3.5628 -0.2469  0.0637
18265TIP3   OH276209   1.572   2.670   5.506 -0.0275  0.3443  0.4285
18265TIP3    H176210   1.525   2.645   5.586 -0.1420 -0.0350  0.2452
18265TIP3    H276211   1.657   2.701   5.537 -0.5429  1.4537  0.8016
18266TIP3   OH276212   0.442   5.515  12.161 -0.4966 -0.1494  0.2230
18266TIP3    H176213   0.369   5.488  12.217 -1.8181  0.7388 -1.0222
18266TIP3    H276214   0.401   5.546  12.080  1.3494 -1.5753 -1.3585
18267TIP3   OH276215   4.846   1.230   5.060  0.0891  0.2190  0.0228
18267TIP3    H176216   4.841   1.270   4.973 -2.4766  0.5482  0.2529
18267TIP3    H276217   4.791   1.285   5.115 -0.7914 -1.7020  1.1629
18268TIP3   OH276218   0.788   1.419  13.809 -0.3373 -0.2542  0.3718
18268TIP3    H176219   0.837   1.453  13.883 -1.7684  1.2680  0.6679
18268TIP3    H276220   0.762   1.331  13.836 -0.3285  0.0565  1.4328
18269TIP3   OH276221   3.923   5.168  13.574 -0.2142 -0.4175 -0.0661
18269TIP3    H176222   3.830   5.185  13.590 -0.4418 -2.0394  0.5496
18269TIP3    H276223   3.967   5.195  13.654  0.0278  1.4202 -0.7733
18270TIP3   OH276224   1.012   0.546   0.447  0.1935  0.0566 -0.2903
18270TIP3    H176225   0.995   0.454   0.467  0.5606 -0.2284 -1.2475
18270TIP3    H276226   0.986   0.593   0.527 -2.2502 -0.6297 -0.6002
18271TIP3   OH276227   5.923   0.988  13.687  0.0254 -0.2872 -0.5989
18271TIP3    H176228   5.950   1.076  13.662  0.1200 -0.6066 -1.6594
18271TIP3    H276229   5.874   0.955  13.612 -2.2846 -0.1913  0.7559
18272TIP3   OH276230   6.278   0.258   1.125  0.2928 -0.0891  0.7301
18272TIP3    H176231   6.183   0.266   1.128  0.1674 -0.4332 -1.1621
18272TIP3    H276232   6.309   0.348   1.131  0.0241 -0.1002  3.8622
18273TIP3   OH276233   1.235   2.483  11.942 -0.5096 -0.4289 -0.7207
18273TIP3    H176234   1.329   2.496  11.944 -0.4999 -0.5524 -0.0851
18273TIP3    H276235   1.217   2.426  12.016 -0.9990 -1.0173 -1.2769
18274TIP3   OH276236   6.277   6.680  16.819  0.2367 -0.1916  0.0187
18274TIP3    H176237   6.207   6.741  16.797  0.0732  0.5268  2.3327
18274TIP3    H276238   6.312   6.711  16.902  0.6407 -2.8200  0.9444
18275TIP3   OH276239   3.831   0.933   3.840  0.0526 -0.0615  0.1667
18275TIP3    H176240   3.758   0.903   3.786  0.6528 -0.7359 -0.2808
18275TIP3    H276241   3.907   0.883   3.809  0.8774  1.1617  0.0943
18276TIP3   OH276242   0.592   0.941  17.064  0.4917 -0.0235  0.4618
18276TIP3    H176243   0.515   0.887  17.080  0.1425  0.3840  0.1557
18276TIP3    H276244   0.560   1.031  17.065  0.8190  0.1180 -0.4528
18277TIP3   OH276245   2.540   3.331  14.128 -0.7164 -0.4130  0.5215
18277TIP3    H176246   2.616   3.276  14.150 -0.6456 -0.8844 -0.7853
18277TIP3    H276247   2.497   3.283  14.057 -2.3631 -0.2516  1.3884
18278TIP3   OH276248   1.756   3.898  12.206 -0.1757  0.5007 -0.2802
18278TIP3    H176249   1.848   3.922  12.216  0.0586  0.8622 -2.6828
18278TIP3    H276250   1.729   3.939  12.123 -1.7209 -1.8526 -1.0559
18279TIP3   OH276251   0.884   5.389  13.593  0.2295 -0.0473  0.3610
18279TIP3    H176252   0.952   5.404  13.527 -0.9751 -0.3009 -0.9936
18279TIP3    H276253   0.912   5.440  13.669  2.0010 -0.2749 -0.1016
18280TIP3   OH276254   1.168   0.506  11.666 -0.2634  0.0212  0.0818
18280TIP3    H176255   1.238   0.527  11.728 -0.2059  2.5284 -0.7343
18280TIP3    H276256   1.214   0.489  11.584 -0.4953 -0.8206  0.1149
18281TIP3   OH276257   0.106   2.325   5.180 -0.0871 -0.5447  0.2181
18281TIP3    H176258   0.184   2.282   5.216  0.8764  0.3949 -0.6854
18281TIP3    H276259   0.092   2.282   5.096  0.4433  0.3773 -0.3554
18282TIP3   OH276260   3.703   6.521  12.507  0.7495 -0.0341  0.1229
18282TIP3    H176261   3.792   6.490  12.524  0.2658 -2.1110 -0.8038
18282TIP3    H276262   3.675   6.472  12.429 -1.0751  0.8344  0.1809
18283TIP3   OH276263   1.769   1.675  12.325 -0.2239 -0.0798 -0.0301
18283TIP3    H176264   1.691   1.730  12.337  0.0662  0.6393 -1.3130
18283TIP3    H276265   1.837   1.719  12.377 -1.8577 -3.9213  6.5650
18284TIP3   OH276266   4.851   5.632   2.557 -0.2442 -0.0974  0.2425
18284TIP3    H176267   4.784   5.571   2.587 -1.1424  1.2950  1.1906
18284TIP3    H276268   4.911   5.640   2.632  3.2802 -4.0902 -1.6732
18285TIP3   OH276269   0.975   2.440  13.748 -0.0562  0.0003  0.0138
18285TIP3    H176270   1.004   2.527  13.723  2.1371 -0.3513  1.0486
18285TIP3    H276271   0.908   2.455  13.815  0.5897  0.8999  0.4758
18286TIP3   OH276272   2.412   3.488   3.021 -0.2944 -0.2816  0.1406
18286TIP3    H176273   2.395   3.427   2.950  0.4854 -0.7547  0.3465
18286TIP3    H276274   2.439   3.569   2.978 -3.1374  0.5914 -0.2147
18287TIP3   OH276275   4.019   0.091  16.853 -0.0022  0.5076 -0.2749
18287TIP3    H176276   4.025   0.169  16.908  0.7433 -0.9600  1.8709
18287TIP3    H276277   3.925   0.076  16.843 -0.1502  1.4502 -0.3937
18288TIP3   OH276278   6.422   4.107   6.544  0.5498 -0.0246  0.1839
18288TIP3    H176279   6.408   4.020   6.508 -0.3331  0.5261 -0.8979
18288TIP3    H276280   6.492   4.145   6.491 -1.6815  1.2997 -2.0728
18289TIP3   OH276281   4.695   5.344   3.153  0.2168  0.0308  0.1627
18289TIP3    H176282   4.752   5.288   3.101 -0.3115 -1.2328  0.8873
18289TIP3    H276283   4.659   5.285   3.220  0.1848  1.3978  1.3854
18290TIP3   OH276284   0.210   6.179  11.601 -0.0279 -0.0340  0.9581
18290TIP3    H176285   0.245   6.097  11.637 -0.4402 -0.4182  0.4995
18290TIP3    H276286   0.122   6.186  11.639  0.4312  0.7869  1.8935
18291TIP3   OH276287   0.850   0.488   3.008 -0.0908 -0.4621  0.8464
18291TIP3    H176288   0.821   0.521   2.923 -0.5950 -1.4889  0.5945
18291TIP3    H276289   0.931   0.535   3.026  0.7258 -1.1598 -0.8256
18292TIP3   OH276290   0.535   1.104  16.660 -0.3554  0.0137 -0.4951
18292TIP3    H176291   0.580   1.039  16.715 -1.2517 -0.1225  0.1081
18292TIP3    H276292   0.583   1.103  16.577  0.9732  0.1526  0.2400
18293TIP3   OH276293   2.258   0.558  16.091 -0.3678 -0.4727 -0.9486
18293TIP3    H176294   2.274   0.505  16.013  0.6150 -0.1083 -1.0116
18293TIP3    H276295   2.304   0.640  16.073 -1.7426  0.3578 -0.7931
18294TIP3   OH276296   2.269   1.925   1.627 -0.6513 -0.2060  0.3489
18294TIP3    H176297   2.264   1.842   1.674  0.8894 -0.3020  0.4038
18294TIP3    H276298   2.293   1.989   1.695  3.8928 -0.7041 -0.4390
18295TIP3   OH276299   3.784   4.111   1.267 -0.5512 -0.3306 -0.4994
18295TIP3    H176300   3.826   4.025   1.273 -1.0908 -0.5396  0.5623
18295TIP3    H276301   3.700   4.093   1.224 -1.0737 -0.5196  0.5464
18296TIP3   OH276302   1.096   2.560   2.398 -0.4748  0.3613  0.6245
18296TIP3    H176303   1.072   2.616   2.324  0.1011 -0.0569  0.1201
18296TIP3    H276304   1.091   2.618   2.474  1.0078  1.3495  0.0016
18297TIP3   OH276305   2.230   2.076  15.194  0.0767 -0.7131  0.0577
18297TIP3    H176306   2.182   2.020  15.133  1.6128 -0.9212 -1.0257
18297TIP3    H276307   2.172   2.151  15.209 -1.2031 -1.6529  0.0270
18298TIP3   OH276308   0.519   5.719   2.463 -0.0095 -0.1129 -0.0319
18298TIP3    H176309   0.552   5.694   2.377  0.8929  1.8381 -0.2899
18298TIP3    H276310   0.432   5.755   2.446  0.1192  0.1597 -0.1204
18299TIP3   OH276311   4.146   1.750  16.196  0.4659  0.0069 -0.2626
18299TIP3    H176312   4.132   1.842  16.173 -0.3809  0.2021  0.9323
18299TIP3    H276313   4.227   1.726  16.150  0.4732  1.2192 -0.9252
18300TIP3   OH276314   4.321   1.581  16.493  0.2257 -0.1976  0.1434
18300TIP3    H176315   4.286   1.551  16.409  0.7601  2.5162 -1.1250
18300TIP3    H276316   4.253   1.557  16.557 -1.8800  0.8082 -1.5973
18301TIP3   OH276317   3.170   4.849  12.815 -0.3658  0.0018  0.1070
18301TIP3    H176318   3.186   4.827  12.723 -1.5844  1.1444 -0.4125
18301TIP3    H276319   3.214   4.780  12.864  1.1809 -0.0770 -1.2993
18302TIP3   OH276320   4.469   3.012  14.433  0.2363  0.2582 -0.0926
18302TIP3    H176321   4.436   2.990  14.520  0.5296  1.3520  0.3211
18302TIP3    H276322   4.392   3.046  14.386  0.6975  3.0712  0.9634
18303TIP3   OH276323   2.620   3.620   1.623  0.4185 -0.9849  0.1757
18303TIP3    H176324   2.609   3.702   1.670 -2.0755 -0.0874 -1.7384
18303TIP3    H276325   2.705   3.629   1.579 -0.4256  1.3163 -1.1788
18304TIP3   OH276326   5.530   6.746  15.358 -0.0742  0.2190  0.0220
18304TIP3    H176327   5.467   6.711  15.295 -1.1400 -1.3287  1.8515
18304TIP3    H276328   5.590   6.674  15.374  1.0657  1.0743 -0.2735
18305TIP3   OH276329   4.309   1.869   5.839  0.6856 -0.6561  0.1793
18305TIP3    H176330   4.313   1.924   5.917  0.2107 -1.8550  1.0870
18305TIP3    H276331   4.217   1.869   5.814  1.1380  1.5992 -1.8315
18306TIP3   OH276332   2.148   4.434   4.652 -0.0428  0.6185 -0.3409
18306TIP3    H176333   2.120   4.525   4.652 -1.7607  0.1505  1.2585
18306TIP3    H276334   2.080   4.388   4.602  0.1601  0.0414 -0.0936
18307TIP3   OH276335   2.749   4.645  14.348 -0.2639  0.8825  0.2854
18307TIP3    H176336   2.775   4.555  14.331  2.3158  1.4905  0.5999
18307TIP3    H276337   2.694   4.668  14.273 -0.4162 -0.7250 -0.1375
18308TIP3   OH276338   4.785   5.615   5.094  0.2381  0.6048  0.1742
18308TIP3    H176339   4.770   5.553   5.165  1.4094 -0.6383 -0.6333
18308TIP3    H276340   4.697   5.646   5.070 -0.1816  1.1161  2.1772
18309TIP3   OH276341   4.080   6.745  11.724 -0.4390 -0.3783  0.9026
18309TIP3    H176342   4.025   6.775  11.651 -0.9256  0.8806  1.7512
18309TIP3    H276343   4.017   6.724  11.794  0.0986  0.0303  1.5207
18310TIP3   OH276344   4.832   6.772  11.247  0.0519 -0.0393  0.2559
18310TIP3    H176345   4.913   6.786  11.295 -0.1685  0.7842  0.4095
18310TIP3    H276346   4.831   6.841  11.180 -1.1837  0.8592  1.1502
18311TIP3   OH276347   2.796   1.038   5.649 -0.1555 -0.2863 -0.4737
18311TIP3    H176348   2.794   1.015   5.557 -1.3939  0.3327 -0.6302
18311TIP3    H276349   2.870   1.099   5.658 -1.3114  1.3596 -1.5191
18312TIP3   OH276350   3.507   1.590   5.199  0.7006  0.5417  0.4131
18312TIP3    H176351   3.577   1.556   5.143  0.4343 -1.4206  1.1761
18312TIP3    H276352   3.478   1.671   5.156  1.0959 -0.4211 -1.7845
18313TIP3   OH276353   5.069   2.906  12.377  0.6897 -0.2683 -0.0748
18313TIP3    H176354   5.100   2.821  12.345 -0.0593 -0.6918  0.2844
18313TIP3    H276355   5.055   2.957  12.298 -0.6276 -1.1252 -0.4476
18314TIP3   OH276356   2.276   6.435  12.516  0.1169 -0.5280  0.1426
18314TIP3    H176357   2.305   6.345  12.527 -1.5193 -1.0020  0.8026
18314TIP3    H276358   2.200   6.430  12.459  0.5900  0.5575 -0.6280
18315TIP3   OH276359   6.401   4.720   5.656 -0.0704  0.4018 -0.4639
18315TIP3    H176360   6.474   4.692   5.600  0.4108 -0.1812  0.4277
18315TIP3    H276361   6.407   4.663   5.732 -0.7495  1.1466  0.1575
18316TIP3   OH276362   0.694   3.033   1.813  0.2223  0.0837  0.2725
18316TIP3    H176363   0.723   2.954   1.767 -0.8406 -1.4183  2.0325
18316TIP3    H276364   0.715   3.017   1.904 -1.0589  1.3290  0.8303
18317TIP3   OH276365   6.506   2.376   0.656  0.0020 -0.0084 -0.0888
18317TIP3    H176366   6.561   2.375   0.734 -0.8773 -1.8818  0.5483
18317TIP3    H276367   6.422   2.410   0.686 -1.0722 -2.8473  0.3875
18318TIP3   OH276368   1.912   0.643  12.350 -0.2435  0.7677  0.0231
18318TIP3    H176369   1.985   0.615  12.295 -1.0603  0.6788 -1.0615
18318TIP3    H276370   1.901   0.571  12.412  1.9714  1.7547  1.6672
18319TIP3   OH276371   6.503   5.886   3.219 -0.3617  0.2271  0.0203
18319TIP3    H176372   6.478   5.920   3.133  1.8516  0.9248 -0.4184
18319TIP3    H276373   6.489   5.792   3.214  2.4628 -0.2156 -2.2400
18320TIP3   OH276374   5.910   4.332  13.393  0.0604  0.1364  0.4208
18320TIP3    H176375   5.886   4.403  13.453  0.0498 -0.2316  0.8497
18320TIP3    H276376   5.852   4.344  13.318 -0.9192 -0.2602  1.1012
18321TIP3   OH276377   1.742   1.326  14.253  0.1323 -0.2924  0.2815
18321TIP3    H176378   1.700   1.272  14.321  1.0254 -3.0603 -1.1927
18321TIP3    H276379   1.800   1.265  14.207  0.6413  1.8008 -2.0628
18322TIP3   OH276380   4.229   3.363  13.232  0.3266 -0.1785 -0.5202
18322TIP3    H176381   4.150   3.340  13.281  0.1931 -0.7944 -1.0099
18322TIP3    H276382   4.250   3.451  13.261  1.1102 -1.0595  1.7768
18323TIP3   OH276383   0.715   2.611   2.315  0.3098  0.1363 -0.8566
18323TIP3    H176384   0.721   2.618   2.410 -1.6789 -2.3564 -0.4535
18323TIP3    H276385   0.805   2.593   2.287  0.8116  0.1440  0.6335
18324TIP3   OH276386   1.316   0.947   4.666  0.2648  0.4329  0.2730
18324TIP3    H176387   1.248   0.940   4.733 -0.1990 -0.1964 -0.2422
18324TIP3    H276388   1.390   0.898   4.701 -0.5699 -1.4012 -0.3654
18325TIP3   OH276389   0.051   1.540  12.393 -0.3120  0.3524 -0.0311
18325TIP3    H176390   0.021   1.515  12.480  1.8489  0.5619  0.8304
18325TIP3    H276391   0.005   1.480  12.334 -0.0992 -1.3591  1.4417
18326TIP3   OH276392   4.192   5.152   0.379  0.3622  0.0919  0.5375
18326TIP3    H176393   4.231   5.235   0.355  1.1202 -0.4997 -0.3312
18326TIP3    H276394   4.227   5.089   0.316 -1.5221 -0.5826  0.0665
18327TIP3   OH276395   0.993   1.947   2.101 -0.6429 -0.1889 -0.0328
18327TIP3    H176396   1.074   1.911   2.138 -0.4537 -1.5393 -1.6552
18327TIP3    H276397   0.934   1.953   2.176  1.0418  1.1994  1.2754
18328TIP3   OH276398   2.699   3.100  13.860  0.0329  0.2567 -0.0672
18328TIP3    H176399   2.688   3.187  13.821  1.0708  0.9292  1.0844
18328TIP3    H276400   2.792   3.081  13.851  0.0873 -0.0721  1.0355
18329TIP3   OH276401   0.918   5.318   0.991  0.2943 -0.0368  0.8133
18329TIP3    H176402   0.935   5.225   0.982  0.5479  0.0349  0.5300
18329TIP3    H276403   0.831   5.323   1.032  0.0777 -0.3917  0.4055
18330TIP3   OH276404   6.384   1.715   3.522 -0.2536 -0.0125 -0.0236
18330TIP3    H176405   6.339   1.711   3.606  0.1527  1.0338  0.2545
18330TIP3    H276406   6.362   1.801   3.486 -1.7974 -1.0684 -1.7846
18331TIP3   OH276407   5.649   2.469   0.873  0.4943  0.1659  0.8143
18331TIP3    H176408   5.703   2.544   0.897  1.4703 -0.0230 -0.6512
18331TIP3    H276409   5.593   2.501   0.802 -0.3764 -0.0255  1.3899
18332TIP3   OH276410   2.161   4.318  10.741  0.2287  0.0701  0.6163
18332TIP3    H176411   2.193   4.230  10.762 -0.4094 -0.9273 -2.1138
18332TIP3    H276412   2.233   4.358  10.692 -0.1552  0.3418  0.2653
18333TIP3   OH276413   5.482   2.492   2.874  0.5026  0.0581  0.0538
18333TIP3    H176414   5.401   2.449   2.845  0.0021 -0.8228  2.5627
18333TIP3    H276415   5.542   2.419   2.893  1.0880  0.6363  0.4387
18334TIP3   OH276416   5.050   4.081  16.375  0.4977 -0.2049  0.3409
18334TIP3    H176417   5.057   4.114  16.286 -0.7500  1.2580  0.7449
18334TIP3    H276418   4.959   4.097  16.400  1.3212  1.4771  2.6216
18335TIP3   OH276419   2.663   4.196   2.645  0.0551  0.2177 -0.1710
18335TIP3    H176420   2.633   4.203   2.736  1.6913 -0.8950  0.4886
18335TIP3    H276421   2.670   4.287   2.616  0.5294  0.6349  1.1647
18336TIP3   OH276422   4.368   2.927  16.302  0.5431 -0.1393  0.1227
18336TIP3    H176423   4.434   2.860  16.284 -0.3373 -2.0478  3.2333
18336TIP3    H276424   4.341   2.910  16.393 -3.5859  1.0772 -0.6703
18337TIP3   OH276425   0.540   6.330   2.862 -0.0219 -0.3785  0.2138
18337TIP3    H176426   0.475   6.388   2.903  0.0994 -0.2374  0.2076
18337TIP3    H276427   0.619   6.342   2.913 -0.0449 -0.6723  0.3186
18338TIP3   OH276428   3.200   3.983  16.063 -0.3603 -0.4164 -0.8313
18338TIP3    H176429   3.256   4.058  16.044 -0.9046 -0.3116 -2.0736
18338TIP3    H276430   3.254   3.907  16.044 -0.6956 -0.3143 -2.2645
18339TIP3   OH276431   1.042   2.768  11.006 -0.5392 -0.3536  0.0239
18339TIP3    H176432   0.948   2.768  11.020 -0.7905 -0.6843 -1.4996
18339TIP3    H276433   1.058   2.841  10.946  0.2293 -0.0736  0.5462
18340TIP3   OH276434   2.599   0.569  11.983 -0.0922  0.3235  0.6765
18340TIP3    H176435   2.618   0.481  12.015 -1.5150  0.1623  1.1780
18340TIP3    H276436   2.524   0.598  12.036 -0.3691  1.3879 -0.2518
18341TIP3   OH276437   4.115   2.833  16.276 -0.7602 -0.2324  0.4505
18341TIP3    H176438   4.115   2.738  16.291 -2.7414 -0.2937  0.2438
18341TIP3    H276439   4.208   2.856  16.271 -0.2358 -2.1121  0.7740
18342TIP3   OH276440   1.518   5.182  14.058 -0.2458 -0.2790 -0.0271
18342TIP3    H176441   1.589   5.197  14.120 -1.1626  1.1944  0.7123
18342TIP3    H276442   1.476   5.102  14.090  0.0784 -0.2462  0.5050
18343TIP3   OH276443   4.857   1.678   5.226  0.0280  0.0923  0.0719
18343TIP3    H176444   4.846   1.696   5.320 -0.7954 -0.2380  0.0404
18343TIP3    H276445   4.832   1.586   5.216 -0.5381  0.3105 -0.5779
18344TIP3   OH276446   0.132   0.644   1.758 -0.1784 -0.1869 -0.0809
18344TIP3    H176447   0.050   0.681   1.724  0.3535  0.2189 -0.9397
18344TIP3    H276448   0.193   0.717   1.758  0.2982 -0.5811  0.2082
18345TIP3   OH276449   1.672   0.878  10.443 -0.0775 -0.3435 -0.1414
18345TIP3    H176450   1.700   0.918  10.360  0.6928 -1.2168 -0.3158
18345TIP3    H276451   1.751   0.837  10.478 -1.0008 -2.5406 -0.4425
18346TIP3   OH276452   4.092   1.813   1.068 -0.1171 -0.3079 -0.3455
18346TIP3    H176453   4.002   1.840   1.082 -0.1761 -0.6184 -0.1082
18346TIP3    H276454   4.092   1.770   0.982 -0.3041 -0.7657 -0.1216
18347TIP3   OH276455   4.689   1.550  16.621 -0.1357  0.1811 -0.0556
18347TIP3    H176456   4.783   1.556  16.639 -0.3925  1.4520  0.9959
18347TIP3    H276457   4.676   1.460  16.592  1.3525 -0.1171  0.1180
18348TIP3   OH276458   0.770   0.320   5.765  0.8976 -0.3925 -0.4277
18348TIP3    H176459   0.675   0.319   5.751  0.8852 -0.6753 -0.3315
18348TIP3    H276460   0.787   0.240   5.814  1.0593  0.1409  0.3995
18349TIP3   OH276461   5.381   4.037  14.941 -0.5900  0.0136 -0.0023
18349TIP3    H176462   5.411   3.967  14.883  0.1202  1.2835 -1.2134
18349TIP3    H276463   5.287   4.021  14.951 -0.6018 -0.5805 -0.9944
18350TIP3   OH276464   3.102   6.042   1.293  0.4694  0.4779  0.2974
18350TIP3    H176465   3.172   5.988   1.332  0.2365 -0.1287 -0.1014
18350TIP3    H276466   3.130   6.132   1.308  0.7343  0.2514  1.2269
18351TIP3   OH276467   1.837   2.069  12.470 -0.1768 -0.3748  0.1487
18351TIP3    H176468   1.792   2.153  12.475 -0.0550 -0.3789  1.5546
18351TIP3    H276469   1.914   2.086  12.416 -1.9520 -0.4440 -2.6334
18352TIP3   OH276470   1.095   2.326  14.530  0.6008 -0.0285 -0.0435
18352TIP3    H176471   1.024   2.297  14.587  1.4831  1.3019  1.8779
18352TIP3    H276472   1.062   2.406  14.488  1.5181  1.8486  2.4855
18353TIP3   OH276473   6.780   6.302  13.746 -0.7921  0.0038  0.0918
18353TIP3    H176474   6.813   6.371  13.688 -1.7082  1.0733  0.8011
18353TIP3    H276475   6.780   6.223  13.692 -2.2655  1.0987 -1.6293
18354TIP3   OH276476   4.602   1.128  13.421 -0.0887  0.1882 -0.5171
18354TIP3    H176477   4.632   1.194  13.358  2.2726 -0.5140 -0.2110
18354TIP3    H276478   4.648   1.150  13.502 -3.1251  1.1288  1.1132
18355TIP3   OH276479   2.864   3.002   4.972 -0.2168  0.2383 -0.2480
18355TIP3    H176480   2.871   2.912   5.005  1.7000  1.1803  2.1897
18355TIP3    H276481   2.774   3.008   4.940 -0.9591 -2.0381  1.1269
18356TIP3   OH276482   3.065   6.713   0.174  0.5754  0.1997 -0.0882
18356TIP3    H176483   3.153   6.735   0.146  0.6113  0.3338  0.1318
18356TIP3    H276484   3.057   6.751   0.261  1.3067 -2.2054  1.1322
18357TIP3   OH276485   4.647   4.435   6.375  0.1786  0.0015 -1.3501
18357TIP3    H176486   4.710   4.503   6.398 -0.0441  0.1724 -1.2262
18357TIP3    H276487   4.565   4.483   6.360  0.1863 -0.1730 -1.9481
18358TIP3   OH276488   3.345   5.917  16.286 -0.0621 -0.0031  0.8608
18358TIP3    H176489   3.383   5.977  16.350 -1.2169  0.2848  1.3003
18358TIP3    H276490   3.270   5.879  16.330  0.1511 -1.1419  0.2769
18359TIP3   OH276491   0.601   3.267  15.333 -0.1113 -0.0827  0.5349
18359TIP3    H176492   0.648   3.205  15.278 -0.5705 -0.1997  0.2684
18359TIP3    H276493   0.665   3.336  15.353 -0.1083  0.2775 -0.6565
18360TIP3   OH276494   0.027   3.307   2.345  0.6029 -0.4330 -0.6428
18360TIP3    H176495  -0.005   3.286   2.432  2.3964  0.5698  0.3189
18360TIP3    H276496  -0.020   3.247   2.287 -2.3983  0.4387  0.6847
18361TIP3   OH276497   3.522   2.302   3.687  0.2302  0.1335  0.2015
18361TIP3    H176498   3.513   2.325   3.595 -2.1012 -1.5577 -0.0915
18361TIP3    H276499   3.444   2.339   3.729  0.7930  0.0954  1.3398
18362TIP3   OH276500   5.699   1.615   2.538 -0.2031 -0.1679 -0.2298
18362TIP3    H176501   5.620   1.661   2.509  0.4440  1.0500 -0.1555
18362TIP3    H276502   5.763   1.629   2.467  0.6745  0.9150  0.7221
18363TIP3   OH276503   5.203   2.469  13.981  0.0410 -0.4538 -0.3275
18363TIP3    H176504   5.172   2.550  14.021  1.7169  0.0559  0.0241
18363TIP3    H276505   5.267   2.497  13.916  0.0007 -1.4628 -0.8292
18364TIP3   OH276506   5.599   0.913  10.998  0.4049  0.8133  0.0232
18364TIP3    H176507   5.532   0.872  11.052  0.8261 -1.6097 -1.1339
18364TIP3    H276508   5.680   0.867  11.021  0.5363 -0.5848 -2.7981
18365TIP3   OH276509   5.369   1.101  14.139 -0.0472 -0.3082  0.0264
18365TIP3    H176510   5.398   1.151  14.215  0.2794 -0.4278 -0.0165
18365TIP3    H276511   5.398   1.011  14.157  1.5381 -0.0374 -0.9940
18366TIP3   OH276512   4.358   2.345   3.649  0.0954 -0.5183  0.2402
18366TIP3    H176513   4.376   2.432   3.612  1.0547 -0.7891  0.0475
18366TIP3    H276514   4.314   2.298   3.578  0.3144 -0.4565  0.0643
18367TIP3   OH276515   2.963   0.755   5.540  0.6188  0.2694 -0.7337
18367TIP3    H176516   2.984   0.778   5.630 -0.2357  0.4702 -0.5759
18367TIP3    H276517   3.021   0.682   5.519  0.1628 -0.4012  0.3005
18368TIP3   OH276518   6.273   4.167  16.165  0.2836 -0.2526 -0.0590
18368TIP3    H176519   6.351   4.153  16.218  0.4445 -0.0003 -0.2280
18368TIP3    H276520   6.306   4.202  16.082 -0.1721  2.2936  0.7583
18369TIP3   OH276521   2.439   1.710   4.409  0.0144 -0.0136 -0.1081
18369TIP3    H176522   2.466   1.649   4.341  1.2037 -1.0217  1.1851
18369TIP3    H276523   2.415   1.653   4.483  0.5104  1.0552  0.9101
18370TIP3   OH276524   1.278   6.090   3.094  0.6076 -0.7084 -0.2759
18370TIP3    H176525   1.261   6.013   3.040  2.7045 -1.0880 -0.4986
18370TIP3    H276526   1.225   6.160   3.055 -1.2671 -1.9809 -0.1166
18371TIP3   OH276527   4.805   6.196   0.169 -0.3617 -0.7785  0.3934
18371TIP3    H176528   4.773   6.114   0.205  1.1234 -0.3575  2.8806
18371TIP3    H276529   4.895   6.177   0.142  0.6141  0.3574  2.5979
18372TIP3   OH276530   0.838   5.939  14.076  0.1945  0.5292  0.0066
18372TIP3    H176531   0.801   5.883  14.144 -0.1474  0.5382 -0.1698
18372TIP3    H276532   0.898   5.881  14.028 -0.3198  0.2497 -0.3094
18373TIP3   OH276533   0.013   0.721   5.734  0.8149  0.2249  0.1890
18373TIP3    H176534   0.051   0.655   5.792 -1.3226 -0.1951  1.2193
18373TIP3    H276535  -0.011   0.672   5.655 -0.2439 -0.1719  0.7283
18374TIP3   OH276536   3.154   4.646   3.500 -0.3237 -0.1684  0.3115
18374TIP3    H176537   3.220   4.602   3.553  2.0428  1.7359 -0.8221
18374TIP3    H276538   3.167   4.610   3.412 -0.3719  0.6154 -0.0280
18375TIP3   OH276539   5.554   1.427  14.262  0.0002  0.4920  0.0643
18375TIP3    H176540   5.498   1.366  14.310 -0.7818  1.9391  1.0575
18375TIP3    H276541   5.595   1.374  14.194 -1.4472 -0.9118  0.2430
18376TIP3   OH276542   5.641   3.387   2.957 -0.3172 -0.0871 -0.6540
18376TIP3    H176543   5.589   3.317   2.919 -1.7409  1.0035 -0.8112
18376TIP3    H276544   5.727   3.378   2.916 -1.4283  0.2933 -3.2775
18377TIP3   OH276545   2.711   6.322   4.681  0.4662 -0.1661 -0.1613
18377TIP3    H176546   2.775   6.316   4.611  0.6724  0.5798 -0.0369
18377TIP3    H276547   2.763   6.339   4.760  0.2014 -0.5764  0.1070
18378TIP3   OH276548   4.794   2.923   0.729 -0.3421 -0.4084 -0.2371
18378TIP3    H176549   4.793   3.014   0.760  0.0481  0.1002 -1.6331
18378TIP3    H276550   4.758   2.873   0.802  0.4484  0.7255  0.9794
18379TIP3   OH276551   5.294   6.576   4.063 -0.4817 -0.1873 -0.1826
18379TIP3    H176552   5.228   6.548   4.126  0.0779  0.7196  0.8351
18379TIP3    H276553   5.368   6.517   4.077 -1.0646 -1.2698 -1.3929
18380TIP3   OH276554   4.499   6.584   3.495 -0.1161  0.1548 -0.0086
18380TIP3    H176555   4.549   6.642   3.552  1.6501 -0.1845 -1.1233
18380TIP3    H276556   4.552   6.578   3.415 -0.6867 -2.2316 -0.2892
18381TIP3   OH276557   6.148   4.512  13.037 -0.0477  0.1974  0.2627
18381TIP3    H176558   6.064   4.502  12.993  0.0096  0.9811 -0.0316
18381TIP3    H276559   6.168   4.424  13.070 -1.1476  0.0795  0.6576
18382TIP3   OH276560   0.131   1.012   1.045 -0.2067  0.2803 -0.3357
18382TIP3    H176561   0.050   1.061   1.057 -0.2097  0.3971 -0.8216
18382TIP3    H276562   0.148   1.016   0.951 -0.4014 -0.9799 -0.4286
18383TIP3   OH276563   1.242   0.042   1.338 -0.3197 -0.5560  0.0749
18383TIP3    H176564   1.297   0.112   1.301 -1.3364  0.8078  1.0156
18383TIP3    H276565   1.299  -0.034   1.341  1.5464  0.8034  1.0364
18384TIP3   OH276566   0.562   0.120  15.920  0.0262 -0.3015 -0.0647
18384TIP3    H176567   0.546   0.027  15.935 -0.1487 -0.2640 -0.0269
18384TIP3    H276568   0.479   0.154  15.886  0.3705 -0.3647 -1.0041
18385TIP3   OH276569   4.765   6.783  13.867  0.3595  0.5498 -0.6620
18385TIP3    H176570   4.693   6.842  13.891  0.6056  0.5235  0.1490
18385TIP3    H276571   4.725   6.696  13.866  0.2085  0.6198 -0.9653
18386TIP3   OH276572   0.396   4.257  13.366 -0.5543 -0.0624  0.1888
18386TIP3    H176573   0.462   4.320  13.337  0.5396 -0.8076  0.9636
18386TIP3    H276574   0.340   4.307  13.426  0.3025  0.1879  0.7987
18387TIP3   OH276575   0.996   6.242  14.068 -0.7177  0.4730 -0.2639
18387TIP3    H176576   1.068   6.179  14.064 -0.5977  0.4509  1.3129
18387TIP3    H276577   0.945   6.226  13.989 -0.7944 -1.7566  0.1585
18388TIP3   OH276578   3.982   1.451   5.125 -0.5583  0.3154  0.0462
18388TIP3    H176579   3.907   1.473   5.069 -1.6257 -2.1500  0.3712
18388TIP3    H276580   3.961   1.488   5.210 -0.9426  0.4866 -0.1242
18389TIP3   OH276581   3.656   4.711   6.823  0.1207 -0.0136  0.8839
18389TIP3    H176582   3.570   4.754   6.821  0.8619  1.5105  0.0999
18389TIP3    H276583   3.717   4.779   6.796  1.7121 -0.8065  2.3054
18390TIP3   OH276584   6.064   5.048  11.178 -0.6401  0.0492 -0.2430
18390TIP3    H176585   5.980   5.069  11.138 -0.0503  0.2039 -1.4631
18390TIP3    H276586   6.119   5.124  11.157 -0.0120 -0.3430 -0.0327
18391TIP3   OH276587   0.541   0.737   5.326  0.0138 -0.3331 -0.0712
18391TIP3    H176588   0.500   0.704   5.406 -1.8955  0.2804 -0.7344
18391TIP3    H276589   0.612   0.675   5.307 -0.1271 -1.0289  1.5427
18392TIP3   OH276590   0.091   2.414  14.792 -0.6039 -0.1004 -0.6838
18392TIP3    H176591   0.083   2.320  14.782 -0.5853 -0.0324 -1.3943
18392TIP3    H276592   0.174   2.436  14.750  0.2870  0.0174  1.0381
18393TIP3   OH276593   3.840   5.897  16.337 -0.0913 -0.7043  0.4377
18393TIP3    H176594   3.844   5.983  16.296  2.2242 -1.1204 -0.3509
18393TIP3    H276595   3.802   5.913  16.423 -1.2214  0.8280 -0.3063
18394TIP3   OH276596   1.150   3.361   5.194 -0.4588 -0.1351 -0.0241
18394TIP3    H176597   1.075   3.324   5.147 -1.1339 -0.0370  0.9487
18394TIP3    H276598   1.184   3.288   5.246  1.0932 -0.5938 -1.6089
18395TIP3   OH276599   2.606   1.156  16.340 -0.4105  0.6809  0.2327
18395TIP3    H176600   2.517   1.189  16.354 -0.7924 -0.2946  0.1712
18395TIP3    H276601   2.649   1.166  16.425 -1.5499 -1.6966  1.1838
18396TIP3   OH276602   3.704   4.385  13.683 -0.0666 -0.1631  0.0980
18396TIP3    H176603   3.694   4.416  13.593 -0.5393  1.4079  0.6649
18396TIP3    H276604   3.784   4.426  13.714 -0.0383 -0.4998  0.4809
18397TIP3   OH276605   6.676   1.394  12.204 -0.3428  0.9252  0.3176
18397TIP3    H176606   6.635   1.480  12.200 -0.8440  0.7228  0.9852
18397TIP3    H276607   6.646   1.349  12.125 -1.3722  0.8022  0.7614
18398TIP3   OH276608   5.705   4.665   2.665  0.3180 -0.3816  0.3417
18398TIP3    H176609   5.642   4.636   2.731 -0.7523 -0.8513 -0.8256
18398TIP3    H276610   5.775   4.600   2.667 -0.9250 -1.8379 -0.6521
18399TIP3   OH276611   6.211   6.152  12.291 -0.2232 -0.1496 -0.0216
18399TIP3    H176612   6.232   6.245  12.287 -1.0302  0.0583  0.3520
18399TIP3    H276613   6.167   6.141  12.375  0.0246 -0.9093  0.0191
18400TIP3   OH276614   1.639   5.588   3.873  0.4203  0.2729  0.0836
18400TIP3    H176615   1.628   5.633   3.790 -1.0696 -0.8115 -0.3542
18400TIP3    H276616   1.581   5.512   3.867  0.2565  0.1798  2.1152
18401TIP3   OH276617   3.215   1.120   3.528 -0.3454  0.0739  0.1671
18401TIP3    H176618   3.137   1.066   3.518  0.5588 -1.1695 -0.4889
18401TIP3    H276619   3.236   1.148   3.439  0.0937  0.1958  0.3068
18402TIP3   OH276620   3.800   0.894  15.498 -0.1580 -0.5884  0.8406
18402TIP3    H176621   3.731   0.933  15.444 -0.3339 -1.5185  0.3679
18402TIP3    H276622   3.856   0.967  15.523 -0.0593 -0.1239 -0.6332
18403TIP3   OH276623   6.116   6.121   3.850  0.6004  0.1343 -0.2513
18403TIP3    H176624   6.208   6.128   3.874  0.8664 -0.2847 -1.1084
18403TIP3    H276625   6.103   6.028   3.832 -0.0513  0.1533  0.1019
18404TIP3   OH276626   1.019   2.274   5.530  0.7110 -1.1726  0.5190
18404TIP3    H176627   1.001   2.316   5.614  1.1793 -1.4360  0.7516
18404TIP3    H276628   0.933   2.255   5.493  0.4898  0.0857  0.3639
18405TIP3   OH276629   6.392   4.715  15.027 -0.2735 -0.4109  0.1944
18405TIP3    H176630   6.467   4.677  15.073  2.0276  2.3840 -0.9872
18405TIP3    H276631   6.377   4.656  14.953  0.8715 -0.9206  0.3444
18406TIP3   OH276632   0.151   1.043  12.881 -0.1039  0.1957  0.1788
18406TIP3    H176633   0.166   1.107  12.951 -0.5257 -0.2029  0.6370
18406TIP3    H276634   0.212   1.069  12.812 -0.8333  1.5965  0.0248
18407TIP3   OH276635   0.009   3.191   4.604  0.1112 -0.3288 -0.1222
18407TIP3    H176636  -0.013   3.276   4.643  0.2682  1.2768 -3.1669
18407TIP3    H276637   0.085   3.160   4.652  0.9757  2.0396  0.1583
18408TIP3   OH276638   6.006   5.316   5.497  0.7595  0.6809 -0.4910
18408TIP3    H176639   5.919   5.324   5.534  1.0574  0.0808  0.3823
18408TIP3    H276640   6.024   5.401   5.457 -0.2484  0.7794 -0.7527
18409TIP3   OH276641   4.973   5.173  12.285  0.7059  0.0397 -1.1017
18409TIP3    H176642   4.898   5.128  12.324  0.8397  0.3966 -0.4153
18409TIP3    H276643   4.981   5.134  12.198 -0.1165 -0.1812 -1.0924
18410TIP3   OH276644   0.089   0.941  16.149 -0.1725 -0.1640  0.2992
18410TIP3    H176645   0.154   0.946  16.219  0.4459  0.0070 -0.2644
18410TIP3    H276646   0.072   1.033  16.126  1.3659 -0.2077 -1.2956
18411TIP3   OH276647   6.217   0.077   1.402  0.4495  0.3473  0.6161
18411TIP3    H176648   6.278   0.104   1.471  1.7501  0.0193 -0.3884
18411TIP3    H276649   6.188   0.159   1.362  0.2942  0.4949  1.0171
18412TIP3   OH276650   4.925   3.855  12.736 -0.4162  0.9154 -0.3263
18412TIP3    H176651   4.899   3.789  12.799  2.2405  0.7223  0.6944
18412TIP3    H276652   4.843   3.889  12.701 -1.9008 -0.9467  1.1515
18413TIP3   OH276653   3.058   2.066   0.986 -0.0502 -0.1193 -0.0587
18413TIP3    H176654   2.972   2.097   0.957 -1.4578 -0.1134  3.5572
18413TIP3    H276655   3.079   1.993   0.928 -1.8987  0.6772 -1.8183
18414TIP3   OH276656   3.195   0.700  14.342 -0.1924  0.3930 -0.4601
18414TIP3    H176657   3.104   0.682  14.366 -0.1373  1.3924  0.5294
18414TIP3    H276658   3.218   0.629  14.282 -1.1873 -0.6483  0.3515
18415TIP3   OH276659   6.636   1.186  11.734 -0.1940  0.0720 -0.6536
18415TIP3    H176660   6.725   1.185  11.769  0.2302 -0.0515 -1.6840
18415TIP3    H276661   6.620   1.277  11.711 -0.6150  0.2209  0.1729
18416TIP3   OH276662   1.188   3.145  13.503 -0.8245 -0.2616  0.0155
18416TIP3    H176663   1.116   3.083  13.503 -1.2099  0.1712  0.8219
18416TIP3    H276664   1.260   3.097  13.544 -0.9941 -0.3144  0.2532
18417TIP3   OH276665   0.795   3.646  13.068  0.2162  0.7397  0.0846
18417TIP3    H176666   0.724   3.692  13.023  0.4065  1.7196  0.7572
18417TIP3    H276667   0.787   3.672  13.159 -0.4236 -1.5490  0.7489
18418TIP3   OH276668   5.439   4.351   2.880  0.5350  0.5146 -0.3676
18418TIP3    H176669   5.457   4.336   2.788  1.0115  1.3907 -0.4235
18418TIP3    H276670   5.471   4.439   2.898  1.9573 -0.2381  1.0338
18419TIP3   OH276671   3.538   4.580   3.306 -0.2778  0.0259  0.2988
18419TIP3    H176672   3.500   4.511   3.361 -0.6825 -0.3971 -0.4951
18419TIP3    H276673   3.488   4.576   3.224  0.8096  0.1420 -0.3869
18420TIP3   OH276674   1.550   3.587   2.847  0.3414 -0.2980 -0.0921
18420TIP3    H176675   1.584   3.673   2.870  0.1947 -0.1991 -0.2319
18420TIP3    H276676   1.586   3.528   2.912  0.6478 -0.1706 -0.1461
18421TIP3   OH276677   2.173   6.096  16.798 -0.2503 -0.3902 -0.0064
18421TIP3    H176678   2.169   6.003  16.820 -1.4778 -0.5092 -0.6236
18421TIP3    H276679   2.094   6.111  16.747 -0.9910  1.3992  1.5784
18422TIP3   OH276680   3.617   3.748  14.325  0.1700 -0.2884 -0.4133
18422TIP3    H176681   3.626   3.781  14.236 -0.6750  0.5430 -0.2076
18422TIP3    H276682   3.546   3.684  14.321  1.2138 -1.4581 -0.6365
18423TIP3   OH276683   6.768   4.938   2.157  0.4312  0.1967 -0.0300
18423TIP3    H176684   6.832   4.929   2.086 -1.1949  1.4513 -1.7494
18423TIP3    H276685   6.725   5.022   2.140 -1.6236 -0.5593  1.1140
18424TIP3   OH276686   1.084   0.403  13.176  0.4204 -0.1852  0.5680
18424TIP3    H176687   1.015   0.364  13.230  0.0132  0.2228  0.3492
18424TIP3    H276688   1.062   0.496  13.172  1.6264  0.1561  1.4516
18425TIP3   OH276689   1.913   2.828  13.491 -0.3195  0.4360 -0.9108
18425TIP3    H176690   1.952   2.852  13.575 -0.1004  0.8448 -1.1248
18425TIP3    H276691   1.895   2.911  13.448  0.1116  0.2257 -1.5166
18426TIP3   OH276692   6.651   0.070  15.547 -0.5391  0.6080  0.1106
18426TIP3    H176693   6.565   0.049  15.513  0.0268  1.2010 -1.8263
18426TIP3    H276694   6.703   0.094  15.470  1.1140  1.1126  1.3007
18427TIP3   OH276695   0.059   1.049   0.038  0.3435 -0.0154  0.2480
18427TIP3    H176696   0.057   0.974   0.097  1.0946 -0.2676 -0.0435
18427TIP3    H276697   0.152   1.062   0.019  0.2873  1.3642  0.7797
18428TIP3   OH276698   5.284   5.019   1.205 -0.5759  0.5136 -0.2499
18428TIP3    H176699   5.272   5.011   1.110 -0.6762  3.2536 -0.5445
18428TIP3    H276700   5.225   5.090   1.230 -0.9166 -0.4887  1.9837
18429TIP3   OH276701   4.892   0.137  11.028  0.0857 -0.4236 -0.1328
18429TIP3    H176702   4.806   0.178  11.031 -0.6100 -1.8027  0.0088
18429TIP3    H276703   4.953   0.206  11.051 -0.6475  1.3806 -3.1465
18430TIP3   OH276704   3.726   3.844   4.649 -0.2935  0.4103 -0.0809
18430TIP3    H176705   3.679   3.822   4.730 -0.9651 -1.5745 -0.9552
18430TIP3    H276706   3.661   3.832   4.579  1.1962 -1.4838 -1.2295
18431TIP3   OH276707   1.246   2.363   3.473 -0.0361  0.2991 -0.1521
18431TIP3    H176708   1.172   2.342   3.416 -0.8290  3.2728 -0.3789
18431TIP3    H276709   1.262   2.456   3.458  2.7270  0.1284  1.1263
18432TIP3   OH276710   6.686   2.527   0.489  0.0755 -0.2316  0.2344
18432TIP3    H176711   6.762   2.474   0.465 -1.0889 -1.5096 -0.8698
18432TIP3    H276712   6.638   2.474   0.553 -0.5362 -0.0257 -0.0408
18433TIP3   OH276713   5.568   2.939  12.296 -0.1923 -0.5195 -0.2365
18433TIP3    H176714   5.630   3.008  12.319 -1.0019  0.8396 -1.8600
18433TIP3    H276715   5.573   2.876  12.368  0.6260  1.2073  1.2903
18434TIP3   OH276716   3.119   3.365  13.168  0.0208 -0.1827  0.1676
18434TIP3    H176717   3.103   3.437  13.106 -1.0207 -0.2311  0.3492
18434TIP3    H276718   3.201   3.388  13.211  0.6274 -0.0081 -1.0254
18435TIP3   OH276719   5.866   1.225  16.732 -0.1303 -0.0784  0.7047
18435TIP3    H176720   5.870   1.266  16.645  0.1922 -0.9075  0.3204
18435TIP3    H276721   5.951   1.182  16.741 -0.4097 -0.5385  1.1601
18436TIP3   OH276722   2.415   4.485   4.497 -0.1325  0.1088  0.5296
18436TIP3    H176723   2.485   4.429   4.531 -0.9276 -1.1085  0.2504
18436TIP3    H276724   2.335   4.449   4.537 -0.5702  1.7365  1.1844
18437TIP3   OH276725   0.661   2.935  11.686 -0.0821  0.2947  0.3491
18437TIP3    H176726   0.611   3.014  11.707 -0.8868 -0.4038  1.2092
18437TIP3    H276727   0.725   2.927  11.757  0.6845  0.7228 -0.2883
18438TIP3   OH276728   0.493   5.641   5.896 -0.6485 -0.4695 -0.0803
18438TIP3    H176729   0.553   5.690   5.952 -1.9854  1.1278  0.0287
18438TIP3    H276730   0.457   5.573   5.954  0.3739 -0.8801  0.0883
18439TIP3   OH276731   1.038   4.202   1.697 -0.1911  0.1935 -0.3441
18439TIP3    H176732   0.947   4.209   1.726 -0.5397  0.5574 -1.4509
18439TIP3    H276733   1.073   4.290   1.707  0.0402  0.0600  0.0543
18440TIP3   OH276734   6.163   3.238  11.230 -0.2963 -1.3472  0.3776
18440TIP3    H176735   6.139   3.146  11.224 -1.4090 -1.0306 -0.0710
18440TIP3    H276736   6.083   3.287  11.212 -0.2650 -0.2781  2.6437
18441TIP3   OH276737   5.511   0.231  16.515 -0.0819  0.2052 -0.1449
18441TIP3    H176738   5.482   0.167  16.580  1.5091 -1.3484 -0.8567
18441TIP3    H276739   5.531   0.178  16.438  1.5113  1.5380 -0.6993
18442TIP3   OH276740   2.806   1.351   5.649  0.0728  0.1233 -0.2095
18442TIP3    H176741   2.832   1.295   5.721 -0.1724 -0.1405 -0.3261
18442TIP3    H276742   2.787   1.436   5.690 -1.8738 -0.5183  0.3126
18443TIP3   OH276743   2.114   0.754   2.803  0.5563 -0.5101 -0.0697
18443TIP3    H176744   2.180   0.719   2.743 -0.4100 -0.6561 -1.0893
18443TIP3    H276745   2.129   0.848   2.803  0.3069 -0.4593 -0.8940
18444TIP3   OH276746   1.144   1.222   3.896  0.2980  0.0286  0.1874
18444TIP3    H176747   1.177   1.231   3.985  0.9603  0.2955 -0.0826
18444TIP3    H276748   1.089   1.299   3.883  0.8393  0.3992  0.0903
18445TIP3   OH276749   0.963   3.286  10.544  0.0374  0.3734  0.1188
18445TIP3    H176750   0.925   3.207  10.505  1.2009  0.3310 -0.9869
18445TIP3    H276751   1.026   3.253  10.608  0.0392  0.4276  0.1452
18446TIP3   OH276752   1.187   1.572   3.217 -0.5737  0.2283  0.1170
18446TIP3    H176753   1.194   1.477   3.209 -0.2088 -0.0509  2.8469
18446TIP3    H276754   1.098   1.587   3.250 -0.9455  0.9503 -1.1332
18447TIP3   OH276755   6.216   5.588   2.999  0.3112 -0.2960  0.2068
18447TIP3    H176756   6.131   5.578   2.958  0.5848 -0.5238 -0.3137
18447TIP3    H276757   6.258   5.503   2.988  0.3370 -0.4055  1.0813
18448TIP3   OH276758   4.728   4.864  11.989  0.8208  0.1932 -0.1259
18448TIP3    H176759   4.764   4.775  11.988  0.3721  0.0153 -0.5316
18448TIP3    H276760   4.742   4.897  11.901 -0.5654 -0.1090 -0.4792
18449TIP3   OH276761   1.586   1.963   5.411  0.2342 -0.8034 -0.1093
18449TIP3    H176762   1.549   1.922   5.333 -1.7307  0.6619 -0.0235
18449TIP3    H276763   1.513   1.969   5.472  0.5439  2.1804  0.1075
18450TIP3   OH276764   3.147   2.833   0.843  0.3639  0.6039 -0.0841
18450TIP3    H176765   3.214   2.850   0.909 -0.5641 -2.8462  2.1015
18450TIP3    H276766   3.191   2.780   0.777  0.3014  0.1236  0.2505
18451TIP3   OH276767   0.777   1.673  11.156  1.2263  0.4204 -0.5544
18451TIP3    H176768   0.685   1.647  11.155  1.5162 -0.8272  0.9373
18451TIP3    H276769   0.782   1.741  11.223  0.9871  2.4187 -2.4467
18452TIP3   OH276770   3.329   6.238   3.808  0.0595 -0.3097 -0.2463
18452TIP3    H176771   3.308   6.317   3.858 -0.3973 -0.4295 -0.2400
18452TIP3    H276772   3.367   6.178   3.872  0.8888  0.0942 -0.3596
18453TIP3   OH276773   2.722   2.601  16.670  0.0129 -0.2059  0.5920
18453TIP3    H176774   2.725   2.505  16.670 -0.5789 -0.2311  0.5682
18453TIP3    H276775   2.809   2.628  16.699 -0.0983 -0.7665  1.5128
18454TIP3   OH276776   1.233   5.657  13.860  1.0228  0.0500  0.5973
18454TIP3    H176777   1.164   5.707  13.904 -1.0509 -0.8066 -1.4635
18454TIP3    H276778   1.208   5.565  13.874  1.5125 -0.2715 -0.5315
18455TIP3   OH276779   6.184   5.777   5.272  0.8202  0.0911  0.2977
18455TIP3    H176780   6.167   5.852   5.329  0.0405 -0.8100  1.2882
18455TIP3    H276781   6.272   5.793   5.237  0.7260  1.3914  0.5935
18456TIP3   OH276782   5.395   4.755   3.653 -0.2463 -0.0463  0.4350
18456TIP3    H176783   5.340   4.775   3.728  0.3982  0.5491  0.7570
18456TIP3    H276784   5.457   4.827   3.648  0.4409 -0.6477  0.0100
18457TIP3   OH276785   2.251   1.668   5.491  0.5718 -0.0975 -0.0683
18457TIP3    H176786   2.189   1.725   5.446  0.3759 -0.8020 -0.7155
18457TIP3    H276787   2.316   1.727   5.528 -0.6589  0.6980  0.9131
18458TIP3   OH276788   6.710   2.451   3.280  0.5122  0.1976  0.2433
18458TIP3    H176789   6.658   2.473   3.358  0.6414  1.5311 -0.0235
18458TIP3    H276790   6.752   2.533   3.256  1.1441 -0.4026 -0.7492
18459TIP3   OH276791   2.225   1.921  11.381 -0.2050 -0.2955  0.9328
18459TIP3    H176792   2.314   1.889  11.399 -1.0137 -3.8231 -0.4617
18459TIP3    H276793   2.172   1.884  11.452 -0.9179 -0.5324  0.2952
18460TIP3   OH276794   5.985   4.231  16.166  0.1792 -0.3293  0.1539
18460TIP3    H176795   6.078   4.209  16.174 -0.2410 -1.5485  2.2085
18460TIP3    H276796   5.949   4.164  16.108  0.3743 -0.4939  0.2238
18461TIP3   OH276797   3.945   0.972  11.197 -0.1227  0.6890  0.0901
18461TIP3    H176798   3.940   1.044  11.259 -0.0201  1.5545 -0.8794
18461TIP3    H276799   4.015   0.916  11.230  0.7737  1.7868  0.0823
18462TIP3   OH276800   1.890   3.808  14.398 -0.2934 -0.4925 -0.0591
18462TIP3    H176801   1.865   3.758  14.476  0.1236 -1.2490 -0.4056
18462TIP3    H276802   1.959   3.868  14.428 -0.2684 -0.6494  0.1912
18463TIP3   OH276803   5.126   2.885   5.185 -0.3490 -0.3321 -0.2907
18463TIP3    H176804   5.111   2.799   5.226  3.2570 -1.8584 -1.7770
18463TIP3    H276805   5.198   2.923   5.235 -1.9218  1.9859  0.3753
18464TIP3   OH276806   5.884   0.508  16.714  0.0586  0.0804 -0.2480
18464TIP3    H176807   5.951   0.483  16.651 -1.4538 -1.4981 -1.3234
18464TIP3    H276808   5.834   0.577  16.670  1.1450  1.5323  0.7020
18465TIP3   OH276809   1.935   3.803  15.776  0.1959 -0.0719  1.2379
18465TIP3    H176810   1.982   3.729  15.814 -2.1011 -0.9834  2.5541
18465TIP3    H276811   1.842   3.781  15.788 -0.5954  2.0578 -0.2827
18466TIP3   OH276812   3.677   2.189   1.602  0.0950  0.6379 -0.4270
18466TIP3    H176813   3.658   2.200   1.695 -0.1865 -0.5533 -0.3397
18466TIP3    H276814   3.754   2.133   1.599 -0.4529 -0.1130 -0.9177
18467TIP3   OH276815   4.333   0.034   5.670  0.2840  0.1953  0.7501
18467TIP3    H176816   4.428   0.046   5.669  0.2254  0.9143  2.1639
18467TIP3    H276817   4.298   0.122   5.668 -0.4272 -0.0792 -1.5429
18468TIP3   OH276818   6.332   3.426   4.132  0.0429 -0.1884  0.0370
18468TIP3    H176819   6.319   3.515   4.166  0.7611 -0.0574 -0.0100
18468TIP3    H276820   6.283   3.370   4.192  0.2572  0.1682  0.5593
18469TIP3   OH276821   6.701   3.534   1.799 -0.1414 -0.0220 -0.5200
18469TIP3    H176822   6.683   3.529   1.705 -0.8330 -1.9165 -0.3368
18469TIP3    H276823   6.796   3.542   1.805 -0.0382 -0.4417 -1.3846
18470TIP3   OH276824   4.953   1.060  11.149  0.2769  0.1743  0.0290
18470TIP3    H176825   4.891   1.047  11.221  0.7265 -2.2257  0.0715
18470TIP3    H276826   5.025   1.110  11.187  0.4431 -0.9499  1.2477
18471TIP3   OH276827   2.342   2.755  14.016  0.1336  0.0621 -0.5653
18471TIP3    H176828   2.356   2.661  14.001  1.6687  0.2293 -0.3575
18471TIP3    H276829   2.345   2.765  14.111  0.4929  0.3885 -0.6074
18472TIP3   OH276830   0.482   5.548   3.511  0.2045  0.4888  0.1313
18472TIP3    H176831   0.451   5.579   3.426  1.2817 -0.1571 -0.5138
18472TIP3    H276832   0.570   5.514   3.494 -0.0458 -0.7937  1.2501
18473TIP3   OH276833   3.953   6.306   4.566 -0.3099  0.1297 -0.9383
18473TIP3    H176834   3.898   6.237   4.602  2.0895 -1.2270  0.3948
18473TIP3    H276835   3.967   6.280   4.475 -0.2380 -0.6227 -0.7210
18474TIP3   OH276836   0.223   3.201  11.781  0.6445 -0.2245 -0.1863
18474TIP3    H176837   0.180   3.130  11.829  0.2741 -0.6298 -1.0917
18474TIP3    H276838   0.181   3.281  11.814 -0.4289 -0.5754 -0.6621
18475TIP3   OH276839   2.696   4.627   2.184  0.2557  0.0916  0.2020
18475TIP3    H176840   2.687   4.674   2.102  2.0288  1.3548  0.6639
18475TIP3    H276841   2.757   4.555   2.164  0.6933  0.4031  0.3988
18476TIP3   OH276842   4.064   1.202  15.731 -0.0020  0.0746 -0.5812
18476TIP3    H176843   4.096   1.240  15.648  0.8616  1.5867  0.3978
18476TIP3    H276844   4.025   1.276  15.777  0.6578 -0.4756  0.9009
18477TIP3   OH276845   4.968   3.074   3.582 -0.0563 -0.5870  0.1222
18477TIP3    H176846   4.906   3.057   3.653 -0.9360  0.5990 -0.3279
18477TIP3    H276847   5.019   2.993   3.575  0.6854 -0.4264  2.6873
18478TIP3   OH276848   5.126   0.689   2.747 -0.1903  0.5688 -0.6723
18478TIP3    H176849   5.162   0.771   2.782 -0.4487 -0.8940  3.6205
18478TIP3    H276850   5.034   0.690   2.774 -0.1389 -1.1918 -0.3299
18479TIP3   OH276851   1.752   1.660  12.933  0.1877 -0.1079  0.0187
18479TIP3    H176852   1.780   1.600  12.863 -0.9979  0.2218 -0.7865
18479TIP3    H276853   1.774   1.747  12.900  1.1054 -0.0340  0.7974
18480TIP3   OH276854   1.857   2.946  11.488  0.1217 -0.2286  0.0742
18480TIP3    H176855   1.833   2.853  11.490 -0.5680 -0.0819 -0.9724
18480TIP3    H276856   1.805   2.986  11.558 -2.0557 -0.0874 -1.5317
18481TIP3   OH276857   3.095   0.825  12.368  0.0045  0.0059 -0.1739
18481TIP3    H176858   3.072   0.827  12.461  0.1136 -0.9719 -0.1179
18481TIP3    H276859   3.159   0.754  12.361 -0.2324 -0.1242 -1.0441
18482TIP3   OH276860   3.133   5.374   1.092 -0.0744 -0.0805 -0.3186
18482TIP3    H176861   3.053   5.367   1.143 -0.7241  2.8343 -0.7486
18482TIP3    H276862   3.108   5.349   1.003 -0.6499  1.1711 -0.5282
18483TIP3   OH276863   4.287   2.280   6.345 -0.5772 -0.3101 -0.1830
18483TIP3    H176864   4.331   2.197   6.359  2.0464  0.9294 -0.3628
18483TIP3    H276865   4.260   2.309   6.432 -1.1303 -1.1379 -0.0756
18484TIP3   OH276866   4.875   1.966   1.035 -0.3400  0.0203 -0.0886
18484TIP3    H176867   4.821   1.900   0.991  0.2489  0.4918 -1.5799
18484TIP3    H276868   4.906   1.923   1.115  1.7491 -2.3111 -2.0115
18485TIP3   OH276869   0.991   4.220  15.110  0.0068 -0.0941  0.1770
18485TIP3    H176870   1.083   4.194  15.111  0.7772  2.0730 -2.4212
18485TIP3    H276871   0.974   4.254  15.198  1.5082 -0.9932  0.8384
18486TIP3   OH276872   0.132   0.284   1.213  0.0460 -0.3777  0.4337
18486TIP3    H176873   0.142   0.204   1.265 -0.7856 -0.4081  0.5576
18486TIP3    H276874   0.161   0.260   1.125 -0.8112 -1.0035  0.3116
18487TIP3   OH276875   0.056   5.391   3.385  0.0007  0.0551 -0.2152
18487TIP3    H176876   0.089   5.390   3.296 -2.6309  1.6793 -1.3182
18487TIP3    H276877  -0.009   5.321   3.387 -0.9459  0.9162 -0.0328
18488TIP3   OH276878   2.329   3.882   5.831 -0.0663 -0.0518 -0.0570
18488TIP3    H176879   2.352   3.809   5.889  1.2332 -1.0522 -1.7395
18488TIP3    H276880   2.397   3.947   5.847 -0.9137  0.5996  1.0404
18489TIP3   OH276881   2.405   0.295   2.705  0.7393 -0.1548  0.2543
18489TIP3    H176882   2.439   0.309   2.793  1.3386 -2.8594  0.5580
18489TIP3    H276883   2.478   0.257   2.657 -0.5527 -2.0778 -0.3199
18490TIP3   OH276884   0.464   3.017  15.813  0.4473  0.2927 -0.6303
18490TIP3    H176885   0.399   3.058  15.755  1.4985  0.2593 -1.8780
18490TIP3    H276886   0.505   3.091  15.859 -0.9775  0.2631  0.7575
18491TIP3   OH276887   2.975   6.679   1.417  0.3611 -0.2375  0.5163
18491TIP3    H176888   3.067   6.663   1.395  0.6026  0.6485  0.8206
18491TIP3    H276889   2.966   6.774   1.410 -0.3201 -0.2393  1.2981
18492TIP3   OH276890   6.090   6.265  11.881 -0.3703 -0.2260  1.3820
18492TIP3    H176891   6.025   6.293  11.946 -1.6010 -1.0047  0.5342
18492TIP3    H276892   6.043   6.268  11.798  0.0777 -2.5938  0.9673
18493TIP3   OH276893   3.506   3.056  15.690 -0.5295  1.4396 -0.3467
18493TIP3    H176894   3.417   3.085  15.709 -0.1592  1.8086  0.9062
18493TIP3    H276895   3.529   2.999  15.764 -0.1186  0.4388 -1.2165
18494TIP3   OH276896   5.516   1.129   2.515 -0.1268 -0.2882  0.2424
18494TIP3    H176897   5.484   1.211   2.553 -1.8566 -1.2451  0.9619
18494TIP3    H276898   5.448   1.065   2.535  0.5297 -1.6173 -1.5037
18495TIP3   OH276899   5.206   4.063  13.558 -0.0670 -0.0807  0.3047
18495TIP3    H176900   5.235   3.994  13.499 -0.2505  0.9037 -0.9905
18495TIP3    H276901   5.138   4.109  13.508  1.1997  2.0452  0.4423
18496TIP3   OH276902   3.440   2.894  15.221  0.2069  0.1165 -0.3896
18496TIP3    H176903   3.377   2.898  15.148 -3.0423  0.7293  2.2033
18496TIP3    H276904   3.454   2.800  15.235 -2.3833 -0.2082  0.5980
18497TIP3   OH276905   0.111   0.319  14.192 -0.1529 -0.3124 -0.5013
18497TIP3    H176906   0.040   0.255  14.184 -2.0038  1.7697 -2.0998
18497TIP3    H276907   0.140   0.333  14.102  2.6220 -1.3410  0.1434
18498TIP3   OH276908   3.870   3.169   4.648  0.5000 -0.5629 -0.3343
18498TIP3    H176909   3.901   3.189   4.736  0.5086 -1.0468 -0.2243
18498TIP3    H276910   3.947   3.136   4.601  0.8818  1.1784 -1.0195
18499TIP3   OH276911   3.264   0.483   1.865  0.3767 -0.1028  0.8140
18499TIP3    H176912   3.202   0.442   1.926 -0.0698  0.4381  0.7363
18499TIP3    H276913   3.293   0.412   1.809 -1.9899  0.0050 -0.6831
18500TIP3   OH276914   3.071   3.221  15.020  0.1142  0.2115 -0.0909
18500TIP3    H176915   3.080   3.309  14.984 -0.9500  0.4662  0.2387
18500TIP3    H276916   3.150   3.210  15.074  1.1384  0.2612 -1.5171
18501TIP3   OH276917   5.161   1.318  10.370 -0.1322  0.3940 -0.1078
18501TIP3    H176918   5.125   1.365  10.295 -1.6510 -2.0737 -1.0379
18501TIP3    H276919   5.088   1.311  10.431  0.6207  0.9043  0.8846
18502TIP3   OH276920   1.061   4.173   3.731 -0.0572 -0.2474 -0.1772
18502TIP3    H176921   1.053   4.269   3.729 -2.6222 -0.3881 -0.1601
18502TIP3    H276922   1.057   4.150   3.823 -1.3194 -0.4568 -0.2738
18503TIP3   OH276923   2.833   2.266   3.626  0.5750  0.0171  0.0917
18503TIP3    H176924   2.911   2.308   3.589  1.4151 -2.4272 -1.1132
18503TIP3    H276925   2.868   2.198   3.684 -0.4708 -2.4907 -1.9959
18504TIP3   OH276926   0.910   4.838   2.255 -0.3973 -0.3346 -0.0350
18504TIP3    H176927   0.861   4.912   2.291 -0.7512 -0.9008  0.6835
18504TIP3    H276928   0.850   4.764   2.263 -0.5165 -0.4900 -1.8807
18505TIP3   OH276929   5.624   1.462  10.520  0.2342  0.0968  0.2612
18505TIP3    H176930   5.711   1.422  10.529  1.0604  1.7430 -0.0177
18505TIP3    H276931   5.615   1.480  10.426 -1.6136 -2.5032 -0.1792
18506TIP3   OH276932   5.738   4.323  15.674 -0.0261 -0.1775  0.0610
18506TIP3    H176933   5.816   4.298  15.724 -0.2808 -1.1935 -0.0407
18506TIP3    H276934   5.721   4.249  15.617 -1.2848 -0.1226  0.3420
18507TIP3   OH276935   1.399   2.378   5.854 -0.1956  0.3852 -0.0572
18507TIP3    H176936   1.311   2.342   5.848 -0.3207  0.5419  0.7443
18507TIP3    H276937   1.456   2.309   5.821 -0.4888 -0.2902  0.8166
18508TIP3   OH276938   6.419   5.391  15.810 -0.2872 -0.0619 -0.1452
18508TIP3    H176939   6.351   5.351  15.755 -3.0248  1.1782  2.0760
18508TIP3    H276940   6.438   5.324  15.876 -0.5319  0.1763  0.1659
18509TIP3   OH276941   1.925   0.779   3.650 -0.2606 -0.3565 -0.0343
18509TIP3    H176942   1.994   0.826   3.696  0.2215 -2.6238  1.7464
18509TIP3    H276943   1.971   0.731   3.581 -0.6482  1.0873 -1.3542
18510TIP3   OH276944   0.599   3.531   3.645 -0.4807  0.3928  0.1174
18510TIP3    H176945   0.684   3.500   3.615  0.1721  1.8090  0.4237
18510TIP3    H276946   0.580   3.479   3.723  0.1979  0.2012  0.1591
18511TIP3   OH276947   5.193   0.069  15.881 -0.0682  0.6469  0.4077
18511TIP3    H176948   5.174   0.011  15.955 -1.1063  0.6551  0.1649
18511TIP3    H276949   5.283   0.049  15.857 -0.8748 -2.1099 -0.7437
18512TIP3   OH276950   0.304   0.123   3.388  0.2822  0.2755 -0.2588
18512TIP3    H176951   0.312   0.138   3.482  3.6311  0.3327 -0.4353
18512TIP3    H276952   0.358   0.192   3.348 -0.7466  0.0138 -2.2216
18513TIP3   OH276953   0.666   2.488   5.308 -0.2750  0.2148 -0.7196
18513TIP3    H176954   0.753   2.493   5.346 -0.5590 -0.7516  0.1044
18513TIP3    H276955   0.611   2.455   5.378 -1.1967  0.2499 -1.4020
18514TIP3   OH276956   0.095   6.598   0.278 -0.7210 -0.2494  0.3922
18514TIP3    H176957   0.113   6.514   0.321  0.6268 -0.8741 -1.3011
18514TIP3    H276958   0.172   6.651   0.296 -0.1753 -0.4863 -1.0720
18515TIP3   OH276959   3.007   3.346  12.630  0.7997  0.3200 -0.7150
18515TIP3    H176960   3.060   3.302  12.563 -0.4587 -0.0005 -1.5250
18515TIP3    H276961   2.997   3.435  12.598 -0.6646 -0.0965 -1.5243
18516TIP3   OH276962   3.273   0.019   1.277 -0.2338 -0.0284 -0.0712
18516TIP3    H176963   3.304   0.109   1.272 -0.5735  0.0492 -0.9552
18516TIP3    H276964   3.246  -0.002   1.187  2.0369 -1.7925 -0.4377
18517TIP3   OH276965   2.017   0.633   4.430  0.2931 -0.0035  0.4654
18517TIP3    H176966   1.989   0.670   4.514  1.2216 -1.3252  1.4101
18517TIP3    H276967   1.945   0.575   4.404  0.6558 -0.7890  1.1638
18518TIP3   OH276968   0.269   3.448   5.091  0.5186  0.4770 -0.2923
18518TIP3    H176969   0.263   3.541   5.068 -0.9232  0.4148 -0.2515
18518TIP3    H276970   0.236   3.444   5.181  1.6729  0.0637  0.1367
18519TIP3   OH276971   1.163   0.104  12.063 -0.0636 -1.0094 -0.2540
18519TIP3    H176972   1.173   0.058  11.980  1.6278 -0.5672 -0.3426
18519TIP3    H276973   1.122   0.188  12.040  1.3124 -0.4602 -0.8335
18520TIP3   OH276974   3.560   1.520   2.019  0.3443 -0.2078 -0.0624
18520TIP3    H176975   3.615   1.457   1.972  0.7493 -0.1649  0.3476
18520TIP3    H276976   3.473   1.481   2.018 -0.7208  1.7217 -4.6276
18521TIP3   OH276977   5.886   5.149  16.934 -0.1203 -0.1038 -0.0834
18521TIP3    H176978   5.845   5.156  16.848  1.6136 -0.3512 -0.9677
18521TIP3    H276979   5.912   5.057  16.941 -0.1150 -0.0542  0.6431
18522TIP3   OH276980   0.408   3.750   3.640 -0.1733  0.5283 -0.0789
18522TIP3    H176981   0.476   3.686   3.661  1.0456  1.8221  0.0537
18522TIP3    H276982   0.339   3.734   3.705  0.5018 -0.0726  0.5007
18523TIP3   OH276983   4.660   3.215   4.951  0.0154 -0.1947  0.1455
18523TIP3    H176984   4.718   3.139   4.944  1.1048  0.7101 -1.1949
18523TIP3    H276985   4.719   3.288   4.970 -0.8293  0.5776 -0.1480
18524TIP3   OH276986   4.457   1.049   1.662  0.7222  0.0103 -0.2620
18524TIP3    H176987   4.421   1.093   1.585  0.0712  0.4384  0.2777
18524TIP3    H276988   4.549   1.074   1.663  0.5418  0.7111 -0.4253
18525TIP3   OH276989   2.016   4.303   5.005  0.3253  0.2231  0.0386
18525TIP3    H176990   1.941   4.362   5.013 -0.1849 -0.2211 -1.1620
18525TIP3    H276991   2.033   4.274   5.095 -3.1126 -2.2677  0.0916
18526TIP3   OH276992   2.168   5.522   3.086  0.0228 -0.5248 -0.7749
18526TIP3    H176993   2.086   5.473   3.077  0.1526 -0.6526 -1.2892
18526TIP3    H276994   2.146   5.612   3.062 -0.1551 -0.3822 -0.0904
18527TIP3   OH276995   4.407   4.884  13.768 -0.1147 -0.3649 -0.1838
18527TIP3    H176996   4.484   4.937  13.786 -1.7156  1.9967  0.2083
18527TIP3    H276997   4.396   4.889  13.673  0.4015 -1.0220 -0.2846
18528TIP3   OH276998   0.507   6.131   2.262  0.3652  0.1673 -0.4955
18528TIP3    H176999   0.538   6.049   2.225  0.2261  0.6329 -1.6980
18528TIP3    H277000   0.439   6.105   2.324  1.3376 -0.6940  0.2518
18529TIP3   OH277001   6.697   0.119  11.820  0.0335 -0.4391  0.1255
18529TIP3    H177002   6.748   0.178  11.874 -0.4773 -0.0390  0.1794
18529TIP3    H277003   6.698   0.158  11.733 -1.0827  0.1587  0.3640
18530TIP3   OH277004   2.961   6.644  16.074 -0.4557  0.3401 -0.0766
18530TIP3    H177005   2.924   6.597  16.148 -1.4564 -0.6855 -1.1984
18530TIP3    H277006   2.888   6.654  16.012  0.6967 -0.1521 -1.5728
18531TIP3   OH277007   4.068   5.499  14.906 -0.0491  0.3903  0.1938
18531TIP3    H177008   3.985   5.512  14.951  0.5243  2.0241  0.8645
18531TIP3    H277009   4.044   5.467  14.819 -1.3688  0.6135  0.4588
18532TIP3   OH277010   5.885   0.761   3.975 -0.7294 -0.4773 -0.1583
18532TIP3    H177011   5.922   0.835   3.926 -0.3628 -0.3756  0.2625
18532TIP3    H277012   5.804   0.740   3.929 -0.7144  0.0303 -0.4243
18533TIP3   OH277013   2.569   2.472  16.269 -0.0104  0.1131  0.1285
18533TIP3    H177014   2.664   2.461  16.265  0.1655  1.5843 -3.0239
18533TIP3    H277015   2.534   2.383  16.273  1.4378 -0.4314  2.6410
18534TIP3   OH277016   4.144   6.330   5.262 -0.3825 -0.0535 -0.1877
18534TIP3    H177017   4.059   6.330   5.306  0.3194  2.5204  1.3636
18534TIP3    H277018   4.205   6.295   5.328 -0.0527 -1.0312 -0.9763
18535TIP3   OH277019   3.076   1.297  16.996  0.0572 -0.1734 -0.4308
18535TIP3    H177020   3.004   1.299  16.933  0.9462 -1.4321 -1.5587
18535TIP3    H277021   3.034   1.307  17.081 -1.1277  2.2221 -1.2055
18536TIP3   OH277022   1.464   6.686   0.107 -0.1782 -0.4308 -0.1221
18536TIP3    H177023   1.394   6.643   0.057 -0.3232  0.4696 -0.7110
18536TIP3    H277024   1.423   6.709   0.190 -0.2755 -0.8816 -0.0442
18537TIP3   OH277025   1.308   5.366  15.938  0.3464 -0.3180  0.1711
18537TIP3    H177026   1.272   5.440  15.888  0.7081  0.3993  0.9503
18537TIP3    H277027   1.367   5.323  15.877 -0.1427 -0.1786 -0.4092
18538TIP3   OH277028   1.510   5.287  11.992  0.0915  0.6479  0.1616
18538TIP3    H177029   1.594   5.245  12.011  1.0478  2.2989 -0.2291
18538TIP3    H277030   1.486   5.332  12.072 -0.5235  0.0554  0.3220
18539TIP3   OH277031   0.767   0.282   3.692 -0.3434 -0.1795  0.6258
18539TIP3    H177032   0.783   0.295   3.786 -0.1538  1.5365  0.3819
18539TIP3    H277033   0.713   0.202   3.688  0.4065 -0.8081  2.1108
18540TIP3   OH277034   4.180   3.486   5.397 -0.4072 -0.1403 -0.9949
18540TIP3    H177035   4.169   3.547   5.325 -0.4724  0.4283 -0.5099
18540TIP3    H277036   4.272   3.495   5.423 -0.1351 -1.0084 -1.5835
18541TIP3   OH277037   5.053   6.365   3.020  0.1671 -0.1027  0.1702
18541TIP3    H177038   5.122   6.358   3.085 -0.1993  0.2190  0.6005
18541TIP3    H277039   5.059   6.284   2.969  1.3637  0.2605 -0.3088
18542TIP3   OH277040   4.732   1.000  14.998 -0.0982  0.0020  0.7899
18542TIP3    H177041   4.637   1.011  15.001  0.0143  1.2595  0.3657
18542TIP3    H277042   4.754   0.950  15.077 -1.0183  0.4235  1.3188
18543TIP3   OH277043   3.577   1.958  17.029 -0.5929 -0.1864 -0.1521
18543TIP3    H177044   3.646   1.895  17.051 -1.2148 -0.9755 -0.4014
18543TIP3    H277045   3.588   1.975  16.935 -0.4741  0.0146 -0.1011
18544TIP3   OH277046   0.989   3.575  12.886 -0.6194  0.5444  0.6645
18544TIP3    H177047   1.070   3.537  12.919 -0.9972 -0.6974  0.2321
18544TIP3    H277048   0.930   3.574  12.961 -0.9198 -0.6385  0.4435
18545TIP3   OH277049   4.169   5.038   4.867  0.2893 -0.5227  0.1079
18545TIP3    H177050   4.237   4.972   4.855  2.2821  1.5842 -0.8813
18545TIP3    H277051   4.215   5.115   4.901 -1.9632  0.3835  1.3534
18546TIP3   OH277052   5.213   0.959  16.540  0.0063 -0.2665 -0.0123
18546TIP3    H177053   5.253   0.914  16.466  1.1708 -0.1488  0.5334
18546TIP3    H277054   5.264   0.931  16.616  0.7027  1.8748  0.3763
18547TIP3   OH277055   4.205   5.215   1.011  0.2654  0.1653  0.5580
18547TIP3    H177056   4.151   5.280   0.966  0.3351 -0.3362 -0.2578
18547TIP3    H277057   4.281   5.264   1.042  0.1603  0.5361  0.2342
18548TIP3   OH277058   3.359   1.113   0.445  0.3055  0.2099 -0.0234
18548TIP3    H177059   3.391   1.036   0.493 -2.5697 -0.8222  0.4719
18548TIP3    H277060   3.388   1.099   0.355  0.0494 -1.3882  0.1055
18549TIP3   OH277061   4.463   2.654  13.342  0.0849 -0.0923 -0.4180
18549TIP3    H177062   4.463   2.613  13.428  1.5996  1.2688  0.2766
18549TIP3    H277063   4.390   2.717  13.345  1.4071  1.4766  0.7012
18550TIP3   OH277064   4.810   2.933  15.852 -0.1265  0.0124  0.5354
18550TIP3    H177065   4.861   2.873  15.797  0.9166  1.1792  0.1811
18550TIP3    H277066   4.866   2.950  15.927 -1.0620 -0.6435  1.4114
18551TIP3   OH277067   3.036   4.414  12.877 -0.3240  0.4172  0.4941
18551TIP3    H177068   3.036   4.506  12.850 -0.4794  0.4868  0.7301
18551TIP3    H277069   2.944   4.387  12.872 -0.4403  0.5813  1.4539
18552TIP3   OH277070   0.095   0.815   5.405  0.6267 -0.1688  0.4160
18552TIP3    H177071   0.074   0.878   5.474  0.5257 -0.0996  0.3222
18552TIP3    H277072   0.166   0.857   5.356  1.1324 -0.4903  0.8548
18553TIP3   OH277073   2.677   5.407  15.516 -0.3146 -0.4762  0.4929
18553TIP3    H177074   2.741   5.336  15.515  0.1399 -0.2503  3.7500
18553TIP3    H277075   2.723   5.482  15.479  1.2638 -0.4195  2.4066
18554TIP3   OH277076   3.604   2.439  15.704 -0.4990 -0.1212 -0.2833
18554TIP3    H177077   3.645   2.380  15.766 -0.6190  0.8985  0.7979
18554TIP3    H277078   3.522   2.396  15.680  0.4895 -1.4957 -1.3742
18555TIP3   OH277079   4.890   5.861   0.686 -0.5834 -0.4951 -0.6395
18555TIP3    H177080   4.836   5.938   0.670  0.6780  0.1625 -1.9883
18555TIP3    H277081   4.874   5.805   0.610 -2.2240 -2.0636  0.7778
18556TIP3   OH277082   0.676   5.360   1.139  0.0371  0.9159 -0.0270
18556TIP3    H177083   0.600   5.413   1.161  0.1368  0.6261  1.0707
18556TIP3    H277084   0.653   5.272   1.168  1.0980  0.9836  1.1125
18557TIP3   OH277085   4.466   4.164   4.536  0.1568 -0.2817 -0.3394
18557TIP3    H177086   4.473   4.075   4.572 -0.8997  0.4425  1.7599
18557TIP3    H277087   4.508   4.157   4.450  1.8209 -2.3480  0.5442
18558TIP3   OH277088   3.389   4.802  16.465 -0.2217 -0.4317 -0.1399
18558TIP3    H177089   3.440   4.820  16.386 -0.4771 -0.7659 -0.3841
18558TIP3    H277090   3.313   4.753  16.433  0.0555 -1.2419  0.4119
18559TIP3   OH277091   6.385   3.984   2.960 -0.1405 -0.1294 -0.0222
18559TIP3    H177092   6.345   3.898   2.949  0.7118 -0.3366 -1.7945
18559TIP3    H277093   6.442   3.974   3.036 -1.0559 -0.7274  0.6090
18560TIP3   OH277094   5.853   3.176  13.133 -0.2715 -0.0483  0.0551
18560TIP3    H177095   5.871   3.097  13.083 -2.0746  0.7135 -1.9453
18560TIP3    H277096   5.788   3.149  13.197  1.4290 -0.8326  1.5454
18561TIP3   OH277097   1.990   3.726   2.175  0.3321 -0.1219  0.1857
18561TIP3    H177098   1.956   3.673   2.248  0.8446 -1.3613 -0.4429
18561TIP3    H277099   2.051   3.668   2.130  0.1252  0.6662 -1.1613
18562TIP3   OH277100   3.993   3.920   3.068  0.1630  0.3431 -0.3762
18562TIP3    H177101   4.034   4.005   3.085  0.0977  0.6054 -1.4550
18562TIP3    H277102   4.007   3.871   3.148 -0.0645  1.4710  0.3844
18563TIP3   OH277103   6.633   2.764   2.070 -0.1822 -0.1399  0.1021
18563TIP3    H177104   6.692   2.801   2.135  0.0256  0.8123 -0.5979
18563TIP3    H277105   6.596   2.841   2.025 -0.5173 -0.7679 -0.7213
18564TIP3   OH277106   1.103   1.913  17.095 -0.0069 -0.1527  0.0763
18564TIP3    H177107   1.157   1.946  17.168 -0.3947  0.7493 -0.0335
18564TIP3    H277108   1.027   1.971  17.093 -1.2038 -1.6472  0.4750
18565TIP3   OH277109   3.001   6.654   2.432 -0.3593  0.0756 -0.2790
18565TIP3    H177110   3.071   6.622   2.375 -0.3030  0.2200 -0.2912
18565TIP3    H277111   3.039   6.650   2.520 -0.4665 -0.2042 -0.2425
18566TIP3   OH277112   0.403   5.301  13.752 -0.3868  0.0059  0.0987
18566TIP3    H177113   0.473   5.344  13.703  0.5048 -2.0137 -0.5406
18566TIP3    H277114   0.336   5.368  13.764  1.3402  1.8255  0.1101
18567TIP3   OH277115   4.149   5.348  10.619  0.0874  0.0210 -0.2329
18567TIP3    H177116   4.130   5.255  10.629  0.4301 -0.1350 -0.9649
18567TIP3    H277117   4.183   5.356  10.529 -0.0109  0.8589 -0.2010
18568TIP3   OH277118   2.360   5.833  13.585 -0.3233 -0.1720  0.1366
18568TIP3    H177119   2.447   5.802  13.611 -0.1438  0.3601  0.1904
18568TIP3    H277120   2.374   5.925  13.564 -0.7276 -0.2684 -0.5711
18569TIP3   OH277121   1.091   5.949  16.255  0.2772  0.4870  0.4288
18569TIP3    H177122   1.126   5.911  16.336 -0.4043 -0.3498  0.3441
18569TIP3    H277123   1.080   6.042  16.276  0.1638  0.2931  1.2842
18570TIP3   OH277124   2.279   5.816  16.086  0.9507  0.0045  0.4968
18570TIP3    H177125   2.337   5.745  16.113  2.0413  0.9846  0.7958
18570TIP3    H277126   2.324   5.858  16.013 -0.2901 -0.3686 -0.5447
18571TIP3   OH277127   6.602   0.587  15.493  0.7991  0.3939 -0.4119
18571TIP3    H177128   6.687   0.543  15.491 -0.0905 -1.3618 -1.3575
18571TIP3    H277129   6.544   0.531  15.441 -0.3961  2.7317 -1.7543
18572TIP3   OH277130   5.479   3.835   1.867  0.3605 -0.3472  0.6408
18572TIP3    H177131   5.571   3.809   1.863  0.0969 -1.1691 -2.0271
18572TIP3    H277132   5.471   3.904   1.800 -1.3185 -1.6867 -0.6198
18573TIP3   OH277133   0.987   4.507   1.525 -0.0564 -0.2635 -0.4652
18573TIP3    H177134   0.917   4.515   1.459  0.2781 -1.2569 -0.9546
18573TIP3    H277135   0.993   4.595   1.563 -0.1789  0.3838 -1.8507
18574TIP3   OH277136   3.567   5.095  16.441  0.0946 -0.5228 -0.7147
18574TIP3    H177137   3.594   5.121  16.352  0.1001 -0.7501 -0.7790
18574TIP3    H277138   3.527   5.009  16.430 -2.4828  0.5874 -0.9514
18575TIP3   OH277139   1.291   4.214  15.788  0.3897 -0.1769 -0.1064
18575TIP3    H177140   1.269   4.199  15.696  3.3086 -1.5273 -0.6827
18575TIP3    H277141   1.254   4.139  15.834  2.1851 -1.5620 -0.8131
18576TIP3   OH277142   5.966   3.794  15.603 -0.2957  0.1339 -0.3235
18576TIP3    H177143   5.924   3.734  15.542 -0.6213 -1.0279  0.9913
18576TIP3    H277144   6.060   3.784  15.587 -0.3760 -0.2461 -0.5470
18577TIP3   OH277145   0.418   2.795  14.596  0.3245 -0.9385  0.1993
18577TIP3    H177146   0.483   2.837  14.539 -1.2713  0.9198 -0.3842
18577TIP3    H277147   0.449   2.813  14.685  0.1597  0.8247 -0.0544
18578TIP3   OH277148   3.897   5.298  13.092 -0.0891 -0.6579  0.3439
18578TIP3    H177149   3.886   5.361  13.163 -0.9529 -0.8514  0.3859
18578TIP3    H277150   3.814   5.251  13.088  0.5537 -1.8336  0.3408
18579TIP3   OH277151   1.015   0.721   6.407 -0.0409  0.4931  0.5950
18579TIP3    H177152   1.032   0.751   6.496  0.8050 -0.6004  0.8126
18579TIP3    H277153   0.958   0.789   6.370 -0.7487  0.7461  2.0854
18580TIP3   OH277154   1.101   0.972  11.014  0.2077 -0.0616 -0.1461
18580TIP3    H177155   1.163   0.902  10.994  1.2165 -0.4498  3.5998
18580TIP3    H277156   1.024   0.927  11.048 -0.6080  0.5750 -1.1011
18581TIP3   OH277157   1.642   2.667  11.394  0.0909  0.3666  0.4124
18581TIP3    H177158   1.680   2.582  11.418  1.1368  0.7989  0.3582
18581TIP3    H277159   1.548   2.652  11.395  0.2337 -0.6369  1.0151
18582TIP3   OH277160   4.427   0.353  12.497 -0.4098 -0.0969  0.0233
18582TIP3    H177161   4.511   0.336  12.540 -1.0344 -1.3328  0.8324
18582TIP3    H277162   4.398   0.437  12.535  0.0747 -0.0733  0.3568
18583TIP3   OH277163   2.212   3.059  11.197  0.1599 -0.0657 -0.2377
18583TIP3    H177164   2.138   3.087  11.142  0.5853  0.2443 -0.6584
18583TIP3    H277165   2.289   3.096  11.154  0.5060  0.1320  0.5464
18584TIP3   OH277166   1.905   5.374   4.712  0.3566  0.3892 -0.5195
18584TIP3    H177167   1.884   5.281   4.701 -1.8946  0.8620 -0.7346
18584TIP3    H277168   1.889   5.391   4.805 -0.9403  0.8900 -0.8066
18585TIP3   OH277169   5.227   2.797   3.070  0.2779  0.1033 -0.0118
18585TIP3    H177170   5.314   2.786   3.032 -0.1612 -0.4108 -0.8776
18585TIP3    H277171   5.205   2.888   3.052  0.4326  0.1011 -0.2153
18586TIP3   OH277172   5.041   6.486  13.672  0.3208 -0.0911  0.2358
18586TIP3    H177173   4.956   6.469  13.629  0.0894  0.9811  0.2331
18586TIP3    H277174   5.049   6.581  13.671  2.0784 -0.2170 -0.8125
18587TIP3   OH277175   4.629   6.513   4.542 -0.2066  0.4050 -0.7981
18587TIP3    H177176   4.664   6.424   4.541  0.0608  0.5107 -1.3068
18587TIP3    H277177   4.694   6.563   4.591 -1.0944  0.0403  0.8191
18588TIP3   OH277178   5.188   0.212   5.616  0.4038  0.3348 -0.0878
18588TIP3    H177179   5.109   0.160   5.630 -0.4175  1.7455  0.6725
18588TIP3    H277180   5.204   0.256   5.699  1.7020  0.4861 -0.3917
18589TIP3   OH277181   5.518   4.342   6.745 -0.1863  0.1029 -0.2143
18589TIP3    H177182   5.427   4.366   6.725 -0.0396  1.1981  0.3843
18589TIP3    H277183   5.560   4.424   6.768  0.8135 -0.4876  0.1091
18590TIP3   OH277184   2.119   5.002  13.737  1.0501 -0.4211  0.1748
18590TIP3    H177185   2.079   5.068  13.681 -0.8038 -1.1697  0.5314
18590TIP3    H277186   2.171   5.051  13.799 -0.5412  0.7737  0.6289
18591TIP3   OH277187   0.778   2.874  16.350 -0.1556  0.1773 -0.2633
18591TIP3    H177188   0.829   2.894  16.429  0.4547  1.4663 -0.9568
18591TIP3    H277189   0.824   2.918  16.280 -0.5986 -1.0918 -1.3986
18592TIP3   OH277190   3.506   5.348  13.469  0.3030  0.0929  0.2657
18592TIP3    H177191   3.563   5.285  13.513 -0.5619 -0.8309  0.0884
18592TIP3    H277192   3.417   5.318  13.488 -0.1005  0.3430 -1.1514
18593TIP3   OH277193   5.003   6.398   5.584 -0.1937 -0.4803 -0.1985
18593TIP3    H177194   5.079   6.398   5.525  0.0209  2.7213 -0.0733
18593TIP3    H277195   4.929   6.415   5.526 -0.3808 -0.2862  0.0980
18594TIP3   OH277196   4.345   6.403  13.678  0.3243 -0.1118  0.5604
18594TIP3    H177197   4.282   6.449  13.623 -1.1396 -0.2061  2.0793
18594TIP3    H277198   4.429   6.445  13.659 -0.7228  2.2650  0.8719
18595TIP3   OH277199   4.157   1.188   5.121 -0.2958 -0.1859 -0.5116
18595TIP3    H177200   4.096   1.260   5.140  2.1117  1.6946  0.6584
18595TIP3    H277201   4.205   1.219   5.044  0.7051 -0.5825 -0.0500
18596TIP3   OH277202   1.974   6.624   0.628 -0.1405 -0.5707 -0.2993
18596TIP3    H177203   1.997   6.605   0.537  0.0841 -2.2408  0.0575
18596TIP3    H277204   2.007   6.548   0.677 -0.0803  0.3835  1.2066
18597TIP3   OH277205   2.649   5.609   2.601 -0.1796 -0.5060 -0.3190
18597TIP3    H177206   2.708   5.628   2.674 -0.5892 -1.0682  0.1616
18597TIP3    H277207   2.564   5.593   2.642 -0.2404 -1.6097 -0.8558
18598TIP3   OH277208   1.895   3.684  14.645 -0.5293 -0.1912 -0.0940
18598TIP3    H177209   1.819   3.667  14.700 -0.4265 -0.3588 -0.0024
18598TIP3    H277210   1.951   3.608  14.657  0.1810  0.4411  0.7313
18599TIP3   OH277211   5.217   1.610   0.748 -0.8276  0.3638  0.6193
18599TIP3    H177212   5.130   1.650   0.749 -0.7330  0.6547 -0.7521
18599TIP3    H277213   5.275   1.678   0.782 -0.9363  0.7351  0.0815
18600TIP3   OH277214   0.687   3.814   5.340  0.5398  0.2101  0.7913
18600TIP3    H177215   0.610   3.801   5.395  0.3709 -0.7144  0.3365
18600TIP3    H277216   0.760   3.813   5.402  0.2103  1.0289  1.2170
18601TIP3   OH277217   0.195   3.604  11.664 -0.4223 -0.3584  0.8215
18601TIP3    H177218   0.223   3.559  11.584 -3.3933 -1.1466  0.1346
18601TIP3    H277219   0.274   3.649  11.694  1.5155 -2.2935 -0.9895
18602TIP3   OH277220   0.042   6.384   4.035  0.0003 -0.8515  0.1043
18602TIP3    H177221   0.115   6.393   3.974 -0.2197 -0.9869 -0.1809
18602TIP3    H277222   0.083   6.362   4.119  0.4654  1.3685  0.5081
18603TIP3   OH277223   4.771   5.611  14.185 -0.4462 -0.3769 -1.1307
18603TIP3    H177224   4.734   5.696  14.209 -1.2324 -1.3289  1.3302
18603TIP3    H277225   4.852   5.633  14.139 -1.0528  1.6970 -1.3143
18604TIP3   OH277226   1.759   2.445  16.764 -0.0798 -0.0514  0.1532
18604TIP3    H177227   1.840   2.394  16.770  0.6539  1.1277  0.4479
18604TIP3    H277228   1.782   2.532  16.797 -1.3421  0.4506 -0.2237
18605TIP3   OH277229   5.969   6.465  12.603 -0.0121  0.7268  0.4782
18605TIP3    H177230   5.968   6.373  12.573 -0.9008  1.3826 -1.7373
18605TIP3    H277231   5.908   6.467  12.676 -0.7213 -0.2804 -0.0609
18606TIP3   OH277232   4.620   3.471  13.751  0.4648 -0.0238  0.1060
18606TIP3    H177233   4.570   3.545  13.784 -0.5770 -0.7431  0.2119
18606TIP3    H277234   4.638   3.491  13.659 -0.6371 -0.0593 -0.1211
18607TIP3   OH277235   1.219   6.062  13.213 -0.9545  0.0784 -1.1310
18607TIP3    H177236   1.260   6.047  13.128 -1.3636 -0.7059 -1.1899
18607TIP3    H277237   1.148   6.124  13.196  0.7741  2.2904 -0.8719
18608TIP3   OH277238   3.355   5.898   4.359 -0.7283 -0.1182 -0.1073
18608TIP3    H177239   3.410   5.828   4.325 -0.3552  0.3690 -0.5175
18608TIP3    H277240   3.296   5.855   4.421  1.6307 -0.3260  2.1466
18609TIP3   OH277241   6.226   1.940   3.185 -0.1886 -0.3348 -0.2936
18609TIP3    H177242   6.297   1.916   3.126  0.9472 -0.4868  1.0621
18609TIP3    H277243   6.151   1.955   3.128  0.7536 -0.8150 -1.7238
18610TIP3   OH277244   6.509   6.760  15.181 -0.0573 -0.3206  0.0729
18610TIP3    H177245   6.574   6.693  15.158  0.6661  0.4274 -0.1251
18610TIP3    H277246   6.493   6.747  15.274  2.5013  1.1972  0.8386
18611TIP3   OH277247   2.406   5.691  16.332 -0.0580  0.5126 -0.1193
18611TIP3    H177248   2.358   5.769  16.357 -1.4167 -0.3644  0.1043
18611TIP3    H277249   2.495   5.707  16.364 -0.3614  1.8525  0.1254
18612TIP3   OH277250   3.337   1.846   5.704 -0.1987 -0.1676  0.0786
18612TIP3    H177251   3.322   1.923   5.648  0.4383 -0.5571 -0.6489
18612TIP3    H277252   3.305   1.873   5.790 -0.6068  0.6756 -0.3207
18613TIP3   OH277253   5.729   6.467  15.725 -0.0555 -0.9633  0.0665
18613TIP3    H177254   5.661   6.404  15.705  1.0822 -1.5440 -2.3232
18613TIP3    H277255   5.794   6.417  15.775 -0.8232 -0.7014  1.3537
18614TIP3   OH277256   4.114   5.753  16.712  0.0974  0.2028 -0.1064
18614TIP3    H177257   4.029   5.718  16.686  0.4703 -0.4704 -0.4466
18614TIP3    H277258   4.167   5.747  16.632  0.5206  0.4481  0.1540
18615TIP3   OH277259   5.510   4.298  12.586 -0.4581 -0.0645 -0.1339
18615TIP3    H177260   5.509   4.375  12.643  0.9346  1.2012 -1.6798
18615TIP3    H277261   5.429   4.304  12.536 -0.5784  0.1578  0.0871
18616TIP3   OH277262   4.893   1.894  16.306 -1.2105 -0.1021 -0.5637
18616TIP3    H177263   4.936   1.979  16.318 -0.9336 -0.0983 -1.5431
18616TIP3    H277264   4.877   1.863  16.395 -1.2096  0.9232 -0.1953
18617TIP3   OH277265   0.505   0.661   4.734 -0.6757 -0.2224 -0.0464
18617TIP3    H177266   0.543   0.596   4.793 -1.8620 -0.6226  0.2860
18617TIP3    H277267   0.560   0.657   4.655 -0.6916 -1.5848 -0.0084
18618TIP3   OH277268   5.207   4.207   4.572  0.4778 -0.7562 -0.0504
18618TIP3    H177269   5.159   4.176   4.495 -0.3203  0.6946 -0.1759
18618TIP3    H277270   5.237   4.295   4.548 -1.0540  0.3569  1.7606
18619TIP3   OH277271   1.763   1.427   4.383 -0.4760 -0.0737 -0.0464
18619TIP3    H177272   1.828   1.495   4.401  0.1097 -0.7204  0.3071
18619TIP3    H277273   1.797   1.383   4.305  0.5021 -1.6007  1.1836
18620TIP3   OH277274   4.040   0.767  16.488  0.0938  0.7411 -0.4404
18620TIP3    H177275   4.085   0.846  16.456 -2.0687  2.4252  0.3996
18620TIP3    H277276   3.985   0.740  16.415  2.3149 -1.3318 -1.4742
18621TIP3   OH277277   4.436   4.542  16.157 -0.1741 -0.6558 -0.1296
18621TIP3    H177278   4.510   4.499  16.114  0.5633 -0.7737  1.1958
18621TIP3    H277279   4.458   4.635  16.155  0.0678 -0.6978  0.3346
18622TIP3   OH277280   2.213   3.590   0.001 -0.9115 -0.6644  0.3298
18622TIP3    H177281   2.158   3.613  -0.074 -0.6151  0.3180  0.4020
18622TIP3    H277282   2.151   3.569   0.071 -1.2149  0.8688  0.5478
18623TIP3   OH277283   6.446   0.373   1.509 -0.1995 -0.0277 -0.2461
18623TIP3    H177284   6.378   0.418   1.460  0.6797 -0.6115 -2.1034
18623TIP3    H277285   6.526   0.388   1.458  0.2532 -3.1073 -0.6126
18624TIP3   OH277286   4.846   1.715   5.496  0.4072  0.4845 -0.2224
18624TIP3    H177287   4.886   1.783   5.551 -1.3782  1.3974  0.0536
18624TIP3    H277288   4.771   1.685   5.548  1.0462 -1.5988 -0.4293
18625TIP3   OH277289   5.684   4.620  15.145  0.1203 -0.8119  0.5520
18625TIP3    H177290   5.675   4.595  15.237 -0.7591 -1.6587  0.2565
18625TIP3    H277291   5.765   4.670  15.141 -0.2969  0.0430  1.9597
18626TIP3   OH277292   5.544   1.706  14.298 -0.2889  0.8165  0.0437
18626TIP3    H177293   5.561   1.616  14.269  0.8853  0.6348  1.1876
18626TIP3    H277294   5.562   1.705  14.392  0.9716  2.5039 -0.1191
18627TIP3   OH277295   6.107   4.190  15.055  0.1813  1.3544 -0.0042
18627TIP3    H177296   6.112   4.192  15.151  1.1874 -1.2170  0.0751
18627TIP3    H277297   6.026   4.238  15.035 -2.1342 -1.1541  2.4345
18628TIP3   OH277298   1.777   3.955   6.460  0.5114  0.0168  0.4097
18628TIP3    H177299   1.796   4.015   6.388  1.3877  0.4196  0.9586
18628TIP3    H277300   1.784   4.010   6.539 -0.1645 -0.4739  0.8279
18629TIP3   OH277301   4.614   2.183  16.410  0.0230  0.0564 -0.0499
18629TIP3    H177302   4.596   2.114  16.345 -2.0512  0.9860 -0.5185
18629TIP3    H277303   4.555   2.164  16.483  0.7864  0.2774  0.6414
18630TIP3   OH277304   3.296   0.095   1.789 -0.4344  0.3049  0.0804
18630TIP3    H177305   3.338   0.020   1.831  0.2425  0.6544  0.0402
18630TIP3    H277306   3.230   0.056   1.732  0.0166 -0.2752 -0.0604
18631TIP3   OH277307   4.316   6.314   2.092  0.1549  0.2027 -0.2268
18631TIP3    H177308   4.329   6.220   2.075 -0.6023  0.6402 -4.2651
18631TIP3    H277309   4.235   6.317   2.143 -1.0989 -1.3550 -1.9619
18632TIP3   OH277310   0.189   1.953  14.489 -0.2342  0.1635 -0.1443
18632TIP3    H177311   0.097   1.946  14.463 -1.3047  0.5254  3.0875
18632TIP3    H277312   0.232   1.882  14.442 -2.3125 -0.4643 -1.2261
18633TIP3   OH277313   0.325   4.738  14.788 -0.4187 -0.5650  0.3044
18633TIP3    H177314   0.292   4.659  14.744  1.0580 -0.8132 -0.3985
18633TIP3    H277315   0.309   4.721  14.881 -1.6362 -0.9608  0.0448
18634TIP3   OH277316   2.554   3.260  12.325  0.5769  0.4195  0.3528
18634TIP3    H177317   2.512   3.311  12.255 -0.8659 -0.3606  0.6055
18634TIP3    H277318   2.541   3.312  12.404  0.7828  0.5484  0.3016
18635TIP3   OH277319   6.160   2.596   1.904  0.0351  0.6789  0.1607
18635TIP3    H177320   6.135   2.682   1.871 -2.5146 -0.6138 -1.6922
18635TIP3    H277321   6.248   2.581   1.869 -0.0446  1.9776 -0.6389
18636TIP3   OH277322   0.993   5.803  10.591  0.4647  0.1380 -0.0181
18636TIP3    H177323   1.060   5.741  10.565 -0.5522 -1.0167 -0.0030
18636TIP3    H277324   0.910   5.762  10.564 -0.1608  2.7764 -2.7108
18637TIP3   OH277325   3.337   4.085   1.545  0.2920  0.4445  0.3122
18637TIP3    H177326   3.267   4.109   1.484  0.1811 -0.8319 -0.1046
18637TIP3    H277327   3.291   4.060   1.625  0.2996  0.0621  0.1977
18638TIP3   OH277328   6.673   4.906   3.922 -0.3964 -0.2028  0.1586
18638TIP3    H177329   6.644   4.824   3.882  1.0028 -0.6077 -0.0866
18638TIP3    H277330   6.741   4.939   3.863  0.2744  0.2379  1.1468
18639TIP3   OH277331   1.609   0.160   4.907 -0.5215 -0.7919 -0.0595
18639TIP3    H177332   1.523   0.198   4.922 -0.7566 -0.4727 -1.9630
18639TIP3    H277333   1.598   0.066   4.921 -0.9832 -0.6615  0.4523
18640TIP3   OH277334   5.087   6.054  15.975  0.0891  0.5006  0.5658
18640TIP3    H177335   5.053   6.016  15.893 -0.6661  0.8360  0.7124
18640TIP3    H277336   5.009   6.085  16.020 -0.0414 -3.0832  3.2192
18641TIP3   OH277337   4.786   5.121  14.196 -0.0658  0.7558  0.5476
18641TIP3    H177338   4.859   5.156  14.248  2.6983 -1.5760 -1.4493
18641TIP3    H277339   4.795   5.026  14.201 -2.3916  0.3901 -0.6089
18642TIP3   OH277340   3.090   1.624   6.318  0.2508 -0.2877 -0.6864
18642TIP3    H177341   3.019   1.635   6.381  1.0303 -1.6436  0.4957
18642TIP3    H277342   3.094   1.529   6.304  0.4170 -0.0621 -2.4456
18643TIP3   OH277343   4.595   2.598   5.409 -0.5151  1.0021 -0.1389
18643TIP3    H177344   4.628   2.529   5.465 -1.1296 -0.6057 -1.6647
18643TIP3    H277345   4.501   2.582   5.403 -0.7921  2.4260  0.0659
18644TIP3   OH277346   0.722   2.403  16.913 -0.2676 -0.0521 -0.8211
18644TIP3    H177347   0.766   2.333  16.961 -1.2967 -0.4660 -0.4620
18644TIP3    H277348   0.794   2.454  16.875  0.5355 -0.3660  0.2184
18645TIP3   OH277349   2.651   1.181  16.020  0.0232  0.6335 -0.0166
18645TIP3    H177350   2.731   1.185  15.968  0.2703 -0.9096  0.1948
18645TIP3    H277351   2.647   1.266  16.065  1.0758  1.0585 -0.6896
18646TIP3   OH277352   0.410   1.352   4.017  0.1749  0.0477  0.0001
18646TIP3    H177353   0.404   1.348   4.113  1.1215 -2.5733  0.0516
18646TIP3    H277354   0.332   1.400   3.990 -0.3203  0.5270  2.0721
18647TIP3   OH277355   3.841   0.958   1.635  0.1849 -0.0849  0.1850
18647TIP3    H177356   3.897   0.908   1.695  2.0089 -0.1282 -1.4482
18647TIP3    H277357   3.865   1.049   1.650 -2.2591  0.3403  2.2796
18648TIP3   OH277358   3.497   6.005  14.028  0.7202  0.5494  0.1810
18648TIP3    H177359   3.587   6.035  14.015  1.1185 -1.0947 -1.2604
18648TIP3    H277360   3.451   6.030  13.948  0.4461 -0.4723  0.0106
18649TIP3   OH277361   3.340   5.641   2.846 -0.6262 -0.2191 -0.0944
18649TIP3    H177362   3.380   5.657   2.761  0.7687 -1.1734  0.3584
18649TIP3    H277363   3.411   5.608   2.901 -1.5497  0.1163  1.3789
18650TIP3   OH277364   1.113   4.529  15.182 -0.8539 -0.5776  0.3727
18650TIP3    H177365   1.187   4.531  15.121 -0.2776  1.8491  1.0543
18650TIP3    H277366   1.038   4.504  15.129  0.1355 -1.3986 -0.6964
18651TIP3   OH277367   3.480   1.479   5.787  0.2994 -0.2023 -0.5478
18651TIP3    H177368   3.474   1.554   5.728  0.4329 -0.2257 -0.5900
18651TIP3    H277369   3.530   1.511   5.862 -0.0004 -0.1277 -0.3778
18652TIP3   OH277370   3.320   6.794  12.023  0.1756 -0.3269  0.8661
18652TIP3    H177371   3.275   6.816  11.941  2.6997 -1.6444 -1.0023
18652TIP3    H277372   3.319   6.699  12.026  1.7003 -0.3484  1.4053
18653TIP3   OH277373   4.254   3.683   4.216  0.5338 -0.2493 -0.0484
18653TIP3    H177374   4.161   3.664   4.230  1.4233 -3.6874  2.8794
18653TIP3    H277375   4.269   3.662   4.124 -1.3340 -1.2110 -0.1982
18654TIP3   OH277376   2.131   6.118  12.131 -0.4441  0.9081  0.2101
18654TIP3    H177377   2.149   6.080  12.045  0.2212 -0.4841  0.9405
18654TIP3    H277378   2.039   6.099  12.147 -0.1374 -0.3698  0.5362
18655TIP3   OH277379   2.045   5.054  14.106  0.1545 -0.5419  0.5810
18655TIP3    H177380   2.033   5.119  14.175  1.0858 -0.5147  0.7205
18655TIP3    H277381   2.095   5.100  14.038 -0.0661 -0.8131  0.2293
18656TIP3   OH277382   2.848   3.715   0.366  0.4798  0.3839  0.0461
18656TIP3    H177383   2.921   3.682   0.313 -0.7981 -2.4302 -0.1551
18656TIP3    H277384   2.770   3.696   0.313 -0.6031  0.5411  1.5292
18657TIP3   OH277385   5.393   0.860  11.536  0.0453  0.3407  0.6955
18657TIP3    H177386   5.365   0.769  11.532  0.6609  0.1779 -2.2689
18657TIP3    H277387   5.463   0.866  11.471 -1.5390  3.3971 -0.9534
18658TIP3   OH277388   1.618   0.545  12.609  0.8931  0.6378  0.0972
18658TIP3    H177389   1.660   0.488  12.544  0.1215  0.4073 -0.2204
18658TIP3    H277390   1.584   0.618  12.557 -1.4368 -0.4935 -0.1106
18659TIP3   OH277391   5.951   1.429  17.040 -0.1051 -0.5260  0.2267
18659TIP3    H177392   5.901   1.448  16.961  0.3840  1.1141  0.2575
18659TIP3    H277393   6.003   1.508  17.054 -1.0291 -0.2772  2.8120
18660TIP3   OH277394   3.994   1.409   4.696  0.5397  0.1099  0.3907
18660TIP3    H177395   3.977   1.418   4.602  0.7941 -1.8076  0.1312
18660TIP3    H277396   3.916   1.367   4.730  0.7506  0.1398  0.9095
18661TIP3   OH277397   4.547   4.659  15.546 -0.1290 -0.0029 -0.1813
18661TIP3    H177398   4.550   4.591  15.479  1.6271 -0.6005  0.4317
18661TIP3    H277399   4.588   4.735  15.505  1.2278 -0.4605  0.2449
18662TIP3   OH277400   4.278   6.255  13.249  0.3313 -0.7577  0.3183
18662TIP3    H177401   4.184   6.235  13.255  0.1333  0.2856  1.0403
18662TIP3    H277402   4.290   6.331  13.306  0.9788  1.2949 -2.3266
18663TIP3   OH277403   6.446   2.539  12.744  0.1327 -0.3353 -0.1113
18663TIP3    H177404   6.487   2.510  12.826 -2.0185 -0.8041  0.8527
18663TIP3    H277405   6.499   2.498  12.675  1.3816 -0.7609  1.0600
18664TIP3   OH277406   3.456   1.274  16.055 -0.2344 -0.3888  0.0936
18664TIP3    H177407   3.481   1.186  16.029 -2.3951 -1.0462  0.0111
18664TIP3    H277408   3.438   1.320  15.973  1.5961  0.4297  0.0891
18665TIP3   OH277409   5.658   2.118  15.502 -0.3076 -0.1477 -0.4275
18665TIP3    H177410   5.628   2.051  15.441 -0.8210  1.7340 -2.3489
18665TIP3    H277411   5.749   2.095  15.521 -0.1440 -0.8111 -1.9014
18666TIP3   OH277412   4.567   4.166   4.800  0.1718  0.1012  0.7648
18666TIP3    H177413   4.555   4.185   4.707  1.0409 -0.9959  0.4052
18666TIP3    H277414   4.662   4.172   4.814  0.1312 -0.5267  1.3870
18667TIP3   OH277415   4.292   3.584  15.504  0.6211  0.0517  0.0970
18667TIP3    H177416   4.289   3.639  15.582  2.8016  0.3076  0.0783
18667TIP3    H277417   4.202   3.580  15.473  0.0742  1.8444  1.3247
18668TIP3   OH277418   2.953   6.655  14.677 -0.1135 -0.3210 -1.0111
18668TIP3    H177419   2.960   6.727  14.740 -1.4389 -1.4294  0.4550
18668TIP3    H277420   2.964   6.698  14.592 -0.0273  1.4851 -0.1491
18669TIP3   OH277421   1.982   0.405  15.405 -0.5270  0.1927 -0.3547
18669TIP3    H177422   1.982   0.354  15.324  0.7701  1.0884 -0.9438
18669TIP3    H277423   1.904   0.375  15.452 -0.6120 -1.2428 -1.3536
18670TIP3   OH277424   4.644   0.355   2.291 -0.4323  0.5803  0.4647
18670TIP3    H177425   4.637   0.316   2.378  1.4594 -0.0643  0.3675
18670TIP3    H277426   4.611   0.287   2.232  0.7583 -0.0324  0.4821
18671TIP3   OH277427   5.457   4.535   4.259  0.5438 -0.2482 -0.3951
18671TIP3    H177428   5.551   4.541   4.278  0.5495  0.9921 -0.7600
18671TIP3    H277429   5.452   4.518   4.165  0.3932 -0.5599 -0.3346
18672TIP3   OH277430   2.233   3.995  16.685 -0.5718 -0.8272  0.3914
18672TIP3    H177431   2.291   3.959  16.617  0.0049  0.8906 -0.0685
18672TIP3    H277432   2.145   3.985  16.649 -0.2265  0.7290 -0.9733
18673TIP3   OH277433   1.214   0.063  11.130 -0.0043  0.3920 -0.0441
18673TIP3    H177434   1.237   0.148  11.094  0.6331  0.1245 -0.2816
18673TIP3    H277435   1.174   0.016  11.057 -1.2201  0.7970  0.3244
18674TIP3   OH277436   2.950   5.132   4.598 -0.1502  0.2690  0.3628
18674TIP3    H177437   2.956   5.225   4.620  1.8132  0.8944 -2.2992
18674TIP3    H277438   2.984   5.087   4.675 -1.1801  1.6855  1.7227
18675TIP3   OH277439   4.304   4.578  16.599 -0.3403 -0.0812 -0.3167
18675TIP3    H177440   4.271   4.489  16.582 -0.2545 -0.1801  0.0265
18675TIP3    H277441   4.259   4.605  16.678 -1.3138  0.6776 -1.1107
18676TIP3   OH277442   2.421   4.052  16.002  0.5451  0.0871  0.0838
18676TIP3    H177443   2.369   4.001  15.939 -0.3075  0.3714  0.5458
18676TIP3    H277444   2.505   4.065  15.958  0.1228 -0.1174 -0.8086
18677TIP3   OH277445   2.577   0.980   0.342  0.1169 -0.0643  0.1447
18677TIP3    H177446   2.564   0.956   0.250  0.0995  0.0839  0.1068
18677TIP3    H277447   2.567   0.899   0.390  0.4661 -0.2080 -0.0182
18678TIP3   OH277448   4.464   5.827  11.028 -0.0764  0.5423 -0.1304
18678TIP3    H177449   4.555   5.807  11.051  0.7529  3.7717 -0.2116
18678TIP3    H277450   4.428   5.867  11.106 -0.9978  0.5855 -0.5670
18679TIP3   OH277451   3.721   4.612  16.237  0.1955  1.1332 -0.4153
18679TIP3    H177452   3.775   4.582  16.164  0.4594  1.2416 -0.2658
18679TIP3    H277453   3.784   4.637  16.305  0.1653  4.6602 -1.4939
18680TIP3   OH277454   1.502   6.098   5.554 -0.2870 -0.2107 -0.2927
18680TIP3    H177455   1.499   6.162   5.483  1.0567 -0.2993 -0.4607
18680TIP3    H277456   1.476   6.147   5.632 -2.3883 -0.2631 -0.9085
18681TIP3   OH277457   3.303   4.798   6.276 -0.1452 -0.0793  0.0105
18681TIP3    H177458   3.323   4.789   6.369  0.4589  1.4162  0.0424
18681TIP3    H277459   3.226   4.855   6.273 -0.3013 -0.3046 -0.4072
18682TIP3   OH277460   1.910   3.427   3.277 -0.0824  0.0504 -0.5233
18682TIP3    H177461   1.969   3.481   3.225 -0.0437 -0.6553 -1.2323
18682TIP3    H277462   1.962   3.400   3.352  0.8576 -1.4010 -1.6472
18683TIP3   OH277463   0.164   2.006  11.374  0.0566 -0.1244  0.0066
18683TIP3    H177464   0.168   2.082  11.433  0.7512 -1.1072  1.2694
18683TIP3    H277465   0.198   2.038  11.291  0.3437  0.9486  0.5194
18684TIP3   OH277466   1.106   1.503  15.730  0.1700 -0.3559 -0.2452
18684TIP3    H177467   1.200   1.516  15.737  0.0512  0.7435 -0.6416
18684TIP3    H277468   1.073   1.517  15.819  0.4772 -1.7309  0.1127
18685TIP3   OH277469   3.270   5.360   2.687 -0.0053 -0.0098 -0.5673
18685TIP3    H177470   3.330   5.325   2.752 -0.8544  0.2879  0.4062
18685TIP3    H277471   3.212   5.418   2.736  0.1057  1.2050 -1.7970
18686TIP3   OH277472   4.720   0.833  17.046 -0.0874 -0.1236 -0.0105
18686TIP3    H177473   4.724   0.779  16.967 -1.6799 -0.8492  0.3660
18686TIP3    H277474   4.754   0.918  17.019 -2.5474  0.3139 -2.1008
18687TIP3   OH277475   0.133   6.643  12.206  0.0585  0.2312 -0.8263
18687TIP3    H177476   0.162   6.561  12.246  2.6689  0.9894 -0.9423
18687TIP3    H277477   0.077   6.616  12.133  1.0021 -1.4737 -0.9730
18688TIP3   OH277478   5.262   2.481  11.925  0.0557 -0.4724  0.1170
18688TIP3    H177479   5.310   2.408  11.966 -0.0475 -0.2986  0.5603
18688TIP3    H277480   5.202   2.511  11.994 -0.2018 -0.2446 -0.2058
18689TIP3   OH277481   5.876   0.092  11.725  0.3685 -0.0027 -0.2817
18689TIP3    H177482   5.883   0.174  11.775  0.5722  0.2530 -0.7153
18689TIP3    H277483   5.947   0.099  11.660  0.6173 -0.6887 -0.0861
18690TIP3   OH277484   2.663   2.446   2.140  0.3705  0.0954 -0.1930
18690TIP3    H177485   2.674   2.407   2.053 -0.1561 -0.6918  0.0788
18690TIP3    H277486   2.681   2.374   2.201 -0.3412  0.3469  0.3262
18691TIP3   OH277487   3.002   2.302   4.914 -0.1444 -0.3591 -0.0118
18691TIP3    H177488   2.949   2.226   4.940 -1.7564  0.5746 -0.4469
18691TIP3    H277489   2.986   2.311   4.820  0.3167  0.3052 -0.0341
18692TIP3   OH277490   0.328   2.377  13.122  0.0105  0.0917  0.7331
18692TIP3    H177491   0.326   2.323  13.043  0.1476 -0.5630  1.1696
18692TIP3    H277492   0.362   2.319  13.190 -0.6416  0.4742  1.4015
18693TIP3   OH277493   5.420   0.468   1.755  0.0674 -0.1106 -0.4319
18693TIP3    H177494   5.343   0.481   1.699 -1.8339 -0.2232  2.0016
18693TIP3    H277495   5.454   0.383   1.728 -1.0170 -0.3475 -1.1547
18694TIP3   OH277496   1.305   5.106  11.262  0.0877 -0.0882  0.6353
18694TIP3    H177497   1.270   5.164  11.193 -0.1351 -0.0696  0.7648
18694TIP3    H277498   1.316   5.022  11.218 -0.9973 -0.3466  0.8246
18695TIP3   OH277499   3.874   5.767  15.821 -0.3340 -0.2793  0.0684
18695TIP3    H177500   3.832   5.770  15.736  0.9922  0.2659 -0.5948
18695TIP3    H277501   3.847   5.847  15.865  0.0617  0.1151 -0.3928
18696TIP3   OH277502   4.259   3.678  13.203  0.3051  0.4409 -0.0123
18696TIP3    H177503   4.337   3.623  13.213  0.6841  0.4832 -2.2686
18696TIP3    H277504   4.254   3.727  13.285  3.4810  1.5123 -0.3243
18697TIP3   OH277505   1.065   2.651  15.378  0.3689 -0.6205 -0.3879
18697TIP3    H177506   1.071   2.740  15.345  1.1223 -1.1450 -1.7264
18697TIP3    H277507   0.982   2.648  15.426  0.2713  0.7469 -0.4547
18698TIP3   OH277508   0.491   2.558  13.454 -0.2972  0.4427 -0.3317
18698TIP3    H177509   0.498   2.463  13.444  0.1221  0.3893  0.3792
18698TIP3    H277510   0.498   2.592  13.365 -0.4258 -0.1916 -0.5904
18699TIP3   OH277511   4.111   2.772  12.080 -0.4688  0.3170  0.3951
18699TIP3    H177512   4.035   2.729  12.119 -0.5266  1.3856  1.5369
18699TIP3    H277513   4.186   2.728  12.121 -0.4744 -0.1990 -0.1343
18700TIP3   OH277514   2.672   4.269  16.511  0.6466  0.1523  0.3143
18700TIP3    H177515   2.754   4.220  16.499  0.8235  0.5596 -0.2003
18700TIP3    H277516   2.697   4.342  16.568  1.1358  1.4220 -1.4388
18701TIP3   OH277517   0.601   3.160  14.538 -0.0417  0.0139 -0.6361
18701TIP3    H177518   0.617   3.252  14.561  0.5845 -0.1379 -0.4459
18701TIP3    H277519   0.511   3.143  14.568  0.9924 -0.4056  2.5347
18702TIP3   OH277520   0.557   5.229  15.185 -0.8028 -0.5052  0.0481
18702TIP3    H177521   0.563   5.176  15.105  0.4814  1.9768 -1.6245
18702TIP3    H277522   0.475   5.277  15.177 -0.2910  0.3501 -0.2180
18703TIP3   OH277523   5.140   0.203   1.321  0.2826 -0.2375  0.0714
18703TIP3    H177524   5.055   0.218   1.363 -0.1220 -0.0232 -0.7996
18703TIP3    H277525   5.179   0.131   1.370  0.4533  0.9357  1.7089
18704TIP3   OH277526   3.366   0.098  11.560  0.0709  0.0097 -0.0396
18704TIP3    H177527   3.362   0.005  11.583 -0.1666  0.1226  0.3824
18704TIP3    H277528   3.458   0.114  11.541  0.1241 -0.2958 -0.0383
18705TIP3   OH277529   3.246   6.185  15.083 -0.2962 -0.1670  0.3032
18705TIP3    H177530   3.170   6.242  15.071 -1.0117 -1.2144 -0.2635
18705TIP3    H277531   3.273   6.200  15.174 -2.0560 -0.8118  0.9717
18706TIP3   OH277532   1.624   3.294   0.672 -0.0173  0.4193 -0.6171
18706TIP3    H177533   1.690   3.227   0.690 -0.1018  0.3355 -0.6210
18706TIP3    H277534   1.590   3.318   0.758 -1.5319 -1.0893 -0.7386
18707TIP3   OH277535   3.643   0.927  12.759 -1.0182  0.2408 -0.1589
18707TIP3    H177536   3.564   0.900  12.807 -1.0087  2.2535  1.1436
18707TIP3    H277537   3.709   0.939  12.827  0.0752 -0.2743 -1.1097
18708TIP3   OH277538   1.206   4.380   1.504  0.2718  0.8886 -0.1172
18708TIP3    H177539   1.114   4.406   1.515 -0.0906 -0.1237 -0.6031
18708TIP3    H277540   1.250   4.412   1.583 -0.7824  0.1748  0.7811
18709TIP3   OH277541   1.245   1.225   4.140 -0.5725 -0.0052 -0.3374
18709TIP3    H177542   1.265   1.315   4.166 -0.7578 -0.2804  0.8125
18709TIP3    H277543   1.321   1.174   4.167 -1.4198 -0.5470  1.2005
18710TIP3   OH277544   2.316   5.399   5.792  0.3272  0.0796 -0.0546
18710TIP3    H177545   2.347   5.382   5.882  0.4848 -2.0423 -0.4649
18710TIP3    H277546   2.277   5.486   5.797 -0.0860 -0.1607  2.1949
18711TIP3   OH277547   0.905   6.673   2.526 -0.3992 -0.3183  0.7945
18711TIP3    H177548   0.910   6.763   2.494 -0.1055  0.0659  1.8856
18711TIP3    H277549   0.952   6.622   2.460 -2.7141 -0.0781 -1.1625
18712TIP3   OH277550   0.606   5.068  10.921 -0.3146  0.4754 -0.0327
18712TIP3    H177551   0.527   5.122  10.926  0.5863  1.7823  4.2811
18712TIP3    H277552   0.675   5.129  10.895 -0.2977 -0.1362 -1.4888
18713TIP3   OH277553   4.628   3.047  15.359  0.3009  0.2611  0.3905
18713TIP3    H177554   4.613   3.078  15.449  0.7830  1.3292  0.1211
18713TIP3    H277555   4.676   2.965  15.370 -2.1366 -1.1727  1.1531
18714TIP3   OH277556   4.967   2.588   0.800  0.2905  0.0233 -0.1178
18714TIP3    H177557   4.900   2.521   0.815  0.0216  0.0517 -1.1215
18714TIP3    H277558   4.977   2.631   0.885 -1.5707  0.5508 -0.1232
18715TIP3   OH277559   3.642   5.732   4.962 -0.0401  0.0979 -0.1670
18715TIP3    H177560   3.681   5.655   5.003 -1.5726 -0.4834  0.2806
18715TIP3    H277561   3.612   5.701   4.876  1.4303  0.8270 -0.9899
18716TIP3   OH277562   0.598   3.459   6.538  0.3002  0.6183 -0.8579
18716TIP3    H177563   0.567   3.488   6.452  0.6772  1.1514 -0.8202
18716TIP3    H277564   0.689   3.490   6.542  0.7640 -0.6847 -0.8578
18717TIP3   OH277565   1.138   5.745   1.905  0.5076  0.2845 -0.2519
18717TIP3    H177566   1.070   5.705   1.851 -0.3777 -0.2341  1.1912
18717TIP3    H277567   1.091   5.787   1.976  1.7042 -1.4069  1.6511
18718TIP3   OH277568   5.496   5.492   4.566  0.2079  0.0449 -0.3302
18718TIP3    H177569   5.468   5.413   4.612  1.2764  1.0920  2.2356
18718TIP3    H277570   5.454   5.484   4.480 -0.3551 -2.8992  0.1024
18719TIP3   OH277571   1.415   5.735   4.160 -0.6234  0.2848 -0.3314
18719TIP3    H177572   1.465   5.653   4.159  0.1759  0.7324 -2.4892
18719TIP3    H277573   1.377   5.741   4.073 -0.4412  2.3294 -0.3303
18720TIP3   OH277574   0.596   6.464   4.479 -0.2262  0.4436  0.3540
18720TIP3    H177575   0.521   6.523   4.471  0.4964  1.2407 -0.7592
18720TIP3    H277576   0.656   6.510   4.538  0.0336  0.4985  0.0478
18721TIP3   OH277577   2.170   6.000   6.868 -0.0505  0.4205  0.1143
18721TIP3    H177578   2.247   6.048   6.838  0.9076 -0.6725  0.7519
18721TIP3    H277579   2.131   5.965   6.788  0.0705  1.0198 -0.2139
18722TIP3   OH277580   1.414   4.779   4.482 -0.5682 -0.3719 -0.4063
18722TIP3    H177581   1.488   4.763   4.424  0.9793  1.3278  0.9775
18722TIP3    H277582   1.349   4.713   4.457  0.8153 -0.9966 -2.6430
18723TIP3   OH277583   1.718   3.594   5.797  0.2115  0.1121  0.3084
18723TIP3    H177584   1.730   3.541   5.875  1.8461 -1.9339 -1.2072
18723TIP3    H277585   1.637   3.560   5.757 -0.5496  1.0658  0.9913
18724TIP3   OH277586   0.403   4.953   5.851 -0.4064 -0.5006 -0.2118
18724TIP3    H177587   0.383   4.939   5.943  0.4400 -0.7215 -0.0546
18724TIP3    H277588   0.414   5.048   5.843  1.0806 -0.6061  0.2640
18725TIP3   OH277589   3.592   1.142   3.993  0.4092 -0.1161 -0.3159
18725TIP3    H177590   3.596   1.235   4.015  1.4317 -0.3918  0.7390
18725TIP3    H277591   3.637   1.135   3.909  0.3168  0.3438 -0.4045
18726TIP3   OH277592   6.149   3.995   1.487  0.5748  0.2250 -0.4998
18726TIP3    H177593   6.172   3.910   1.448  1.1257 -0.3268  0.9437
18726TIP3    H277594   6.225   4.018   1.540 -0.5524  0.4045  1.1022
18727TIP3   OH277595   3.727   6.011  15.920 -0.1294 -0.2511 -0.7154
18727TIP3    H177596   3.748   6.010  16.014 -0.3030  0.5856 -0.6562
18727TIP3    H277597   3.632   6.004  15.917 -0.1328 -0.1607 -0.8232
18728TIP3   OH277598   4.908   3.656  13.268  0.0797  0.0842 -0.1755
18728TIP3    H177599   4.892   3.703  13.350 -0.8013  1.0807 -0.9014
18728TIP3    H277600   5.003   3.642  13.267  0.0321 -0.4914  1.2921
18729TIP3   OH277601   6.214   2.835   3.046 -0.7551 -0.3685  0.1624
18729TIP3    H177602   6.131   2.807   3.009  0.0139 -1.9481 -0.4911
18729TIP3    H277603   6.219   2.929   3.029 -1.4687 -0.6305 -1.6881
18730TIP3   OH277604   2.129   6.271   5.421 -1.1389 -0.0880 -0.1693
18730TIP3    H177605   2.174   6.332   5.479 -0.6432  0.6366 -1.2834
18730TIP3    H277606   2.087   6.208   5.480  1.7713 -1.1478  0.9406
18731TIP3   OH277607   6.217   1.958   2.454 -0.3009 -0.0911  0.1062
18731TIP3    H177608   6.251   1.892   2.515  0.8067  0.4822  0.1477
18731TIP3    H277609   6.122   1.948   2.458 -0.2076 -0.7566  1.1513
18732TIP3   OH277610   5.905   4.043  12.695 -0.5692 -0.2129  0.3133
18732TIP3    H177611   5.961   4.044  12.772 -0.5045  1.3252  0.2582
18732TIP3    H277612   5.817   4.062  12.729 -0.6671 -0.2492  0.0858
18733TIP3   OH277613   4.758   6.753   4.642  0.1090 -0.1299 -0.5700
18733TIP3    H177614   4.743   6.844   4.617 -0.1468  0.0061  0.0535
18733TIP3    H277615   4.852   6.747   4.658  0.2475 -0.1785 -1.3971
18734TIP3   OH277616   4.341   0.842   1.265 -0.3200 -0.4875  0.3890
18734TIP3    H177617   4.406   0.772   1.273 -1.6809 -1.6206  2.3577
18734TIP3    H277618   4.368   0.906   1.331  0.6649  0.7188 -1.1047
18735TIP3   OH277619   6.606   0.932  13.140  0.2705 -0.1652  0.0534
18735TIP3    H177620   6.568   1.009  13.183 -0.0412 -0.7114  0.7693
18735TIP3    H277621   6.578   0.858  13.193  2.1540 -0.6085  0.4985
18736TIP3   OH277622   5.072   4.404   3.032  0.1820 -0.1926 -0.3098
18736TIP3    H177623   4.993   4.432   3.078  0.3961  0.6541 -0.4477
18736TIP3    H277624   5.078   4.461   2.956  1.9557  1.0844  0.7170
18737TIP3   OH277625   0.579   4.047   2.358  0.1819  0.9386  0.4980
18737TIP3    H177626   0.486   4.026   2.353  0.3502  0.0386  0.8788
18737TIP3    H277627   0.620   3.990   2.292  0.5362  0.7985  0.8311
18738TIP3   OH277628   4.627   1.917  12.246  0.2371 -0.3402  0.0634
18738TIP3    H177629   4.554   1.857  12.258  0.0843 -0.1580  0.0439
18738TIP3    H277630   4.692   1.866  12.199 -0.1539 -0.2902 -0.5356
18739TIP3   OH277631   3.340   3.386   0.200  0.0621  0.3428  0.1127
18739TIP3    H177632   3.257   3.347   0.228 -0.0005 -0.2169 -0.8238
18739TIP3    H277633   3.406   3.346   0.257 -0.1633 -0.1550  0.0273
18740TIP3   OH277634   3.142   4.029   1.359 -0.4013 -0.0126  0.8921
18740TIP3    H177635   3.075   4.020   1.292  1.0325  0.0078 -0.6087
18740TIP3    H277636   3.163   3.939   1.384 -2.6672 -0.0191  3.2317
18741TIP3   OH277637   4.505   2.086  17.088  0.1781  0.1109  0.4793
18741TIP3    H177638   4.590   2.053  17.117  0.6311  0.7006 -0.1608
18741TIP3    H277639   4.453   2.089  17.168  0.5821 -0.7581  0.7949
18742TIP3   OH277640   1.852   4.498   4.395 -0.4985 -0.0467 -0.5485
18742TIP3    H177641   1.922   4.434   4.395 -0.8945 -0.4878 -0.7630
18742TIP3    H277642   1.871   4.554   4.470 -0.5875 -0.9104  0.1380
18743TIP3   OH277643   2.914   0.606   2.098 -0.2743  0.3513  0.2335
18743TIP3    H177644   2.927   0.521   2.055  3.4342 -0.2101  1.9878
18743TIP3    H277645   2.928   0.670   2.029 -0.1845 -0.4766 -0.5422
18744TIP3   OH277646   4.496   1.607   3.726  0.2395 -0.5746 -0.2130
18744TIP3    H177647   4.542   1.549   3.666  1.7648 -0.8003  1.0975
18744TIP3    H277648   4.553   1.683   3.735 -1.0289  0.4823 -0.7457
18745TIP3   OH277649   4.422   3.516  11.944  0.3288 -0.1661 -0.4195
18745TIP3    H177650   4.458   3.579  12.006  2.8415 -1.0105 -0.8893
18745TIP3    H277651   4.421   3.433  11.992 -3.1219  0.0970  0.2614
18746TIP3   OH277652   5.797   1.350   0.838  0.3442  0.8518 -0.1182
18746TIP3    H177653   5.741   1.427   0.837 -2.2090 -0.6850  3.4183
18746TIP3    H277654   5.882   1.383   0.869 -0.0939  2.5065 -0.5987
18747TIP3   OH277655   5.206   1.195   3.871 -0.0264  0.1999  0.3798
18747TIP3    H177656   5.257   1.117   3.892 -2.8918 -1.6717  1.0498
18747TIP3    H277657   5.205   1.199   3.775  0.6585 -0.1933  0.3538
18748TIP3   OH277658   3.041   5.930   2.492 -0.1649 -0.5077 -0.0123
18748TIP3    H177659   3.113   5.916   2.429  1.4741  0.0940  1.6377
18748TIP3    H277660   3.007   6.017   2.470 -0.8983 -1.0840 -1.2549
18749TIP3   OH277661   4.140   4.161  15.940 -0.7672  0.6020  0.2314
18749TIP3    H177662   4.132   4.255  15.926 -1.1359  0.5907  0.3566
18749TIP3    H277663   4.188   4.153  16.022  0.0582  0.6731 -0.2272
18750TIP3   OH277664   6.173   2.160   0.398 -0.0994 -0.0287  0.0664
18750TIP3    H177665   6.170   2.095   0.469  0.2544 -1.2244 -0.9808
18750TIP3    H277666   6.238   2.126   0.337 -0.0434  1.2301 -0.6111
18751TIP3   OH277667   2.227   2.536   0.484  0.4500 -0.7156  0.5896
18751TIP3    H177668   2.244   2.628   0.463 -0.5320 -0.1821  1.9660
18751TIP3    H277669   2.160   2.540   0.552 -0.9153 -2.5020 -0.5716
18752TIP3   OH277670   0.799   5.715  11.519 -0.1649  0.8326  0.0302
18752TIP3    H177671   0.835   5.638  11.476  1.3839  1.3227  0.4109
18752TIP3    H277672   0.704   5.699  11.521  0.1508 -1.1714  0.3723
18753TIP3   OH277673   2.496   2.786  14.647 -0.0689 -0.0245 -0.0124
18753TIP3    H177674   2.557   2.845  14.692 -1.4683  0.6303  1.1318
18753TIP3    H277675   2.552   2.725  14.599  1.5449 -0.4068  2.1723
18754TIP3   OH277676   0.860   2.412   0.523  0.2303 -0.6625 -0.3810
18754TIP3    H177677   0.801   2.382   0.454 -1.4057 -0.3664  0.8343
18754TIP3    H277678   0.869   2.506   0.507 -1.0270 -0.3871  0.4048
18755TIP3   OH277679   0.475   3.990   4.930 -0.0661  0.6016 -0.2931
18755TIP3    H177680   0.443   4.074   4.963 -0.2462  0.5230 -0.2705
18755TIP3    H277681   0.435   3.982   4.843  1.0386  1.1945 -0.8903
18756TIP3   OH277682   3.502   4.507  15.883  0.0639 -0.2440  0.7247
18756TIP3    H177683   3.494   4.576  15.817  0.2104 -1.7745 -0.9543
18756TIP3    H277684   3.483   4.426  15.836 -1.2961 -1.2736  2.9104
18757TIP3   OH277685   5.298   2.970  12.976 -0.2902 -0.2494  0.0617
18757TIP3    H177686   5.221   2.964  12.919  0.1269 -1.5744 -0.3882
18757TIP3    H277687   5.271   3.032  13.044 -1.5275 -0.1967 -0.4349
18758TIP3   OH277688   0.329   3.214   0.716  0.5066 -0.2392 -0.2259
18758TIP3    H177689   0.274   3.284   0.681  0.9894 -0.1826 -0.8794
18758TIP3    H277690   0.283   3.185   0.794 -0.9034 -0.7662 -1.2187
18759TIP3   OH277691   0.961   0.672  13.005 -0.0334 -0.2158  0.3066
18759TIP3    H177692   0.918   0.598  12.963 -3.1976  1.8205 -0.3889
18759TIP3    H277693   0.905   0.695  13.079 -0.0531  2.3474 -0.3849
18760TIP3   OH277694   0.287   0.882   1.801 -0.0616 -0.0087 -0.1130
18760TIP3    H177695   0.348   0.922   1.740  0.3763  0.6784  0.7485
18760TIP3    H277696   0.220   0.949   1.815  0.4377  0.2762  0.9996
18761TIP3   OH277697   2.926   6.643   4.880  0.3372  0.1940 -0.2421
18761TIP3    H177698   2.889   6.717   4.927  0.9452  0.0280  0.5173
18761TIP3    H277699   3.020   6.659   4.878  0.7204 -1.4743  1.6546
18762TIP3   OH277700   3.944   1.972   4.366  0.4589 -0.1582  0.1909
18762TIP3    H177701   3.849   1.972   4.354  0.5379  0.4933 -0.5296
18762TIP3    H277702   3.958   2.013   4.451 -0.1205 -4.7917  2.8150
18763TIP3   OH277703   4.514   0.556  14.564 -0.3793  0.6237  0.0457
18763TIP3    H177704   4.512   0.622  14.495  1.2605 -0.1903 -0.8493
18763TIP3    H277705   4.606   0.532  14.571 -1.0269 -2.5073 -0.6273
18764TIP3   OH277706   5.920   1.479   6.183 -0.1525  0.2000  0.3643
18764TIP3    H177707   5.842   1.512   6.138  0.1022  0.0208 -0.2189
18764TIP3    H277708   5.898   1.485   6.276 -0.4067  1.2895  0.2497
18765TIP3   OH277709   0.071   6.605  16.650  0.3267 -0.0807 -0.3324
18765TIP3    H177710   0.107   6.531  16.601 -2.1318 -1.7285  0.1395
18765TIP3    H277711   0.093   6.586  16.741 -0.4820 -0.4185 -0.1872
18766TIP3   OH277712   3.963   3.807  16.448 -0.3680 -0.2359 -0.0520
18766TIP3    H177713   3.994   3.894  16.424  0.5772 -0.3480  0.7047
18766TIP3    H277714   3.908   3.780  16.374 -1.0313  1.1592 -0.1028
18767TIP3   OH277715   2.861   3.671   1.924  0.3157  0.4542 -0.5572
18767TIP3    H177716   2.842   3.581   1.950  1.9206  0.0885 -0.5153
18767TIP3    H277717   2.938   3.695   1.977  0.9635  1.2341 -1.7972
18768TIP3   OH277718   6.308   3.053   4.121 -0.0334  0.2529 -0.2634
18768TIP3    H177719   6.353   3.130   4.158  0.8360 -0.1634 -0.4314
18768TIP3    H277720   6.376   3.006   4.073 -0.4323 -0.8987  0.2585
18769TIP3   OH277721   1.245   3.026  14.516 -0.7177  0.2589 -0.9312
18769TIP3    H177722   1.307   3.032  14.589 -1.5997 -0.7875 -0.0722
18769TIP3    H277723   1.257   3.108  14.468 -2.2512  2.4651  2.1026
18770TIP3   OH277724   2.081   5.725   6.269  0.1689 -0.4124  0.8227
18770TIP3    H177725   2.026   5.803   6.281  0.6810  0.6952 -2.8804
18770TIP3    H277726   2.152   5.736   6.333  0.6161  2.6168 -0.0443
18771TIP3   OH277727   4.915   1.963   0.717 -0.0854 -0.6169  0.0316
18771TIP3    H177728   4.912   1.900   0.789 -0.0011  0.6920  1.2113
18771TIP3    H277729   5.002   2.004   0.725  0.2360 -0.9719 -1.2942
18772TIP3   OH277730   3.925   4.424   3.629 -0.3043  0.2556  0.3552
18772TIP3    H177731   3.956   4.404   3.541  1.3041 -2.6067  1.4400
18772TIP3    H277732   3.921   4.519   3.632 -0.3751  0.4494 -2.7560
18773TIP3   OH277733   5.520   2.754   3.774  0.1013  0.2215 -0.2537
18773TIP3    H177734   5.442   2.699   3.764 -0.1982  0.3192  1.2082
18773TIP3    H277735   5.522   2.808   3.695 -0.6955 -0.5321 -0.8100
18774TIP3   OH277736   3.432   6.396  13.195  0.6534 -0.0524 -0.0146
18774TIP3    H177737   3.496   6.325  13.192 -0.0114 -0.7269  0.8421
18774TIP3    H277738   3.361   6.366  13.138  0.3762 -0.0905  0.3416
18775TIP3   OH277739   1.045   4.882   0.656 -0.2375  0.4839  0.9052
18775TIP3    H177740   1.013   4.931   0.580 -0.2479  0.8342  1.1326
18775TIP3    H277741   1.136   4.861   0.633 -0.4623 -0.0547  0.4858
18776TIP3   OH277742   0.158   4.787  11.516  0.3334 -0.1708 -0.3113
18776TIP3    H177743   0.129   4.736  11.592  0.1502 -0.4734 -0.5838
18776TIP3    H277744   0.217   4.853  11.553  0.8715 -0.8096  0.0087
18777TIP3   OH277745   0.307   0.920   0.435  0.4672  0.0986  0.1017
18777TIP3    H177746   0.334   0.929   0.526 -0.2286  2.1964  0.1686
18777TIP3    H277747   0.213   0.907   0.438  0.7835 -2.7451 -0.2719
18778TIP3   OH277748   5.936   5.293   0.125  0.2782  0.6565 -0.2079
18778TIP3    H177749   5.918   5.362   0.061  0.0063 -1.1676 -2.2068
18778TIP3    H277750   5.862   5.233   0.117  1.7790 -1.2253 -0.4454
18779TIP3   OH277751   0.884   6.004  13.637 -0.1409  0.2665 -0.1415
18779TIP3    H177752   0.802   5.993  13.684 -0.6106  2.0313 -0.4679
18779TIP3    H277753   0.900   5.919  13.596 -1.5053 -0.2672  0.3834
18780TIP3   OH277754   4.551   4.906   5.050  0.5803  0.3071 -0.3788
18780TIP3    H177755   4.638   4.945   5.039  1.4338 -0.6335  2.2131
18780TIP3    H277756   4.495   4.980   5.071  1.0750  0.7456 -0.5653
18781TIP3   OH277757   5.514   6.188  10.511 -0.0586 -0.1695  0.1572
18781TIP3    H177758   5.428   6.157  10.540 -0.0594  1.1272  1.6933
18781TIP3    H277759   5.575   6.156  10.576  0.6915 -1.2215 -1.0191
18782TIP3   OH277760   4.831   2.885   2.433  0.0931  0.4015 -0.7572
18782TIP3    H177761   4.822   2.799   2.475  1.9316  0.0302 -1.0183
18782TIP3    H277762   4.768   2.884   2.361 -1.3615  0.0920  0.4766
18783TIP3   OH277763   4.447   0.054  13.395 -0.1290  0.8283  0.3418
18783TIP3    H177764   4.436   0.148  13.389 -1.4120  1.0023  3.3218
18783TIP3    H277765   4.365   0.018  13.360 -0.4202  0.9621  0.8600
18784TIP3   OH277766   0.191   4.044   4.510 -0.2908  0.2815  0.1474
18784TIP3    H177767   0.099   4.029   4.530  0.2034 -0.6461  1.8836
18784TIP3    H277768   0.201   4.014   4.419 -1.1957 -1.9835  0.7249
18785TIP3   OH277769   3.900   0.698   4.602  0.1858 -0.2061 -0.0888
18785TIP3    H177770   3.818   0.680   4.557  1.6519 -0.8777 -2.6677
18785TIP3    H277771   3.926   0.613   4.638 -0.8312  0.2685  1.9683
18786TIP3   OH277772   6.598   4.621   5.499  0.2529  0.1238 -0.1386
18786TIP3    H177773   6.642   4.543   5.532 -0.1183  0.0290  0.1470
18786TIP3    H277774   6.667   4.674   5.461  0.6545  0.0955  0.5359
18787TIP3   OH277775   3.027   2.450  16.489 -0.1328 -0.2110 -0.3939
18787TIP3    H177776   3.002   2.377  16.544 -0.4073  0.3734  0.2682
18787TIP3    H277777   3.079   2.507  16.546 -1.6359  1.1189 -0.2865
18788TIP3   OH277778   1.764   5.404   0.085 -0.1018 -0.0130 -0.0765
18788TIP3    H177779   1.856   5.394   0.110 -0.1494  1.3112  0.6997
18788TIP3    H277780   1.730   5.468   0.147 -1.7318 -0.9955  0.0841
18789TIP3   OH277781   5.578   4.892  12.216  0.5236  0.1220  0.1967
18789TIP3    H177782   5.491   4.926  12.193  0.1640  0.3078  1.7545
18789TIP3    H277783   5.637   4.938  12.156 -0.4352 -0.0470 -0.9328
18790TIP3   OH277784   4.565   5.753   5.041 -0.2685 -0.2305 -0.8411
18790TIP3    H177785   4.605   5.840   5.042 -0.3729 -0.1814 -0.8801
18790TIP3    H277786   4.477   5.768   5.077  0.9665 -0.9372  2.9720
18791TIP3   OH277787   3.965   6.137   0.113  0.4973 -0.0553 -0.0594
18791TIP3    H177788   3.943   6.043   0.118  1.2243 -0.2548 -0.5336
18791TIP3    H277789   4.000   6.148   0.025 -0.3516  0.8403 -0.2991
18792TIP3   OH277790   1.545   4.529  10.773 -0.4131  0.5086  0.3052
18792TIP3    H177791   1.579   4.532  10.683 -2.2492 -1.7243 -0.5614
18792TIP3    H277792   1.527   4.621  10.794  1.3034  1.2242 -1.0730
18793TIP3   OH277793   3.636   2.720   1.892  0.0757  0.3306 -0.4453
18793TIP3    H177794   3.672   2.688   1.809 -0.0467 -0.6235 -0.1408
18793TIP3    H277795   3.546   2.744   1.872 -0.6459 -1.9474 -0.1420
18794TIP3   OH277796   1.617   2.852   2.805 -0.0230 -0.0768 -0.2045
18794TIP3    H177797   1.695   2.902   2.778 -0.7364  1.4208  0.3821
18794TIP3    H277798   1.599   2.883   2.893 -2.3546  1.0295 -0.9851
18795TIP3   OH277799   1.330   2.819  13.158 -0.2612  0.4090 -0.0196
18795TIP3    H177800   1.284   2.756  13.102  0.1786  0.4216 -0.4058
18795TIP3    H277801   1.266   2.888  13.174 -0.8981 -0.3377  0.7707
18796TIP3   OH277802   1.312   5.234   0.783 -0.2705 -0.5906 -0.0841
18796TIP3    H177803   1.359   5.168   0.834  1.6392 -0.3332 -1.4077
18796TIP3    H277804   1.318   5.314   0.836  2.6344 -0.0533 -1.0449
18797TIP3   OH277805   3.947   1.983   2.983  0.5396  0.1244 -0.0971
18797TIP3    H177806   4.036   2.016   2.998  1.4134 -2.3636  0.5662
18797TIP3    H277807   3.911   1.970   3.070  0.4414 -1.1933 -0.3251
18798TIP3   OH277808   4.161   5.296   3.356 -0.2985  0.3919  0.2117
18798TIP3    H177809   4.190   5.280   3.266 -1.1510 -0.7372  0.1240
18798TIP3    H277810   4.235   5.341   3.397  0.2967  0.4656 -0.9091
18799TIP3   OH277811   3.269   6.349   3.454 -0.8025  0.6467  0.1182
18799TIP3    H177812   3.288   6.410   3.526 -0.0434  0.9133 -0.3005
18799TIP3    H277813   3.221   6.402   3.390 -2.5929  0.1071  0.9396
18800TIP3   OH277814   5.550   3.563  15.185  0.4157  0.0988  0.5003
18800TIP3    H177815   5.552   3.505  15.261 -0.2726  1.4539  1.5965
18800TIP3    H277816   5.567   3.650  15.220 -3.9392  1.4652 -0.1392
18801TIP3   OH277817   4.430   1.177   1.374  0.3006  0.6090  0.4575
18801TIP3    H177818   4.490   1.213   1.440  0.1714  1.2145  0.2526
18801TIP3    H277819   4.463   1.212   1.291  0.3323  0.0232  0.2210
18802TIP3   OH277820   1.239   5.824   1.623  0.0101  0.2839 -0.2006
18802TIP3    H177821   1.224   5.730   1.614 -1.5173  0.3606  1.1495
18802TIP3    H277822   1.243   5.839   1.717  1.2270  1.4634 -0.4057
18803TIP3   OH277823   1.965   5.975   4.703  0.1371  0.0374  0.2099
18803TIP3    H177824   1.957   5.882   4.726 -1.0264  0.0124 -0.2365
18803TIP3    H277825   1.947   6.022   4.784  0.6814 -0.1237  0.4262
18804TIP3   OH277826   2.648   6.723  16.241  0.1643 -0.5233  0.2026
18804TIP3    H177827   2.636   6.628  16.234  1.8445 -0.7413  0.0084
18804TIP3    H277828   2.742   6.735  16.248 -0.0258  1.1469  0.2612
18805TIP3   OH277829   4.814   5.273  14.535 -0.2192 -0.1682 -0.0706
18805TIP3    H177830   4.865   5.301  14.611  1.4515 -3.0318  0.0214
18805TIP3    H277831   4.859   5.312  14.461  0.6904 -0.7127  0.1797
18806TIP3   OH277832   0.218   5.432  13.450  0.3955 -0.3830  0.1397
18806TIP3    H177833   0.136   5.462  13.412  0.6602  0.1245 -0.0397
18806TIP3    H277834   0.191   5.376  13.523 -0.1118  0.2983  0.4897
18807TIP3   OH277835   3.271   0.301  17.158  0.2203 -0.4816 -0.4421
18807TIP3    H177836   3.343   0.241  17.143  1.5119  0.5877  1.1124
18807TIP3    H277837   3.209   0.253  17.213  0.3641 -0.9699 -0.7075
18808TIP3   OH277838   3.116   6.674  11.036 -0.1181 -0.0296 -0.4342
18808TIP3    H177839   3.097   6.582  11.019  0.2415 -0.3289  0.7087
18808TIP3    H277840   3.132   6.711  10.949 -0.6279 -0.9537 -0.9435
18809TIP3   OH277841   6.042   2.195  12.350 -0.1209 -0.3115  0.0969
18809TIP3    H177842   5.964   2.177  12.297  0.2868 -2.2418  0.0827
18809TIP3    H277843   6.015   2.178  12.440 -0.0314  0.1793  0.2192
18810TIP3   OH277844   2.067   2.897  12.998  0.1208  0.6007 -0.0889
18810TIP3    H177845   2.162   2.909  12.997  0.3363 -0.9125  0.0300
18810TIP3    H277846   2.052   2.820  12.944 -0.7488 -0.9525  2.2272
18811TIP3   OH277847   4.459   0.181   0.815  0.6124 -0.7225  0.4180
18811TIP3    H177848   4.520   0.121   0.771  0.5900  0.1939 -0.9069
18811TIP3    H277849   4.375   0.136   0.810  0.8990 -1.3292  0.9303
18812TIP3   OH277850   0.705   4.338  10.785 -0.3648 -0.1138  0.1450
18812TIP3    H177851   0.789   4.382  10.795  0.6004 -1.3821 -1.7728
18812TIP3    H277852   0.654   4.364  10.862  2.0873 -0.0101  1.8208
18813TIP3   OH277853   1.785   1.144  11.191 -0.1517 -0.1878  0.2245
18813TIP3    H177854   1.757   1.208  11.125 -3.2464 -1.3234  0.2968
18813TIP3    H277855   1.715   1.144  11.256  0.5613 -2.4471  1.0825
18814TIP3   OH277856   5.370   2.491  11.358  0.2688 -0.8306 -0.0845
18814TIP3    H177857   5.440   2.498  11.423 -0.3462  0.6842  0.4546
18814TIP3    H277858   5.353   2.397  11.352 -0.3612 -0.9803  2.7378
18815TIP3   OH277859   3.646   5.059  15.737 -0.0225 -0.2280 -0.2777
18815TIP3    H177860   3.711   5.037  15.804  0.0645 -0.3752 -0.4093
18815TIP3    H277861   3.626   5.151  15.752  1.4509  0.2942 -1.2794
18816TIP3   OH277862   2.245   1.982  12.663 -0.1802 -0.8373 -0.7607
18816TIP3    H177863   2.183   2.046  12.698  0.5785 -0.7005  0.4206
18816TIP3    H277864   2.230   1.903  12.715  1.2125 -0.5200  0.2194
18817TIP3   OH277865   3.237   2.966  12.468  0.2845 -0.2842  0.0477
18817TIP3    H177866   3.154   2.920  12.459 -0.0585  0.1411  0.9162
18817TIP3    H277867   3.295   2.904  12.513  0.4881 -0.6358 -0.6936
18818TIP3   OH277868   5.356   5.245  12.212 -0.2185 -0.3545  0.2283
18818TIP3    H177869   5.356   5.336  12.180  0.8582 -0.6712 -0.7874
18818TIP3    H277870   5.332   5.194  12.135 -1.1007 -0.9266  0.8726
18819TIP3   OH277871   4.905   1.205  14.897 -0.2489  0.5148  0.6425
18819TIP3    H177872   4.841   1.137  14.920 -0.0266 -0.5667 -1.6751
18819TIP3    H277873   4.987   1.173  14.934  0.6747 -2.5659 -3.4388
18820TIP3   OH277874   3.178   0.084  13.157  0.3561 -0.0613 -0.0436
18820TIP3    H177875   3.132   0.054  13.078  2.5558  0.4629 -1.6170
18820TIP3    H277876   3.241   0.014  13.175  0.1315  0.0108  1.0461
18821TIP3   OH277877   4.679   3.274  15.565 -0.1199 -0.0652 -0.1739
18821TIP3    H177878   4.593   3.264  15.605 -0.9805  0.9421 -1.6466
18821TIP3    H277879   4.685   3.367  15.545  1.2354 -0.1574 -0.2920
18822TIP3   OH277880   0.450   6.741   0.669  0.3384  0.2687  0.5616
18822TIP3    H177881   0.505   6.665   0.688  0.4751  0.3294  0.4093
18822TIP3    H277882   0.512   6.808   0.641  0.0606 -0.1215 -1.0842
18823TIP3   OH277883   3.053   1.844   6.136 -0.1066  0.3532 -0.2453
18823TIP3    H177884   3.055   1.898   6.214 -1.5557  0.6210 -0.3683
18823TIP3    H277885   3.068   1.755   6.168  1.4560  0.6883  0.0523
18824TIP3   OH277886   2.877   3.049   0.055  0.5931  0.2327  0.5716
18824TIP3    H177887   2.920   3.035   0.140  1.9379 -1.4012 -0.2979
18824TIP3    H277888   2.949   3.051  -0.008 -0.4715 -0.2692 -0.7112
18825TIP3   OH277889   0.078   5.421  14.222  0.0102 -0.3792 -0.2553
18825TIP3    H177890  -0.010   5.449  14.199 -0.0771 -0.4033  0.0413
18825TIP3    H277891   0.067   5.373  14.304  0.5051  1.0444  0.6945
18826TIP3   OH277892   0.478   4.583  11.917  0.2571  0.3350  0.0763
18826TIP3    H177893   0.525   4.651  11.868  1.4190 -0.5962 -0.1612
18826TIP3    H277894   0.423   4.632  11.978  1.5426  1.5023  0.3640
18827TIP3   OH277895   0.477   6.518  11.773  0.0722  0.1371 -0.0419
18827TIP3    H177896   0.508   6.436  11.810  0.3189 -1.0030 -2.6045
18827TIP3    H277897   0.545   6.582  11.795  0.5777 -0.6411  0.7276
18828TIP3   OH277898   0.220   1.741   2.852 -0.2144  0.2088  0.0205
18828TIP3    H177899   0.152   1.725   2.786  0.7584 -1.6967 -0.6049
18828TIP3    H277900   0.295   1.690   2.821  0.4085 -0.4289  2.4044
18829TIP3   OH277901   1.196   3.084   0.997  0.1053  0.5678  0.2355
18829TIP3    H177902   1.274   3.123   0.957  1.9456  0.0492  3.0835
18829TIP3    H277903   1.152   3.157   1.040 -1.4861  0.9867 -1.8972
18830TIP3   OH277904   6.559   3.942   5.968  0.5748 -0.2242 -0.3579
18830TIP3    H177905   6.482   3.999   5.972  1.5158  1.0128  1.5466
18830TIP3    H277906   6.613   3.978   5.898  0.1143 -0.2065 -0.7092
18831TIP3   OH277907   4.544   4.720  16.429 -1.1524 -0.0719 -0.0286
18831TIP3    H177908   4.461   4.740  16.385 -1.0498  0.0779 -0.1530
18831TIP3    H277909   4.518   4.700  16.519 -1.4385 -1.1063 -0.3235
18832TIP3   OH277910   5.546   3.205   5.801  0.8257  0.1902 -0.1141
18832TIP3    H177911   5.468   3.202   5.856  1.1570  2.7329  0.6243
18832TIP3    H277912   5.599   3.131   5.830 -0.8036 -0.9448  0.1040
18833TIP3   OH277913   5.190   5.862  11.778 -0.5770  0.0574  0.0721
18833TIP3    H177914   5.184   5.804  11.703  0.4805  0.7485 -0.5618
18833TIP3    H277915   5.115   5.921  11.768  0.0317  0.6859 -0.9201
18834TIP3   OH277916   4.896   1.866  14.188 -0.2623  0.1181  0.0569
18834TIP3    H177917   4.861   1.912  14.111 -0.4790  0.5884  0.4319
18834TIP3    H277918   4.979   1.909  14.205 -1.0568  1.2735  1.1945
18835TIP3   OH277919   1.416   0.231   1.251 -0.4155  0.0864  0.2729
18835TIP3    H177920   1.509   0.234   1.228  0.3130  2.1562  2.9412
18835TIP3    H277921   1.383   0.317   1.223 -1.1378 -0.0630  0.6720
18836TIP3   OH277922   0.438   5.938   4.586  0.1286 -0.2392  0.2580
18836TIP3    H177923   0.492   6.008   4.548 -0.2083 -0.2770 -0.3107
18836TIP3    H277924   0.369   5.985   4.633 -2.3575 -0.0130 -3.2097
18837TIP3   OH277925   6.800   6.720   2.165 -0.1546  0.3558 -0.5211
18837TIP3    H177926   6.875   6.757   2.118  0.7213 -0.5701  0.0934
18837TIP3    H277927   6.815   6.742   2.257  0.2099 -1.1360 -0.1841
18838TIP3   OH277928   1.769   6.114   5.728  0.0916 -0.0174  0.1205
18838TIP3    H177929   1.847   6.058   5.737 -0.1544 -0.4909 -0.5940
18838TIP3    H277930   1.773   6.146   5.638  1.2360  2.6843  1.0144
18839TIP3   OH277931   0.504   3.088   4.822  0.5295  0.0409 -0.2951
18839TIP3    H177932   0.497   3.125   4.910  3.2364  1.3485 -0.5445
18839TIP3    H277933   0.468   2.999   4.830  0.3034  0.2956  1.9901
18840TIP3   OH277934   6.645   2.610   3.004 -0.1467  0.5641 -0.4564
18840TIP3    H177935   6.688   2.637   2.923  2.2375 -0.9317  0.2008
18840TIP3    H277936   6.675   2.520   3.018  0.0908  0.9936  2.3803
18841TIP3   OH277937   3.415   1.602  16.080 -0.5283  0.6195  0.1078
18841TIP3    H177938   3.368   1.620  16.161  3.0212 -0.2920  2.6033
18841TIP3    H277939   3.461   1.683  16.060  0.7999  0.0469  0.6925
18842TIP3   OH277940   6.571   6.474   3.410 -0.4279  0.1480  0.1566
18842TIP3    H177941   6.658   6.441   3.388 -0.9931 -1.5281  0.2728
18842TIP3    H277942   6.516   6.446   3.337 -1.3251 -0.9887  1.2274
18843TIP3   OH277943   3.588   4.548   0.136 -0.9316 -0.2470  0.7539
18843TIP3    H177944   3.536   4.468   0.126  0.8781 -1.6347  1.7901
18843TIP3    H277945   3.653   4.543   0.066 -1.1480  0.6168  0.4855
18844TIP3   OH277946   1.528   6.130   1.606  0.1958  0.3213  0.7152
18844TIP3    H177947   1.568   6.145   1.692  0.5917  1.4337  0.3619
18844TIP3    H277948   1.446   6.179   1.609 -1.5658 -2.5105  1.6806
18845TIP3   OH277949   1.025   2.425  15.649  0.4915 -0.3560  0.0759
18845TIP3    H177950   1.021   2.429  15.744  1.3258  1.7921  0.0743
18845TIP3    H277951   0.949   2.475  15.619  0.5333 -0.5552 -0.3831
18846TIP3   OH277952   2.926   4.936  12.920  0.0771 -0.4019  0.3052
18846TIP3    H177953   2.921   5.024  12.882 -0.8992 -0.3096  0.6356
18846TIP3    H277954   3.020   4.915  12.919  0.4060  0.9513  0.9305
18847TIP3   OH277955   4.558   0.763  13.240  0.0960  0.3475 -0.2918
18847TIP3    H177956   4.525   0.682  13.277 -0.7460  0.8212  0.0343
18847TIP3    H277957   4.582   0.742  13.150  0.7667 -0.4717  0.0716
18848TIP3   OH277958   3.868   0.613  11.340  0.1446 -0.9611 -0.0882
18848TIP3    H177959   3.944   0.591  11.286 -1.0373 -1.7659 -1.5138
18848TIP3    H277960   3.904   0.640  11.424  2.0114 -0.9437 -0.8565
18849TIP3   OH277961   4.787   5.530  13.775 -0.4703 -0.5408  0.5283
18849TIP3    H177962   4.781   5.607  13.831 -0.6876 -1.5155  1.9113
18849TIP3    H277963   4.714   5.475  13.802 -0.7334 -0.9483 -0.9189
18850TIP3   OH277964   3.518   3.895   4.855 -0.0224 -0.3767 -0.3152
18850TIP3    H177965   3.501   3.987   4.874 -0.6570 -0.4841 -0.3266
18850TIP3    H277966   3.515   3.852   4.940 -0.4839 -0.4959 -0.3868
18851TIP3   OH277967   3.000   1.329  10.957 -0.1196  0.0022 -0.0771
18851TIP3    H177968   2.944   1.400  10.988  1.2517  0.5214  1.3417
18851TIP3    H277969   2.944   1.251  10.963 -1.3190  0.7709 -0.6778
18852TIP3   OH277970   4.001   0.742   4.883  0.2339 -0.2654  0.1117
18852TIP3    H177971   3.973   0.737   4.792 -2.5666 -2.1504  0.9452
18852TIP3    H277972   3.959   0.822   4.916  0.0137 -0.3674  0.0846
18853TIP3   OH277973   4.499   4.370  11.014  0.0703  0.1561  0.1682
18853TIP3    H177974   4.432   4.386  10.948 -0.8647  0.2165  1.1124
18853TIP3    H277975   4.571   4.428  10.990  0.4784 -1.0547 -1.7818
18854TIP3   OH277976   5.486   0.280  11.063 -0.1454  0.2031 -0.3692
18854TIP3    H177977   5.571   0.299  11.103  0.6558 -1.6606 -1.0627
18854TIP3    H277978   5.430   0.353  11.089  0.8962  0.1626  2.3558
18855TIP3   OH277979   6.694   3.114   1.424 -0.3085  0.0875 -0.0094
18855TIP3    H177980   6.636   3.048   1.386  0.7566 -1.2634  0.6334
18855TIP3    H277981   6.658   3.198   1.393 -1.3045 -0.8024 -1.4028
18856TIP3   OH277982   5.351   0.610  15.050 -0.2833 -0.3550  0.1902
18856TIP3    H177983   5.259   0.589  15.062 -0.1473 -0.4532  1.0892
18856TIP3    H277984   5.387   0.534  15.003 -1.0140  0.4475 -1.7943
18857TIP3   OH277985   5.605   2.153   2.614  0.2294 -0.3179 -0.1883
18857TIP3    H177986   5.516   2.167   2.647 -0.1724 -1.7247 -0.5980
18857TIP3    H277987   5.611   2.208   2.537 -0.0458  0.3165  0.2375
18858TIP3   OH277988   0.829   5.738   0.252 -0.8250 -0.4009 -0.3073
18858TIP3    H177989   0.754   5.701   0.298  1.0613 -0.8748  2.6961
18858TIP3    H277990   0.892   5.665   0.247  0.2603  0.5333 -0.7567
18859TIP3   OH277991   4.700   4.159   5.763  0.3499  0.2335  0.0132
18859TIP3    H177992   4.711   4.128   5.853  1.0435  0.6716  0.0869
18859TIP3    H277993   4.653   4.241   5.773  0.3304  0.2270 -0.0283
18860TIP3   OH277994   6.012   6.626  14.486  0.5151 -0.7020 -0.5633
18860TIP3    H177995   6.039   6.572  14.412 -0.1499 -1.1279 -0.5020
18860TIP3    H277996   5.950   6.572  14.534 -1.7249  0.8161 -1.6007
18861TIP3   OH277997   1.621   0.090  17.163  0.5828  0.0996 -0.4095
18861TIP3    H177998   1.697   0.085  17.220 -0.0086 -0.7382  0.3199
18861TIP3    H277999   1.565   0.018  17.191 -0.6036  0.8616 -0.7586
18862TIP3   OH278000   6.374   6.291  11.776 -0.5502 -0.4743 -0.4779
18862TIP3    H178001   6.298   6.249  11.817 -0.4915  0.2343  0.4160
18862TIP3    H278002   6.363   6.276  11.683 -1.0115 -1.6531 -0.2502
18863TIP3   OH278003   3.522   0.883   5.458  0.4075  0.0290  0.3490
18863TIP3    H178004   3.566   0.801   5.482 -0.7329 -0.9126 -0.6345
18863TIP3    H278005   3.499   0.924   5.541  0.9221 -0.6819  0.8571
18864TIP3   OH278006   0.640   3.843  14.084  0.2717  1.0560  0.3048
18864TIP3    H178007   0.597   3.780  14.142 -1.6827  0.2577 -1.8351
18864TIP3    H278008   0.601   3.928  14.108 -0.5241  0.7353  0.1783
18865TIP3   OH278009   2.016   5.568  16.296  0.2128 -0.0677  0.0463
18865TIP3    H178010   2.008   5.658  16.265  0.2756 -0.4790 -1.2151
18865TIP3    H278011   1.932   5.528  16.275 -0.1658 -0.0723  1.4615
18866TIP3   OH278012   3.897   1.670   4.031 -0.3793  0.2018  0.2799
18866TIP3    H178013   3.945   1.739   4.077 -0.0261 -0.1182  0.3978
18866TIP3    H278014   3.946   1.590   4.050 -0.9826 -0.1339  0.4245
18867TIP3   OH278015   4.348   6.392   1.626 -0.4527  0.0041  0.2086
18867TIP3    H178016   4.296   6.346   1.560 -0.6787  0.4856  0.0525
18867TIP3    H278017   4.292   6.393   1.704 -1.2736  1.7414 -0.3522
18868TIP3   OH278018   6.580   3.297   3.042  0.0827  0.0136  0.2098
18868TIP3    H178019   6.615   3.212   3.017 -1.6526 -0.4099 -0.9443
18868TIP3    H278020   6.526   3.279   3.120  0.4562  0.2350  0.5247
18869TIP3   OH278021   1.023   3.478  11.658 -0.0636 -0.2989 -0.2576
18869TIP3    H178022   1.092   3.451  11.597 -1.2382 -1.5718 -1.0818
18869TIP3    H278023   1.015   3.404  11.718 -0.8411 -0.2422 -0.2915
18870TIP3   OH278024   6.699   3.686  13.401  0.1145 -0.0835 -0.0445
18870TIP3    H178025   6.606   3.689  13.380 -0.1829  1.3296  1.3413
18870TIP3    H278026   6.733   3.771  13.374  0.9592 -0.4783 -0.2766
18871TIP3   OH278027   4.244   6.591   0.972 -0.0415  0.4923 -0.0207
18871TIP3    H178028   4.335   6.608   0.944 -0.1628  0.3218 -0.5322
18871TIP3    H278029   4.231   6.648   1.047  0.6655  0.1325  0.3814
18872TIP3   OH278030   2.229   2.444  10.816 -0.3646 -0.0810 -0.1748
18872TIP3    H178031   2.179   2.461  10.895  0.9207  1.7954  0.3146
18872TIP3    H278032   2.224   2.526  10.766 -0.3962 -0.9207 -1.6148
18873TIP3   OH278033   6.495   2.426  14.921  0.5999  0.2310  0.1338
18873TIP3    H178034   6.578   2.453  14.960  0.6950 -0.6391  0.5591
18873TIP3    H278035   6.495   2.331  14.929 -0.3860  0.2150  0.0290
18874TIP3   OH278036   5.662   1.266  14.084  0.0750 -0.2947  0.1459
18874TIP3    H178037   5.614   1.186  14.104 -0.9187 -0.0583 -1.1337
18874TIP3    H278038   5.754   1.244  14.101 -0.2174 -1.5745  0.1752
18875TIP3   OH278039   4.532   3.737   1.723  0.1319  0.1981  0.5156
18875TIP3    H178040   4.583   3.712   1.646  0.5795  1.3222  0.4203
18875TIP3    H278041   4.457   3.786   1.687 -2.2077 -3.0683  0.4923
18876TIP3   OH278042   1.427   1.177   1.502 -0.5490  0.2808  0.1661
18876TIP3    H178043   1.415   1.207   1.412  1.9937 -0.8753 -0.6416
18876TIP3    H278044   1.478   1.247   1.544  1.5026 -0.7468 -0.4471
18877TIP3   OH278045   6.506   4.100  13.426 -0.0737  0.0901 -0.0081
18877TIP3    H178046   6.444   4.032  13.398  2.5082 -2.0989 -0.7673
18877TIP3    H278047   6.542   4.068  13.509 -2.0348  2.8503  2.1416
18878TIP3   OH278048   3.528   0.244   1.521  0.1550  0.0426 -0.1514
18878TIP3    H178049   3.570   0.202   1.446  0.7657 -0.0939  0.2657
18878TIP3    H278050   3.558   0.195   1.597 -0.2930  0.3132  0.2052
18879TIP3   OH278051   3.839   0.828  16.308  0.3922 -0.2270  0.0958
18879TIP3    H178052   3.879   0.915  16.306 -0.1341  0.0538  1.2968
18879TIP3    H278053   3.792   0.821  16.225 -0.2405  0.9552  0.3445
18880TIP3   OH278054   3.660   2.214  11.885 -0.0379  0.6202 -0.4992
18880TIP3    H178055   3.660   2.306  11.859 -0.8961  0.8407  0.2337
18880TIP3    H278056   3.750   2.184  11.867  0.5639  1.8840  0.2396
18881TIP3   OH278057   1.619   4.937   1.260 -0.0977 -0.1890  0.3140
18881TIP3    H178058   1.558   5.006   1.234 -0.0321 -0.2582 -0.0238
18881TIP3    H278059   1.566   4.857   1.258 -0.3028 -0.0867  1.1841
18882TIP3   OH278060   5.643   6.035  11.328  0.7918 -0.3256  0.0288
18882TIP3    H178061   5.554   6.040  11.364  0.8180 -0.2954  0.0899
18882TIP3    H278062   5.698   6.014  11.403  1.0702  1.3442  0.3411
18883TIP3   OH278063   4.292   5.731   2.942 -0.3375  0.0205  0.2145
18883TIP3    H178064   4.210   5.752   2.987  0.5483 -0.9862  2.4584
18883TIP3    H278065   4.336   5.815   2.931 -0.7018  0.3284  1.0319
18884TIP3   OH278066   1.615   0.194   0.451 -0.4650 -0.7748  0.4978
18884TIP3    H178067   1.629   0.211   0.544  0.7147 -1.2367  0.4177
18884TIP3    H278068   1.540   0.135   0.449  0.3427 -1.8645  1.2578
18885TIP3   OH278069   2.534   4.915   5.996 -0.5305 -0.3712  0.4932
18885TIP3    H178070   2.531   4.902   6.091 -2.4031  0.4615  0.5952
18885TIP3    H278071   2.537   5.010   5.985 -0.4435 -0.4568 -0.2861
18886TIP3   OH278072   5.247   4.404   1.296 -0.9320  0.7047 -0.0679
18886TIP3    H178073   5.204   4.483   1.265 -1.8306 -0.0361 -0.7869
18886TIP3    H278074   5.254   4.347   1.219  0.0142  0.2150  0.3542
18887TIP3   OH278075   0.857   6.001   6.174  0.0570  0.5467 -0.4848
18887TIP3    H178076   0.941   5.971   6.208  0.9827  0.2842 -2.8496
18887TIP3    H278077   0.878   6.072   6.114 -1.3594  0.2499 -1.3958
18888TIP3   OH278078   6.413   4.528  15.767  0.1575 -0.0342 -0.2079
18888TIP3    H178079   6.449   4.504  15.682  2.8580  0.3804  0.6907
18888TIP3    H278080   6.403   4.444  15.813  2.2031 -0.0681  0.2675
18889TIP3   OH278081   1.092   1.444  12.406  0.0273 -0.5774  0.2984
18889TIP3    H178082   1.043   1.362  12.409 -0.1530 -0.5371 -0.8214
18889TIP3    H278083   1.093   1.467  12.313  1.5165 -0.1790  0.3869
18890TIP3   OH278084   5.524   0.073  14.674  0.1210 -0.5334  1.0689
18890TIP3    H178085   5.604   0.098  14.629  0.0448 -0.2649  1.0807
18890TIP3    H278086   5.510   0.142  14.739 -1.0505  0.3586 -0.0843
18891TIP3   OH278087   1.457   3.386  16.957 -0.7364  0.1304  0.2729
18891TIP3    H178088   1.497   3.327  17.021 -2.0490  1.1449  2.1142
18891TIP3    H278089   1.516   3.461  16.954 -0.7493  0.1471  0.4177
18892TIP3   OH278090   2.091   1.716  15.405  0.0220  0.0200 -0.1213
18892TIP3    H178091   2.053   1.699  15.319  0.1870 -0.1458 -0.1624
18892TIP3    H278092   2.181   1.743  15.387 -0.7099  2.7451 -0.1869
18893TIP3   OH278093   2.036   6.662   3.258  0.0725  0.0831  0.0738
18893TIP3    H178094   2.102   6.630   3.196  0.2408 -0.6149  0.5976
18893TIP3    H278095   2.055   6.615   3.339  0.9790  2.2440  1.2083
18894TIP3   OH278096   0.740   5.433   1.572 -0.6935 -0.4161 -0.0860
18894TIP3    H178097   0.784   5.515   1.551  0.6558 -0.9831  0.4091
18894TIP3    H278098   0.770   5.412   1.661 -1.0599 -1.4295 -0.1936
18895TIP3   OH278099   5.370   5.366   5.731  0.2698  0.0484  0.1747
18895TIP3    H178100   5.330   5.281   5.715  1.1050 -0.6763  1.7289
18895TIP3    H278101   5.375   5.407   5.644 -2.7953 -0.2361 -0.2300
18896TIP3   OH278102   5.543   5.301   2.521  0.5233  0.8423  0.1540
18896TIP3    H178103   5.595   5.239   2.469  0.2938 -1.2376  2.2041
18896TIP3    H278104   5.463   5.252   2.543  1.3837  0.8212  3.8796
18897TIP3   OH278105   3.613   0.685  16.336  0.3266  0.2566  0.7520
18897TIP3    H178106   3.565   0.632  16.400  1.1975  0.0040  1.2155
18897TIP3    H278107   3.700   0.695  16.374  0.3549  1.5522  0.3989
18898TIP3   OH278108   6.114   3.259   3.833 -0.0640  0.2100 -0.1472
18898TIP3    H178109   6.209   3.260   3.834 -0.0546  1.2247 -0.6596
18898TIP3    H278110   6.089   3.218   3.915  0.8102  0.0865  0.0650
18899TIP3   OH278111   1.850   1.331  12.190  0.0851 -0.5454  0.3506
18899TIP3    H178112   1.930   1.382  12.176 -0.1086 -0.4723 -0.5798
18899TIP3    H278113   1.824   1.305  12.102 -0.7784 -0.7888  0.6766
18900TIP3   OH278114   0.540   1.892  12.293  0.2941  0.1712 -0.3861
18900TIP3    H178115   0.624   1.874  12.252 -0.9072 -0.3052 -2.8446
18900TIP3    H278116   0.519   1.813  12.341  2.0440  0.9833  1.8807
18901TIP3   OH278117   0.784   6.175  16.910 -0.0951  0.9947 -0.2286
18901TIP3    H178118   0.857   6.144  16.963  0.4026  1.1126 -0.8327
18901TIP3    H278119   0.719   6.105  16.915 -0.6339  1.5629  1.6150
18902TIP3   OH278120   2.390   6.629   0.512 -0.0785  0.2349 -0.1347
18902TIP3    H178121   2.414   6.719   0.532 -1.1805  0.9026 -1.6389
18902TIP3    H278122   2.443   6.606   0.435 -0.0438 -0.2850  0.0398
18903TIP3   OH278123   0.364   3.521  16.190  0.3774  0.4409 -0.2042
18903TIP3    H178124   0.372   3.460  16.117  2.7492 -0.7534  0.9608
18903TIP3    H278125   0.270   3.522  16.211  0.3367 -4.5757  1.1130
18904TIP3   OH278126   2.686   0.582   4.339  0.3175 -0.6566  0.0414
18904TIP3    H178127   2.703   0.670   4.373  0.3144 -0.6758  0.0936
18904TIP3    H278128   2.770   0.556   4.299  0.4052 -0.7418  0.2789
18905TIP3   OH278129   2.150   5.904   3.186  0.1080 -0.3914 -0.8577
18905TIP3    H178130   2.230   5.894   3.135  0.8162  0.8971 -0.0463
18905TIP3    H278131   2.140   5.999   3.197 -0.7773 -0.5855  0.2042
18906TIP3   OH278132   4.897   0.740  13.219  0.1746  0.6421 -0.6527
18906TIP3    H178133   4.831   0.736  13.150 -0.2133 -0.9971 -0.2396
18906TIP3    H278134   4.925   0.649  13.230 -2.1846  0.1560  3.5719
18907TIP3   OH278135   2.875   1.543   1.824 -0.0899  0.3317 -0.0663
18907TIP3    H178136   2.850   1.525   1.915 -2.3130 -1.7196 -0.9492
18907TIP3    H278137   2.806   1.602   1.792  0.9257  1.4015 -0.3379
18908TIP3   OH278138   6.665   1.130   5.165 -0.0400 -0.1876 -0.4939
18908TIP3    H178139   6.623   1.045   5.148  1.1831 -1.0902  0.8293
18908TIP3    H278140   6.748   1.125   5.118 -0.5408  0.8591 -1.5497
18909TIP3   OH278141   3.361   5.876   2.393  0.4338  0.5523 -0.0108
18909TIP3    H178142   3.384   5.895   2.484  1.4034  0.5406 -0.2413
18909TIP3    H278143   3.428   5.814   2.364 -1.0255 -1.0572 -0.1352
18910TIP3   OH278144   5.650   3.613   3.094  0.3386 -0.0334  0.1406
18910TIP3    H178145   5.664   3.534   3.043 -0.9517  0.6548 -1.3706
18910TIP3    H278146   5.575   3.593   3.150  1.9263 -0.8860  2.0873
18911TIP3   OH278147   0.260   5.357   3.159  0.4770 -0.2163  0.7072
18911TIP3    H178148   0.327   5.402   3.107  0.6844 -0.6700  0.5708
18911TIP3    H278149   0.305   5.330   3.239  0.1719  0.4324  1.1064
18912TIP3   OH278150   3.661   2.529   0.231  0.3485  0.0005  0.1416
18912TIP3    H178151   3.571   2.517   0.260  0.3502 -4.3769 -1.0697
18912TIP3    H278152   3.709   2.454   0.265  3.4468  1.7193  0.0292
18913TIP3   OH278153   5.863   3.137  14.689  0.1860 -0.1664  0.2568
18913TIP3    H178154   5.808   3.083  14.745 -1.3232 -0.3929 -1.3767
18913TIP3    H278155   5.942   3.085  14.676  0.0881 -0.5849  1.2314
18914TIP3   OH278156   2.301   1.333   1.087  0.0348  0.5775  0.4747
18914TIP3    H178157   2.333   1.250   1.121  0.0381 -0.0433 -1.0116
18914TIP3    H278158   2.208   1.319   1.071  0.1761  0.6210 -0.4395
18915TIP3   OH278159   4.952   4.750  12.909  0.0791  0.4643  0.2081
18915TIP3    H178160   4.952   4.752  12.814 -1.3057 -0.7706  0.1551
18915TIP3    H278161   4.980   4.838  12.935 -0.5328  1.1394 -1.3323
18916TIP3   OH278162   6.489   4.864  11.465 -0.0279  0.1487  0.2485
18916TIP3    H178163   6.513   4.801  11.398 -0.3347 -0.1903  0.4571
18916TIP3    H278164   6.397   4.845  11.485  0.2209 -0.1339  1.1766
18917TIP3   OH278165   0.317   0.619  16.925  0.4139  0.4084  0.3707
18917TIP3    H178166   0.333   0.561  17.000  1.5557  0.6851  0.3423
18917TIP3    H278167   0.273   0.562  16.861 -0.4201  0.1280  1.1686
18918TIP3   OH278168   0.285   4.670  15.048  0.3045  0.2997 -0.3422
18918TIP3    H178169   0.227   4.724  15.103 -2.3193  0.0048 -2.5629
18918TIP3    H278170   0.319   4.604  15.108  0.3432  1.9522  1.6068
18919TIP3   OH278171   4.968   0.886   3.805  0.6786 -0.0486 -0.1478
18919TIP3    H178172   4.903   0.934   3.754 -0.7970  0.7536  2.2887
18919TIP3    H278173   4.946   0.794   3.793  0.3826  0.1206 -0.9315
18920TIP3   OH278174   2.262   0.341   3.197  0.4853  0.0611 -0.6831
18920TIP3    H178175   2.237   0.252   3.176 -1.8229 -0.0036  1.6866
18920TIP3    H278176   2.345   0.355   3.152  0.0083 -2.6128 -2.6059
18921TIP3   OH278177   0.659   4.726   6.209  0.3389  0.3344  0.1332
18921TIP3    H178178   0.706   4.688   6.283  1.4937  1.8643  0.2423
18921TIP3    H278179   0.640   4.816   6.236 -0.7701  0.4028 -0.7686
18922TIP3   OH278180   0.913   6.627  15.181 -0.0268  0.0698 -0.2364
18922TIP3    H178181   0.838   6.587  15.138  0.1388  1.4061 -1.9145
18922TIP3    H278182   0.877   6.671  15.258 -1.0139  0.7476 -1.0598
18923TIP3   OH278183   3.909   1.191   5.429  0.1926 -0.1056 -0.0184
18923TIP3    H178184   3.826   1.215   5.390 -0.0459  0.5333  0.8309
18923TIP3    H278185   3.908   1.234   5.515  0.9994 -0.8494  0.3793
18924TIP3   OH278186   5.803   6.563  13.818  0.1245  0.2302 -0.0405
18924TIP3    H178187   5.777   6.508  13.744  0.4624  0.8536 -0.6350
18924TIP3    H278188   5.857   6.506  13.873  1.2045  0.1861 -1.0951
18925TIP3   OH278189   4.295   3.000  15.584  0.4156 -0.1385 -0.0295
18925TIP3    H178190   4.385   3.017  15.611 -0.4277  2.6808  1.3579
18925TIP3    H278191   4.274   2.915  15.622  2.1402 -0.3605  0.4936
18926TIP3   OH278192   1.970   2.366  16.068  0.0703 -0.4527  1.1391
18926TIP3    H178193   1.899   2.383  16.130 -1.4300  0.0606 -0.6169
18926TIP3    H278194   1.926   2.339  15.987  1.7881  0.8737 -0.3384
18927TIP3   OH278195   1.442   0.862   5.302  0.5293  0.5679  0.3888
18927TIP3    H178196   1.350   0.882   5.283  0.8609  2.1675  0.3046
18927TIP3    H278197   1.460   0.909   5.384  0.9555 -0.7389  1.0769
18928TIP3   OH278198   0.460   4.293  13.958 -0.1464  0.4389 -0.0388
18928TIP3    H178199   0.471   4.298  14.053 -1.0028  0.3585  0.0781
18928TIP3    H278200   0.381   4.345  13.940 -0.6973 -0.5419 -0.5475
18929TIP3   OH278201   3.320   5.121  11.516  0.3476 -0.0662 -0.4237
18929TIP3    H178202   3.235   5.165  11.510  1.3091  1.8172 -0.7797
18929TIP3    H278203   3.384   5.192  11.514  1.9661 -1.4895 -0.7858
18930TIP3   OH278204   5.994   4.546  11.936 -0.0821 -0.3441 -0.1246
18930TIP3    H178205   6.024   4.629  11.899 -0.1118  0.2687  1.1552
18930TIP3    H278206   6.001   4.559  12.031  2.2945 -2.6549  0.1197
18931TIP3   OH278207   3.995   0.129   4.585 -0.3593  0.1145  0.8310
18931TIP3    H178208   4.070   0.149   4.641  0.9203 -2.8039  0.3632
18931TIP3    H278209   3.960   0.047   4.620 -0.3998 -1.0442 -1.6832
18932TIP3   OH278210   2.766   1.549   0.703  0.2460  0.2428  0.0790
18932TIP3    H178211   2.781   1.557   0.797  0.9784 -0.1934  0.0065
18932TIP3    H278212   2.845   1.507   0.669 -0.0594  0.2832 -0.7163
18933TIP3   OH278213   4.721   5.180   0.934  0.1967  0.2886  0.2954
18933TIP3    H178214   4.663   5.105   0.926 -1.0240  1.0446  1.6219
18933TIP3    H278215   4.715   5.225   0.850 -4.1752  2.4207  1.4708
18934TIP3   OH278216   2.717   5.071  13.775  0.0742  0.0820  0.0494
18934TIP3    H178217   2.768   4.989  13.778 -0.1073 -0.0093  1.1967
18934TIP3    H278218   2.712   5.093  13.682  0.0307 -1.2815 -0.2935
18935TIP3   OH278219   5.369   5.532   6.399  0.3064  0.2388  0.1439
18935TIP3    H178220   5.336   5.443   6.387  0.4237  0.0899  0.8774
18935TIP3    H278221   5.462   5.527   6.374  0.1474  0.3283 -0.5025
18936TIP3   OH278222   0.819   4.606   2.080  0.0297 -0.4736  0.5880
18936TIP3    H178223   0.852   4.531   2.128 -1.4999 -0.3934  1.8475
18936TIP3    H278224   0.725   4.592   2.074  0.0178  0.0863 -1.4580
18937TIP3   OH278225   5.057   3.419  13.879  0.0056  0.5711  0.4019
18937TIP3    H178226   5.042   3.498  13.826 -1.4046  0.5630  0.7433
18937TIP3    H278227   5.021   3.348  13.827 -0.0320  0.3580  0.7173
18938TIP3   OH278228   5.827   1.167   1.484  0.3042 -0.7789 -0.7275
18938TIP3    H178229   5.857   1.253   1.512  0.1302 -1.3816  1.5206
18938TIP3    H278230   5.734   1.178   1.468  0.6218 -0.1587 -2.2719
18939TIP3   OH278231   5.860   0.020   0.616 -0.1068 -0.2126 -0.3032
18939TIP3    H178232   5.854   0.029   0.711 -0.9575  1.2488 -0.4586
18939TIP3    H278233   5.785   0.069   0.583 -0.4182 -1.5548 -1.7104
18940TIP3   OH278234   0.605   6.481   2.500 -0.6114 -0.3594 -0.2373
18940TIP3    H178235   0.521   6.523   2.520 -0.1384  1.6196 -2.0051
18940TIP3    H278236   0.662   6.505   2.574 -1.0828 -0.0775  0.0399
18941TIP3   OH278237   5.229   5.501  14.833  0.2965  0.3433  0.2418
18941TIP3    H178238   5.171   5.435  14.869 -0.4342  0.5026 -0.6243
18941TIP3    H278239   5.206   5.582  14.879 -0.3081  0.4460 -0.2292
18942TIP3   OH278240   0.024   6.203   0.636  0.1258  0.5492  0.1316
18942TIP3    H178241   0.060   6.275   0.688  0.1626  0.0055  0.8745
18942TIP3    H278242  -0.016   6.144   0.700  2.5163 -1.5064 -0.1070
18943TIP3   OH278243   5.222   1.407  14.869 -0.1837 -0.4393  0.2727
18943TIP3    H178244   5.305   1.391  14.824  0.5194  1.0508  0.9509
18943TIP3    H278245   5.187   1.320  14.887  1.4492 -1.1156  0.3682
18944TIP3   OH278246   3.331   5.663  14.461  0.0265  0.1891 -0.5930
18944TIP3    H178247   3.371   5.731  14.515 -0.9071  0.6122 -0.4178
18944TIP3    H278248   3.250   5.641  14.506 -0.0431 -0.5217 -1.0456
18945TIP3   OH278249   4.104   5.320  11.650  0.7010  0.2073 -0.0208
18945TIP3    H178250   4.022   5.278  11.625  0.8922  0.0167 -0.3229
18945TIP3    H278251   4.101   5.405  11.606  1.7731 -0.7616 -2.0473
18946TIP3   OH278252   1.765   1.351  15.303 -0.3455 -0.3083  0.0911
18946TIP3    H178253   1.851   1.382  15.331 -0.0850 -0.4656 -0.5238
18946TIP3    H278254   1.771   1.256  15.304 -0.7762 -0.3375  0.8370
18947TIP3   OH278255   2.252   3.703   3.438 -0.2778  0.3253 -0.0817
18947TIP3    H178256   2.180   3.687   3.499 -1.1317  0.5238 -1.0256
18947TIP3    H278257   2.328   3.662   3.480 -0.7749  0.7038  1.2540
18948TIP3   OH278258   0.143   5.102   0.970  0.0235  0.5435 -0.0234
18948TIP3    H178259   0.083   5.156   0.920  1.3133  1.2456 -0.8780
18948TIP3    H278260   0.230   5.126   0.937  0.7497 -0.7173  0.8826
18949TIP3   OH278261   5.332   1.631   1.660 -0.5041 -0.5018 -0.3087
18949TIP3    H178262   5.404   1.677   1.703 -1.2902  0.7560 -0.2941
18949TIP3    H278263   5.375   1.577   1.593  0.4637  0.0126 -0.1184
18950TIP3   OH278264   6.282   0.835   1.623  0.0000  0.2674  0.2812
18950TIP3    H178265   6.232   0.916   1.620  1.8404  1.5164  1.3717
18950TIP3    H278266   6.219   0.769   1.653 -1.1501  1.6312  0.9551
18951TIP3   OH278267   0.044   4.198  12.860  0.5359  0.1045  0.1129
18951TIP3    H178268   0.133   4.195  12.826 -0.1222  1.5681 -1.9595
18951TIP3    H278269   0.014   4.287  12.841 -1.5030 -0.4809  0.3324
18952TIP3   OH278270   6.230   0.874   3.180  0.2576  0.4220  0.3679
18952TIP3    H178271   6.159   0.926   3.219 -1.0820 -0.4016 -0.8857
18952TIP3    H278272   6.188   0.793   3.152  1.8500 -0.3916  0.2048
18953TIP3   OH278273   2.404   2.235  10.943  0.1744  0.4063 -0.2744
18953TIP3    H178274   2.403   2.313  10.998 -0.4085  1.4975 -1.7546
18953TIP3    H278275   2.460   2.258  10.869  0.0363 -0.5987 -0.7163
18954TIP3   OH278276   0.092   1.788  11.137 -0.1930  0.5524  0.0831
18954TIP3    H178277   0.033   1.830  11.199 -0.6109  0.7320 -0.4243
18954TIP3    H278278   0.139   1.861  11.096  0.3709  0.4110  0.4732
18955TIP3   OH278279   0.029   1.712   2.641 -0.5265  0.1716  0.2138
18955TIP3    H178280   0.048   1.766   2.564 -1.1415  0.0360 -0.0376
18955TIP3    H278281  -0.052   1.748   2.676 -0.9757 -0.6090  0.0134
18956TIP3   OH278282   4.549   4.479  15.329  0.1596 -0.6163  0.5289
18956TIP3    H178283   4.576   4.414  15.265  0.7610 -1.5027  1.6380
18956TIP3    H278284   4.460   4.452  15.353  1.1263 -2.3676  2.5120
18957TIP3   OH278285   1.202   2.493  16.892  0.1283  0.3356  0.5560
18957TIP3    H178286   1.166   2.572  16.931 -1.9495 -0.7317  0.9176
18957TIP3    H278287   1.129   2.431  16.889  0.7340 -0.4072 -2.9969
18958TIP3   OH278288   3.002   4.191  11.859  0.0966 -0.1304 -0.2081
18958TIP3    H178289   2.908   4.195  11.845  0.0128  2.2008  0.6464
18958TIP3    H278290   3.036   4.146  11.781 -1.6618 -0.6224 -0.7279
18959TIP3   OH278291   5.660   0.630  14.733  0.7533 -0.0864  0.3876
18959TIP3    H178292   5.728   0.563  14.730  1.1557  0.2759  1.0197
18959TIP3    H278293   5.692   0.694  14.797 -0.1623  0.1176  0.6649
18960TIP3   OH278294   3.633   4.724  14.895  0.1660  0.7760  0.9306
18960TIP3    H178295   3.614   4.750  14.805  2.5161 -1.6836 -0.4405
18960TIP3    H278296   3.552   4.682  14.925 -0.3536  0.7862 -0.3736
18961TIP3   OH278297   3.521   2.283  12.375  0.2415 -0.5566 -0.2203
18961TIP3    H178298   3.606   2.325  12.361  0.2813 -0.3098  0.7345
18961TIP3    H278299   3.495   2.254  12.287  0.8872  0.1687 -0.6718
18962TIP3   OH278300   4.730   1.104   3.247  0.6294 -0.1225  0.3171
18962TIP3    H178301   4.715   1.185   3.295 -0.9837 -2.3820  4.0350
18962TIP3    H278302   4.674   1.111   3.170 -0.5589  1.6913  1.2837
18963TIP3   OH278303   5.284   1.061  12.482 -0.1645 -0.1638 -0.0118
18963TIP3    H178304   5.252   1.054  12.571  0.6116  0.4506  0.3275
18963TIP3    H278305   5.379   1.053  12.490 -0.0709  0.1032 -0.7604
18964TIP3   OH278306   3.559   2.746   5.024  0.0245 -0.3796 -0.0455
18964TIP3    H178307   3.484   2.723   5.078 -0.0007 -0.7415 -0.2301
18964TIP3    H278308   3.590   2.830   5.058  0.2788 -0.8135  0.8064
18965TIP3   OH278309   2.565   6.302  14.432 -0.7253  0.2694 -0.0012
18965TIP3    H178310   2.646   6.352  14.439 -0.6136 -0.0137  0.7285
18965TIP3    H278311   2.502   6.363  14.393 -0.5516  0.9287  0.7432
18966TIP3   OH278312   0.438   1.429  16.812  0.0087 -0.2461 -0.0389
18966TIP3    H178313   0.417   1.416  16.720  1.3699  1.1599 -0.5984
18966TIP3    H278314   0.512   1.490  16.811  0.9814 -1.3024  1.9324
18967TIP3   OH278315   4.238   2.571  16.423 -0.7441  0.3850 -0.1091
18967TIP3    H178316   4.196   2.492  16.457  0.8168 -0.4913 -0.1206
18967TIP3    H278317   4.251   2.554  16.330 -1.8195  1.3413 -0.4680
18968TIP3   OH278318   6.074   6.055   4.293  0.7538  0.0293 -0.5170
18968TIP3    H178319   5.997   6.012   4.256 -0.0486  1.2031 -0.3061
18968TIP3    H278320   6.085   6.016   4.380  0.0005  0.2684 -0.3033
18969TIP3   OH278321   6.477   0.828  15.434  0.3342 -0.3145 -0.4994
18969TIP3    H178322   6.525   0.816  15.352 -0.5827 -1.1588 -0.9320
18969TIP3    H278323   6.531   0.786  15.500 -0.0682 -1.8317 -1.0867
18970TIP3   OH278324   0.310   1.298   0.093 -0.3306  0.0679 -0.7101
18970TIP3    H178325   0.222   1.327   0.070 -0.6681 -1.8040 -1.9667
18970TIP3    H278326   0.339   1.246   0.019  1.1699 -0.7900  0.4098
18971TIP3   OH278327   5.743   6.565  16.434 -0.3760 -0.0628  0.1462
18971TIP3    H178328   5.832   6.543  16.460 -0.4088 -1.2277 -0.6308
18971TIP3    H278329   5.692   6.560  16.515  0.2763  0.7778  0.6219
18972TIP3   OH278330   6.051   5.825   1.013  0.1558 -0.8166 -0.5616
18972TIP3    H178331   6.012   5.819   1.100  0.6382  2.3380 -0.0191
18972TIP3    H278332   6.141   5.794   1.025 -0.1090 -1.4577 -0.1989
18973TIP3   OH278333   1.887   2.103   0.954 -0.8298 -0.1133  0.2902
18973TIP3    H178334   1.831   2.104   0.876 -1.8163  1.9594  0.9403
18973TIP3    H278335   1.972   2.133   0.923 -0.6447 -1.2206 -0.3235
18974TIP3   OH278336   0.408   5.916  13.812  0.1803  0.6104 -0.0487
18974TIP3    H178337   0.318   5.915  13.844 -0.0560 -0.0701 -0.6967
18974TIP3    H278338   0.404   5.965  13.730 -0.0303 -1.1896 -1.1850
18975TIP3   OH278339   2.754   0.684   2.676 -0.0952  0.4811  0.3567
18975TIP3    H178340   2.694   0.751   2.709 -0.0273  0.6800  0.0836
18975TIP3    H278341   2.833   0.733   2.653 -0.3737  0.4591 -0.7238
18976TIP3   OH278342   2.486   5.354   0.715  0.1361  0.8147  0.0254
18976TIP3    H178343   2.528   5.316   0.638 -1.7276 -1.3060 -0.0598
18976TIP3    H278344   2.536   5.319   0.789  0.2848  0.6478 -0.1543
18977TIP3   OH278345   0.512   1.583  11.330 -0.2560  0.0707 -0.4817
18977TIP3    H178346   0.432   1.619  11.367  0.6333  1.6029  0.0566
18977TIP3    H278347   0.571   1.573  11.405  0.4361  0.0156 -1.0193
18978TIP3   OH278348   6.508   3.495   3.947 -0.4520  0.1674 -0.3326
18978TIP3    H178349   6.456   3.478   4.026 -0.0688  0.0854 -0.0913
18978TIP3    H278350   6.467   3.571   3.907 -2.2663 -1.3333 -1.4887
18979TIP3   OH278351   2.877   4.063  14.269  0.3673 -0.0989 -0.2660
18979TIP3    H178352   2.900   4.090  14.358  0.2538 -1.0312  0.0518
18979TIP3    H278353   2.794   4.018  14.278  1.3388 -2.0239 -0.5144
18980TIP3   OH278354   1.758   0.022  15.343  0.3081  0.2355 -0.2591
18980TIP3    H178355   1.779   0.111  15.316  1.4056 -0.0736 -0.4935
18980TIP3    H278356   1.771  -0.031  15.264  0.2722 -0.2145  0.0314
18981TIP3   OH278357   5.931   4.361  16.697  0.0089 -0.2630  0.5683
18981TIP3    H178358   5.887   4.442  16.723  0.0269  0.3066 -1.0373
18981TIP3    H278359   5.861   4.298  16.685 -0.1921  0.0476  0.0636
18982TIP3   OH278360   4.889   1.118   0.935  0.3505 -0.2776 -0.1802
18982TIP3    H178361   4.928   1.039   0.897  0.3528  0.0345 -0.8347
18982TIP3    H278362   4.917   1.116   1.026 -2.7900 -3.0843  0.9346
18983TIP3   OH278363   6.442   2.241  13.759  0.0633  0.0121 -0.0417
18983TIP3    H178364   6.450   2.242  13.664 -2.2315  0.2680 -0.3070
18983TIP3    H278365   6.432   2.148  13.782  0.8148 -0.0671 -0.0038
18984TIP3   OH278366   5.748   5.483   3.863 -0.0600  0.7198  0.5913
18984TIP3    H178367   5.722   5.549   3.799 -0.3483 -0.0070 -0.0524
18984TIP3    H278368   5.758   5.403   3.813  1.2142  0.4665  1.2046
18985TIP3   OH278369   3.976   2.472   6.081  0.0934 -0.0339 -0.5441
18985TIP3    H178370   4.007   2.423   6.158  0.6964  0.3015 -0.5632
18985TIP3    H278371   3.935   2.550   6.118 -0.2771 -0.2318 -0.5368
18986TIP3   OH278372   0.329   0.796   1.189  0.4959 -0.4334  0.2278
18986TIP3    H178373   0.295   0.874   1.146  3.9285  0.7671 -0.6153
18986TIP3    H278374   0.300   0.723   1.133 -1.1430  0.3755 -0.0316
18987TIP3   OH278375   5.261   6.436  14.918 -0.6395 -0.0015  0.3658
18987TIP3    H178376   5.269   6.386  14.999 -2.0928 -1.1505 -0.1451
18987TIP3    H278377   5.206   6.511  14.942  0.3686  0.6193  0.8094
18988TIP3   OH278378   2.973   5.848   2.030 -0.1762  0.5623 -0.0961
18988TIP3    H178379   3.064   5.853   2.060 -0.3333  0.1707  0.4602
18988TIP3    H278380   2.935   5.932   2.055  0.5448  1.5665 -2.1238
18989TIP3   OH278381   0.590   1.662   5.687 -1.0075  0.4672  0.0112
18989TIP3    H178382   0.509   1.625   5.723  0.2083 -0.6715  1.7240
18989TIP3    H278383   0.583   1.756   5.705 -2.1406  0.4633 -0.3036
18990TIP3   OH278384   5.833   6.629   2.364 -0.3461  0.0644 -0.2186
18990TIP3    H178385   5.914   6.591   2.398 -1.4247  0.0818  2.7176
18990TIP3    H278386   5.765   6.566   2.388 -1.4076  0.8375 -1.0861
18991TIP3   OH278387   6.333   2.214   1.083 -0.2973  0.7559 -0.0658
18991TIP3    H178388   6.292   2.128   1.088  0.7194  0.1856 -0.8622
18991TIP3    H278389   6.265   2.272   1.050 -1.4000  0.5811  1.7794
18992TIP3   OH278390   0.637   2.316   3.036  0.8402  0.1717 -0.0695
18992TIP3    H178391   0.553   2.343   3.074  0.6719  0.1701 -0.4453
18992TIP3    H278392   0.640   2.221   3.051  0.8199  0.1851  0.0255
18993TIP3   OH278393   3.689   4.975   1.664 -0.5301  0.3915 -0.3026
18993TIP3    H178394   3.772   4.985   1.710 -1.2152  0.5653  0.9484
18993TIP3    H278395   3.638   4.916   1.719 -1.8333  1.5778 -0.1977
18994TIP3   OH278396   2.336   1.066  12.759 -0.6354 -0.1445  0.3585
18994TIP3    H178397   2.404   0.999  12.760 -0.7914 -0.3103 -0.1391
18994TIP3    H278398   2.378   1.144  12.795  0.1748  0.1033 -1.0680
18995TIP3   OH278399   3.669   0.743   5.667 -0.2419 -0.4463  0.3107
18995TIP3    H178400   3.671   0.766   5.759  0.3122 -0.3444  0.2763
18995TIP3    H278401   3.758   0.759   5.636  0.1758 -2.5055  0.2594
18996TIP3   OH278402   6.500   6.039   2.853  0.2560  0.4250 -0.3313
18996TIP3    H178403   6.416   5.996   2.843  0.7319 -1.2254  2.0042
18996TIP3    H278404   6.564   5.975   2.822  0.8278  0.2409  1.1415
18997TIP3   OH278405   0.278   5.938  14.289 -0.0940 -0.0008 -0.1935
18997TIP3    H178406   0.272   5.969  14.198 -0.7635  0.9562  0.1469
18997TIP3    H278407   0.205   5.876  14.298 -1.4746  1.6060  0.2774
18998TIP3   OH278408   1.671   4.363  12.974  0.3030 -0.0526  0.0712
18998TIP3    H178409   1.666   4.426  12.902  0.8678 -1.9672 -1.7461
18998TIP3    H278410   1.712   4.412  13.045 -0.2302  1.9126 -0.8999
18999TIP3   OH278411   0.303   4.586  13.090 -0.2264  0.0119  0.1990
18999TIP3    H178412   0.220   4.613  13.131 -0.8202 -1.3392 -0.0696
18999TIP3    H278413   0.289   4.495  13.065  0.8361  0.2092 -1.2140
19000TIP3   OH278414   3.542   3.385  13.106 -0.4121  0.5526 -0.0474
19000TIP3    H178415   3.618   3.328  13.097 -0.8142  0.1239 -0.8249
19000TIP3    H278416   3.543   3.438  13.027 -1.7377 -0.4757 -0.7955
19001TIP3   OH278417   1.222   2.434   0.482 -0.0646 -0.0826  0.1217
19001TIP3    H178418   1.182   2.396   0.561  1.2787  0.7175  1.2295
19001TIP3    H278419   1.311   2.397   0.480 -0.2518 -0.5240 -1.3507
19002TIP3   OH278420   4.347   1.085   2.125 -0.4040  0.2299  0.6552
19002TIP3    H178421   4.366   1.016   2.061 -1.4392  1.1007 -0.6345
19002TIP3    H278422   4.405   1.157   2.101 -0.9877  0.6598  0.5223
19003TIP3   OH278423   6.349   2.718  14.352  0.0059 -0.1041  0.0551
19003TIP3    H178424   6.373   2.693  14.263 -3.4520 -2.0914 -0.4901
19003TIP3    H278425   6.308   2.804  14.342  0.0627 -0.1041 -0.1921
19004TIP3   OH278426   0.010   6.682  13.294  0.3333 -0.0897  0.3074
19004TIP3    H178427   0.060   6.659  13.216 -1.1881 -0.3989 -0.6297
19004TIP3    H278428  -0.024   6.770  13.275  0.4904  0.1027  0.9106
19005TIP3   OH278429   2.410   5.520  13.949 -0.2408 -0.4611  0.3730
19005TIP3    H178430   2.412   5.484  14.038 -0.2330  0.4620  0.7516
19005TIP3    H278431   2.319   5.546  13.935  0.2985  2.1277  1.2468
19006TIP3   OH278432   6.216   5.542   5.838 -0.3066  0.0824  0.1188
19006TIP3    H178433   6.254   5.551   5.751 -0.9520  1.2411 -0.0576
19006TIP3    H278434   6.199   5.631   5.868 -3.1033 -0.3162  0.0581
19007TIP3   OH278435   4.328   3.790   0.890 -1.4042 -0.4285 -0.1715
19007TIP3    H178436   4.324   3.694   0.886  2.5816 -0.7098 -2.3787
19007TIP3    H278437   4.260   3.819   0.829 -2.4334 -1.8378  0.2518
19008TIP3   OH278438   6.218   0.558   5.179  0.7722  0.0813  0.0432
19008TIP3    H178439   6.294   0.616   5.168 -1.2156  2.7140 -0.8926
19008TIP3    H278440   6.156   0.608   5.231 -1.9483 -0.1652 -2.6534
19009TIP3   OH278441   0.211   0.843  13.308  0.5078 -0.0723 -0.5994
19009TIP3    H178442   0.253   0.781  13.367  1.8491  0.4044 -1.0282
19009TIP3    H278443   0.128   0.801  13.285  0.3581 -0.6538  0.9136
19010TIP3   OH278444   1.426   4.826   1.802  0.2521  0.7653  0.4065
19010TIP3    H178445   1.474   4.771   1.741 -0.9617 -0.8192  0.8138
19010TIP3    H278446   1.355   4.770   1.834 -0.5951  2.3442  1.4070
19011TIP3   OH278447   0.471   3.649   0.432 -0.1036 -0.3217  0.0627
19011TIP3    H178448   0.486   3.720   0.369 -0.7537 -2.6935 -3.0165
19011TIP3    H278449   0.379   3.658   0.457 -0.1762 -0.0853 -0.2814
19012TIP3   OH278450   0.703   1.777  12.839  0.0651 -0.4613  0.3315
19012TIP3    H178451   0.796   1.779  12.861  0.3895 -2.8364 -0.4976
19012TIP3    H278452   0.697   1.819  12.753  0.7658 -2.1725 -0.6050
19013TIP3   OH278453   3.786   3.375   4.389  0.1269  0.0522 -0.4982
19013TIP3    H178454   3.750   3.318   4.458 -1.8522  0.8776 -0.7971
19013TIP3    H278455   3.846   3.318   4.340  2.5456 -0.2885  2.5161
19014TIP3   OH278456   3.617   5.443  14.079 -0.2381 -0.0680 -0.0268
19014TIP3    H178457   3.637   5.462  14.171  1.6687  0.6738 -0.5347
19014TIP3    H278458   3.589   5.527  14.043 -1.5736 -0.4890 -0.0070
19015TIP3   OH278459   2.602   1.624   0.058 -0.3197 -0.5466  0.7518
19015TIP3    H178460   2.681   1.595   0.012 -1.1072 -1.9117  0.1807
19015TIP3    H278461   2.545   1.656  -0.011 -0.6452 -0.5055  1.0388
19016TIP3   OH278462   1.946   4.446  16.891 -0.0866  0.0234  0.2301
19016TIP3    H178463   1.978   4.485  16.972  1.3454  2.5584 -1.3829
19016TIP3    H278464   1.943   4.352  16.908  3.0287  0.1576  2.3064
19017TIP3   OH278465   4.356   5.190  15.633  0.5664 -0.0819 -0.5640
19017TIP3    H178466   4.278   5.221  15.588  0.1561 -1.5415 -0.8993
19017TIP3    H278467   4.408   5.148  15.564  0.8220 -0.6668 -0.0173
19018TIP3   OH278468   5.390   3.275   4.530 -0.8454  0.0220 -0.3328
19018TIP3    H178469   5.385   3.189   4.572  0.1337  0.4850  0.7827
19018TIP3    H278470   5.351   3.335   4.594  0.6998  0.7507 -0.0363
19019TIP3   OH278471   6.608   2.819  11.075  0.6125  0.3446 -0.1912
19019TIP3    H178472   6.597   2.882  11.004 -0.4454  1.5288  0.9911
19019TIP3    H278473   6.583   2.735  11.035  1.7484  0.6757 -1.6903
19020TIP3   OH278474   3.846   1.981  13.867  0.0508  0.3264 -0.0377
19020TIP3    H178475   3.754   1.972  13.893  0.4916 -0.5846  1.3334
19020TIP3    H278476   3.882   1.892  13.874  0.5953  0.3076 -2.4187
19021TIP3   OH278477   2.767   4.956  14.985  0.6698 -0.2461  0.8879
19021TIP3    H178478   2.674   4.956  15.008  0.1428 -2.3527 -0.8819
19021TIP3    H278479   2.793   5.048  14.990 -1.7800  0.5545  0.3665
19022TIP3   OH278480   1.593   0.105  12.254 -0.0627 -0.1119 -0.0182
19022TIP3    H178481   1.550   0.109  12.169  1.8848  2.3037 -1.0411
19022TIP3    H278482   1.564   0.183  12.300  1.4959  0.4443  0.0997
19023TIP3   OH278483   2.283   5.423   2.446  0.1467 -0.0544 -0.4360
19023TIP3    H178484   2.218   5.372   2.495  2.8358 -1.1236  2.3432
19023TIP3    H278485   2.302   5.371   2.369  0.1759 -1.4944  0.4997
19024TIP3   OH278486   1.102   4.499   5.451 -0.4022 -0.1143 -0.0372
19024TIP3    H178487   1.144   4.577   5.417 -0.0688 -0.2502  0.0609
19024TIP3    H278488   1.082   4.447   5.374  1.7613 -1.1485  0.0198
19025TIP3   OH278489   0.787   5.910   0.710 -0.5712 -0.0448 -0.2670
19025TIP3    H178490   0.784   5.826   0.664 -0.2221  0.3620 -1.0686
19025TIP3    H278491   0.845   5.896   0.784  0.2870 -0.2517 -0.9639
19026TIP3   OH278492   6.651   2.246   3.756 -0.5860 -0.1963 -0.0098
19026TIP3    H178493   6.589   2.308   3.794  1.0830  0.2616  2.1846
19026TIP3    H278494   6.637   2.165   3.804 -0.2921 -0.4303 -0.3163
19027TIP3   OH278495   2.679   4.357   3.612  0.1170  0.2216  0.2614
19027TIP3    H178496   2.587   4.380   3.621  0.0932  0.2155  0.0293
19027TIP3    H278497   2.726   4.434   3.643  0.0359 -0.1300  1.2895
19028TIP3   OH278498   3.699   0.851   1.062 -0.0868  0.1622  0.2472
19028TIP3    H178499   3.666   0.940   1.075 -2.0950 -0.5753  0.4836
19028TIP3    H278500   3.631   0.806   1.012  0.2988 -1.6061  1.2037
19029TIP3   OH278501   0.303   0.724  14.253  0.4617  0.2420 -0.2914
19029TIP3    H178502   0.297   0.757  14.343  0.3450  0.3437 -0.3350
19029TIP3    H278503   0.223   0.672  14.242  0.3560  0.4327 -0.4171
19030TIP3   OH278504   3.100   0.651  14.629  0.5983 -0.5707  0.8536
19030TIP3    H178505   3.051   0.647  14.547  0.3264  1.3991  0.8774
19030TIP3    H278506   3.179   0.600  14.612  1.0794  0.7101 -1.0328
19031TIP3   OH278507   2.983   4.173   4.900  0.2906 -0.1057  0.3333
19031TIP3    H178508   3.065   4.137   4.866  0.1277 -0.6138  0.4763
19031TIP3    H278509   2.926   4.097   4.910 -0.2355  0.2599  0.1362
19032TIP3   OH278510   2.640   5.813  13.942  0.7670 -0.0702 -0.5056
19032TIP3    H178511   2.561   5.850  13.983  1.2348  0.9406 -0.4923
19032TIP3    H278512   2.692   5.781  14.016  1.4844  1.5058 -0.2781
19033TIP3   OH278513   1.502   4.468   3.113  0.5168 -0.0237 -0.5376
19033TIP3    H178514   1.443   4.528   3.069  0.2379 -1.3888 -2.1576
19033TIP3    H278515   1.490   4.485   3.206 -0.3598  1.6180 -0.9199
19034TIP3   OH278516   1.907   1.677   5.662  0.0685  0.3984 -0.1824
19034TIP3    H178517   1.813   1.691   5.674  0.3063  2.0474  0.0654
19034TIP3    H278518   1.929   1.730   5.585  0.9108  0.6247  0.2035
19035TIP3   OH278519   0.574   6.560   1.325  0.7304  0.0564 -0.0397
19035TIP3    H178520   0.637   6.494   1.355 -1.0724 -1.3875  0.7459
19035TIP3    H278521   0.615   6.599   1.248  2.4370 -1.0262  0.2705
19036TIP3   OH278522   4.321   3.116  13.311  0.7920  0.1067 -0.3704
19036TIP3    H178523   4.320   3.180  13.382 -1.1720  0.3253 -0.5479
19036TIP3    H278524   4.338   3.167  13.232  1.4656  0.0741 -0.2523
19037TIP3   OH278525   6.336   5.109   0.937  0.6304  0.1913 -0.4013
19037TIP3    H178526   6.327   5.100   0.843  0.5576  1.2868 -0.5149
19037TIP3    H278527   6.317   5.201   0.954  0.7610  0.0341  0.6677
19038TIP3   OH278528   5.718   0.105  13.500  0.3373 -0.0607 -0.6274
19038TIP3    H178529   5.697   0.158  13.576 -0.4412  1.0989 -1.6087
19038TIP3    H278530   5.638   0.055  13.483  0.7081 -0.7703 -0.3490
19039TIP3   OH278531   5.725   4.018  13.782 -0.0548 -0.2308  0.0571
19039TIP3    H178532   5.782   4.066  13.842 -0.8114  0.2791  0.3873
19039TIP3    H278533   5.645   4.071  13.777  0.0928 -0.0840 -1.6506
19040TIP3   OH278534   5.597   6.190  12.570  0.2922 -1.2598  0.2011
19040TIP3    H178535   5.510   6.153  12.556  0.3084 -0.7532 -1.3769
19040TIP3    H278536   5.580   6.278  12.603  0.1678 -0.7427 -1.1938
19041TIP3   OH278537   5.433   4.932   2.936  0.8453  0.3438  0.0819
19041TIP3    H178538   5.473   5.018   2.921  0.5602  0.2379 -1.4419
19041TIP3    H278539   5.356   4.931   2.880  0.2005 -0.4982  0.9419
19042TIP3   OH278540   1.250   6.080  14.075 -0.3614 -0.0046  0.7399
19042TIP3    H178541   1.320   6.130  14.115 -1.3206  2.8143 -0.7908
19042TIP3    H278542   1.278   6.067  13.984 -0.9800 -0.5885  0.6168
19043TIP3   OH278543   6.731   3.242  16.528 -0.2713 -0.4826  0.2173
19043TIP3    H178544   6.710   3.332  16.551 -1.1784 -0.4630 -0.6160
19043TIP3    H278545   6.738   3.242  16.432  0.5221 -1.1399  0.2578
19044TIP3   OH278546   3.815   6.578  11.992  0.4432 -0.0187 -0.2727
19044TIP3    H178547   3.775   6.634  12.059  0.9268  0.1055 -0.0819
19044TIP3    H278548   3.904   6.562  12.024  0.3330 -0.8462 -0.3562
19045TIP3   OH278549   3.909   2.916   0.133 -0.2479 -0.4628 -0.4436
19045TIP3    H178550   3.939   2.861   0.206 -1.7983 -0.1000  0.5037
19045TIP3    H278551   3.977   2.983   0.125  0.9025 -1.6088 -0.6207
19046TIP3   OH278552   3.646   5.275  11.147  0.1311 -0.2194 -0.0117
19046TIP3    H178553   3.656   5.368  11.167  0.1849 -0.0617 -0.7626
19046TIP3    H278554   3.685   5.264  11.060  1.9433 -1.3161  0.8789
19047TIP3   OH278555   0.769   4.618   4.397  0.7550 -0.0144  0.2136
19047TIP3    H178556   0.711   4.544   4.412 -0.0186  0.2033 -1.4704
19047TIP3    H278557   0.845   4.601   4.453 -0.8175 -0.3754  2.3513
19048TIP3   OH278558   5.724   3.960   3.076  0.0152 -0.2337  0.3029
19048TIP3    H178559   5.784   3.885   3.067 -0.3328 -0.3308 -1.6943
19048TIP3    H278560   5.657   3.944   3.009  0.5110  2.3852 -0.9343
19049TIP3   OH278561   1.818   1.970  11.547 -0.5286 -0.2604  0.1356
19049TIP3    H178562   1.734   2.001  11.579  0.1864  1.1108  0.7814
19049TIP3    H278563   1.873   2.048  11.543  0.5849 -1.0428 -0.7212
19050TIP3   OH278564   5.305   0.514  11.147 -0.0607 -0.9170  0.7431
19050TIP3    H178565   5.300   0.554  11.233 -0.0739  0.9396 -0.0706
19050TIP3    H278566   5.290   0.586  11.086  0.4865 -2.0716 -0.8296
19051TIP3   OH278567   1.677   0.436  16.640 -0.2325 -0.3001  0.3116
19051TIP3    H178568   1.618   0.375  16.684 -1.0026 -1.6280 -2.3745
19051TIP3    H278569   1.619   0.501  16.600  0.3449  0.0497  0.0223
19052TIP3   OH278570   6.606   6.502   4.698 -0.1906 -0.2367 -0.0623
19052TIP3    H178571   6.571   6.591   4.708 -0.7477 -0.5430  0.8672
19052TIP3    H278572   6.666   6.492   4.773 -0.3457 -0.7385 -0.0009
19053TIP3   OH278573   4.686   0.217   4.750  0.0161  0.3704 -0.7461
19053TIP3    H178574   4.775   0.235   4.720 -0.0287  1.9965  0.0041
19053TIP3    H278575   4.670   0.282   4.819 -0.8370 -1.5103  0.9370
19054TIP3   OH278576   4.105   1.480   6.084 -0.1182  0.0364  0.6227
19054TIP3    H178577   4.048   1.524   6.147  0.7772  0.7623  0.9500
19054TIP3    H278578   4.193   1.487   6.122  0.2988 -0.4059 -0.2254
19055TIP3   OH278579   6.091   4.320   1.767  0.2352  0.3178  0.0238
19055TIP3    H178580   6.019   4.383   1.761  1.6795  2.2570  1.7153
19055TIP3    H278581   6.059   4.254   1.828 -0.3458  0.8164  0.2731
19056TIP3   OH278582   2.041   4.880   3.624 -0.5864  0.5679 -0.6248
19056TIP3    H178583   2.072   4.957   3.672  0.0570  0.7343 -1.2767
19056TIP3    H278584   1.951   4.867   3.654  0.1136  0.0351  1.3899
19057TIP3   OH278585   1.229   0.699  16.592  0.0482 -0.0825  0.1907
19057TIP3    H178586   1.221   0.778  16.646 -1.0064 -1.1372  1.6110
19057TIP3    H278587   1.144   0.691  16.549 -0.1416 -0.9137  0.7163
19058TIP3   OH278588   5.964   2.391   4.607 -0.7856  0.4314  0.0044
19058TIP3    H178589   6.025   2.323   4.577 -0.1093  1.2970 -0.6486
19058TIP3    H278590   5.900   2.398   4.536 -1.6751 -0.4911  0.7002
19059TIP3   OH278591   3.500   3.966  12.022  0.4393  0.6356  0.6461
19059TIP3    H178592   3.417   3.978  11.975  0.7092  0.4442  0.1087
19059TIP3    H278593   3.486   4.008  12.107 -0.1936  0.6435  0.5447
19060TIP3   OH278594   1.637   0.444   5.261 -0.1613  0.4707 -0.7991
19060TIP3    H178595   1.651   0.351   5.247 -0.4735 -0.0604  1.8221
19060TIP3    H278596   1.725   0.481   5.267 -0.0294  0.1590 -0.8247
19061TIP3   OH278597   5.744   1.128  13.417  0.3068 -0.1702  0.0528
19061TIP3    H178598   5.787   1.153  13.335  0.4134  0.8518  0.4001
19061TIP3    H278599   5.704   1.209  13.449  1.2652 -0.2549  1.5988
19062TIP3   OH278600   2.339   1.428  16.377  0.1783  0.6179 -0.3361
19062TIP3    H178601   2.413   1.407  16.434 -0.8346  0.1148  0.8578
19062TIP3    H278602   2.290   1.494  16.425 -1.0675 -0.3092 -0.2801
19063TIP3   OH278603   6.195   0.961  11.161 -0.4195 -0.0872 -0.2577
19063TIP3    H178604   6.136   0.888  11.144 -1.5483  0.5553  0.8202
19063TIP3    H278605   6.142   1.039  11.146  0.0483  0.4988  1.0358
19064TIP3   OH278606   2.630   3.220   2.123  0.0156  0.3771  0.4289
19064TIP3    H178607   2.656   3.167   2.047  2.7748  0.8896  0.9074
19064TIP3    H278608   2.628   3.158   2.196  1.7052  0.5656  0.6911
19065TIP3   OH278609   4.236   2.530   4.142 -0.3079  0.4327  0.0137
19065TIP3    H178610   4.294   2.503   4.071 -0.4576 -0.2986  0.1661
19065TIP3    H278611   4.157   2.478   4.129  0.2804 -0.9309  1.6746
19066TIP3   OH278612   1.677   5.101   4.064 -0.1128 -0.5259 -0.8274
19066TIP3    H178613   1.754   5.086   4.010  0.0570  2.3478 -1.5657
19066TIP3    H278614   1.712   5.124   4.150 -0.2240 -1.0006 -0.6534
19067TIP3   OH278615   4.929   5.261   4.493 -0.2384  0.1055 -0.1807
19067TIP3    H178616   5.010   5.214   4.513 -0.1248 -0.2426 -1.3887
19067TIP3    H278617   4.892   5.283   4.579  0.5052 -0.8103  0.3906
19068TIP3   OH278618   3.584   1.867   0.216 -0.2957  0.1025  0.0452
19068TIP3    H178619   3.599   1.921   0.294 -1.9777  1.3276 -0.4183
19068TIP3    H278620   3.590   1.929   0.143  0.9035 -0.9632 -0.8136
19069TIP3   OH278621   0.484   4.598  16.365 -0.6035 -0.3485 -0.3555
19069TIP3    H178622   0.443   4.596  16.279  0.1922 -1.2760 -0.7267
19069TIP3    H278623   0.491   4.692  16.385 -0.9242 -0.1219 -1.2270
19070TIP3   OH278624   3.459   0.809   2.445  0.1568 -0.0899 -0.5014
19070TIP3    H178625   3.536   0.777   2.398 -1.0740 -1.7726 -1.4752
19070TIP3    H278626   3.386   0.791   2.387 -1.1976 -0.3796  1.2039
19071TIP3   OH278627   4.809   6.328  13.620  0.3132  0.9724  0.3615
19071TIP3    H178628   4.844   6.241  13.601 -1.8892  0.2139 -0.4865
19071TIP3    H278629   4.814   6.336  13.716 -1.2179 -0.9134  0.6408
19072TIP3   OH278630   5.396   5.340  15.396 -0.3366 -0.2916  0.0837
19072TIP3    H178631   5.342   5.286  15.455 -2.2892  0.9490 -0.4591
19072TIP3    H278632   5.419   5.280  15.324 -1.2479 -0.8169  0.2024
19073TIP3   OH278633   3.293   6.801   5.859  0.5420  0.5361  0.4505
19073TIP3    H178634   3.298   6.870   5.926 -1.0279  0.2605  0.8821
19073TIP3    H278635   3.358   6.736   5.888  1.1443  1.2470  0.7253
19074TIP3   OH278636   0.920   3.478   2.476 -0.0515 -0.8299  0.1132
19074TIP3    H178637   0.853   3.524   2.526  0.1372  0.0601 -0.4326
19074TIP3    H278638   0.871   3.426   2.413 -0.2301  0.7667 -1.1079
19075TIP3   OH278639   0.450   4.756  14.378  0.0602 -0.6650  0.2293
19075TIP3    H178640   0.515   4.754  14.308 -0.8323 -2.1872 -0.6212
19075TIP3    H278641   0.501   4.748  14.459  0.9399 -2.5241 -0.4526
19076TIP3   OH278642   4.443   2.111  11.685 -0.0669  0.0693 -0.7137
19076TIP3    H178643   4.396   2.162  11.751  0.9024  0.7123 -0.4995
19076TIP3    H278644   4.392   2.031  11.676 -0.2013 -0.0501  0.8413
19077TIP3   OH278645   3.710   4.684   4.268  0.4042 -0.9578  0.1930
19077TIP3    H178646   3.761   4.661   4.346 -0.5189 -2.0248  0.5192
19077TIP3    H278647   3.714   4.606   4.213 -1.2442 -1.2672  0.4488
19078TIP3   OH278648   0.428   4.592   3.463  0.0161  0.0327  0.1136
19078TIP3    H178649   0.358   4.635   3.513 -1.0841 -3.3050  1.7695
19078TIP3    H278650   0.498   4.577   3.527  0.8821  0.3859 -0.7238
19079TIP3   OH278651   1.238   6.339  16.976  0.2216 -0.4862  0.2986
19079TIP3    H178652   1.319   6.389  16.983  0.2971 -0.8123  2.7437
19079TIP3    H278653   1.265   6.248  16.993 -0.4843 -0.7958 -0.1707
19080TIP3   OH278654   6.130   5.994   5.457 -0.2002  0.1871 -0.1364
19080TIP3    H178655   6.062   6.041   5.409  1.2033  1.2834 -1.1767
19080TIP3    H278656   6.207   6.051   5.450  1.5764 -2.1671 -1.3524
19081TIP3   OH278657   5.534   4.967  11.011 -0.2383  0.2228 -0.0465
19081TIP3    H178658   5.608   4.921  10.972 -0.9693 -0.1063 -1.0895
19081TIP3    H278659   5.460   4.946  10.954 -0.7623  2.0763 -0.1196
19082TIP3   OH278660   6.096   5.423   1.810  0.8370  0.1110 -0.6688
19082TIP3    H178661   6.083   5.438   1.716 -0.2742 -0.4031 -0.6067
19082TIP3    H278662   6.131   5.506   1.843  3.1647 -0.3117 -1.8654
19083TIP3   OH278663   2.093   2.052  11.863 -0.1645  0.8727  0.2163
19083TIP3    H178664   2.142   1.972  11.881 -0.2015  0.8677  0.2935
19083TIP3    H278665   2.019   2.048  11.923 -2.2862 -0.9133 -2.2832
19084TIP3   OH278666   0.012   1.356  15.783  0.0447  0.4424  0.0877
19084TIP3    H178667  -0.079   1.326  15.786  0.0315 -0.5500 -4.0432
19084TIP3    H278668   0.063   1.280  15.813 -0.4060 -0.2726 -0.8931
19085TIP3   OH278669   3.009   2.718   1.055 -0.5780 -0.2394  0.2514
19085TIP3    H178670   3.062   2.719   0.975 -0.1275  1.0336  0.5494
19085TIP3    H278671   3.045   2.645   1.106  0.3579  0.0843  0.0830
19086TIP3   OH278672   1.126   0.204   1.946 -0.2862  0.8567  0.4219
19086TIP3    H178673   1.191   0.182   2.013  0.5054  2.0399  0.0807
19086TIP3    H278674   1.165   0.277   1.898 -2.6895  3.0882  1.5397
19087TIP3   OH278675   4.250   0.235   0.560  0.4045  0.1004  0.4081
19087TIP3    H178676   4.232   0.186   0.640 -2.0607 -0.3086 -0.3156
19087TIP3    H278677   4.305   0.177   0.508  1.7046  0.2155  1.6068
19088TIP3   OH278678   1.987   0.877  12.480  1.0749  0.2249 -0.2271
19088TIP3    H178679   1.975   0.867  12.575 -0.7673  1.0377 -0.3232
19088TIP3    H278680   1.977   0.788  12.445  0.9536  0.0366  0.2751
19089TIP3   OH278681   6.673   2.280  14.526  0.1987  0.4395  0.2732
19089TIP3    H178682   6.650   2.341  14.457 -1.4052 -0.9121 -0.4477
19089TIP3    H278683   6.615   2.301  14.598 -1.2444 -0.9288 -0.4133
19090TIP3   OH278684   4.142   5.986  11.051  0.5355 -0.6733  0.3687
19090TIP3    H178685   4.130   6.039  11.130  1.0761 -2.3287  1.5942
19090TIP3    H278686   4.173   6.049  10.985 -2.0552  1.2000  0.7526
19091TIP3   OH278687   5.048   6.785   4.079 -0.0989  0.2533  0.0834
19091TIP3    H178688   5.010   6.847   4.141 -1.2447 -0.8646  0.5594
19091TIP3    H278689   4.981   6.718   4.069  1.6428 -1.6900  0.7261
19092TIP3   OH278690   5.122   2.149  14.677  0.8546  0.5987 -0.5953
19092TIP3    H178691   5.077   2.068  14.701  1.3230  0.8246  1.1568
19092TIP3    H278692   5.184   2.164  14.748  0.9881  2.3567 -1.0454
19093TIP3   OH278693   6.023   1.755  14.967  0.6978 -0.0998  0.0264
19093TIP3    H178694   6.018   1.842  14.929 -0.2738 -0.2608 -0.2275
19093TIP3    H278695   5.941   1.713  14.943  1.2900 -1.2091 -0.1465
19094TIP3   OH278696   3.890   0.308  11.774  0.0151  0.1715 -0.5295
19094TIP3    H178697   3.829   0.338  11.841 -3.4481 -2.8117 -1.9723
19094TIP3    H278698   3.967   0.277  11.823 -0.7981  1.4425  1.6675
19095TIP3   OH278699   4.379   0.017   0.509  0.5157  0.5225 -0.2841
19095TIP3    H178700   4.449   0.060   0.460  1.3855 -0.8236 -0.2487
19095TIP3    H278701   4.328  -0.029   0.443  0.0560  0.9322 -0.2254
19096TIP3   OH278702   2.107   5.912   6.586  0.1552 -0.2349 -0.0347
19096TIP3    H178703   2.176   5.855   6.552  0.1433  0.1377 -0.6862
19096TIP3    H278704   2.132   6.000   6.558  1.5865  0.5238  3.1373
19097TIP3   OH278705   1.944   2.235  13.707  0.6616  0.2048  0.6906
19097TIP3    H178706   1.980   2.275  13.627 -1.7569  0.4421 -0.3610
19097TIP3    H278707   1.930   2.143  13.683 -0.8296  0.4544  0.5243
19098TIP3   OH278708   4.601   0.217   3.889  0.3591 -0.1930  0.1761
19098TIP3    H178709   4.628   0.308   3.901 -0.2353  0.2781 -1.7613
19098TIP3    H278710   4.639   0.192   3.805 -0.7117 -1.2672 -0.0032
19099TIP3   OH278711   0.248   1.065  16.628  0.5781 -0.2083 -0.2033
19099TIP3    H178712   0.338   1.057  16.659  0.2665 -0.9122  0.5485
19099TIP3    H278713   0.202   0.992  16.669 -0.7543  1.1862  0.9159
19100TIP3   OH278714   1.815   4.149   2.231 -0.4758  0.0939 -0.8686
19100TIP3    H178715   1.859   4.161   2.315 -1.9126 -4.4903  0.8851
19100TIP3    H278716   1.866   4.081   2.186 -1.0763  0.7498 -2.6553
19101TIP3   OH278717   4.516   5.788   2.558  0.1408  0.0195  0.2621
19101TIP3    H178718   4.534   5.724   2.627 -1.7128  1.2505  2.0029
19101TIP3    H278719   4.594   5.843   2.556  0.6193 -0.6302  0.6921
19102TIP3   OH278720   1.134   1.105  12.078  0.5210  0.1019 -0.2955
19102TIP3    H178721   1.056   1.106  12.022 -1.3158  1.8262  2.1153
19102TIP3    H278722   1.178   1.188  12.058  1.0055 -0.2431 -0.6692
19103TIP3   OH278723   2.662   1.460  14.089  0.2051  0.0518  0.2887
19103TIP3    H178724   2.620   1.495  14.010 -0.3024 -0.9281  0.1167
19103TIP3    H278725   2.751   1.439  14.062  0.3822  0.7872  0.2820
19104TIP3   OH278726   1.951   4.164   5.570 -0.4452 -0.2449 -0.1749
19104TIP3    H178727   1.950   4.253   5.604 -0.5106 -0.1785 -0.3489
19104TIP3    H278728   1.996   4.113   5.637  0.5891  0.1194 -0.5714
19105TIP3   OH278729   5.563   4.944   3.578 -0.2956  0.3910 -0.4996
19105TIP3    H178730   5.616   5.018   3.608  1.8748 -0.5012 -1.8888
19105TIP3    H278731   5.543   4.965   3.487  0.1383 -0.6062 -0.8351
19106TIP3   OH278732   1.313   6.624   5.058  1.1300 -0.0127 -0.5355
19106TIP3    H178733   1.302   6.716   5.081  0.0287  0.6519 -3.3170
19106TIP3    H278734   1.393   6.623   5.005  1.5527 -0.8320  0.0884
19107TIP3   OH278735   1.228   4.074   0.043 -0.0883  0.0220  0.0424
19107TIP3    H178736   1.153   4.104  -0.009  0.0828  0.0022 -0.2202
19107TIP3    H278737   1.276   4.016  -0.016 -0.0276 -0.1995  0.3100
19108TIP3   OH278738   5.966   0.055   1.713 -0.0377 -0.1586 -0.2384
19108TIP3    H178739   6.053   0.069   1.675  0.4272 -1.4204  0.3378
19108TIP3    H278740   5.948   0.135   1.763 -0.1903  1.0736 -2.1527
19109TIP3   OH278741   3.418   3.374  10.927  0.3803  0.1451 -0.2137
19109TIP3    H178742   3.361   3.430  10.875 -0.0876 -0.5133 -0.4236
19109TIP3    H278743   3.473   3.434  10.977  1.6317  0.8131 -2.2768
19110TIP3   OH278744   3.606   0.532   3.857 -0.3229 -0.0586 -0.2259
19110TIP3    H178745   3.601   0.450   3.905  1.8584 -0.9204 -1.3342
19110TIP3    H278746   3.603   0.507   3.765 -0.3867  1.1709 -0.5757
19111TIP3   OH278747   5.315   1.220   4.487  0.0610  0.0809  0.0548
19111TIP3    H178748   5.326   1.272   4.407 -1.6482 -0.9625 -0.9301
19111TIP3    H278749   5.349   1.133   4.464  0.1870 -0.0473  0.6984
19112TIP3   OH278750   2.444   3.238   1.291 -0.1086  0.1095 -0.2934
19112TIP3    H178751   2.507   3.255   1.361  0.0453 -0.1943 -0.3612
19112TIP3    H278752   2.413   3.149   1.307 -0.2637  0.1330 -0.4611
19113TIP3   OH278753   6.105   6.582   5.386  1.1993  0.7186 -0.8803
19113TIP3    H178754   6.074   6.659   5.338  0.1321  1.0973  0.3469
19113TIP3    H278755   6.117   6.515   5.318 -0.9176  1.0259 -1.6594
19114TIP3   OH278756   0.708   0.666  16.316 -0.1264 -0.7347  0.4689
19114TIP3    H178757   0.718   0.752  16.277 -0.8558 -0.9181 -0.1414
19114TIP3    H278758   0.710   0.605  16.242  3.5552 -1.5950  1.0645
19115TIP3   OH278759   0.395   2.444   0.691 -0.2023 -0.2965  0.3487
19115TIP3    H178760   0.377   2.450   0.598 -0.1097 -0.1549  0.3403
19115TIP3    H278761   0.484   2.476   0.701 -0.8597  1.4973  0.7280
19116TIP3   OH278762   6.077   5.581  16.745  0.1369 -0.1522 -0.2091
19116TIP3    H178763   6.154   5.525  16.754  0.1903 -0.0086  0.2788
19116TIP3    H278764   6.101   5.645  16.678  0.5868  0.1263  0.2156
19117TIP3   OH278765   6.290   6.468  15.262 -0.0903 -0.0597  0.5779
19117TIP3    H178766   6.197   6.462  15.239  0.0317 -0.1428  0.0931
19117TIP3    H278767   6.292   6.460  15.358 -0.7890  2.2221  0.8625
19118TIP3   OH278768   1.822   2.126  16.237 -0.2285  0.6474  0.6596
19118TIP3    H178769   1.745   2.069  16.244  0.0281 -0.1208 -1.8311
19118TIP3    H278770   1.786   2.215  16.240 -1.2386  0.3000 -0.4086
19119TIP3   OH278771   2.494   4.054  13.112  0.0622 -0.1067 -0.0135
19119TIP3    H178772   2.480   4.019  13.024  0.2917  0.0741 -0.1205
19119TIP3    H278773   2.574   4.105  13.106  0.9081 -1.2950  0.6396
19120TIP3   OH278774   0.687   4.056  12.803 -0.4137  0.6457 -0.0473
19120TIP3    H178775   0.744   4.020  12.735 -0.2400  0.3872  0.2351
19120TIP3    H278776   0.717   4.146  12.815  0.5493  0.2396  0.7521
19121TIP3   OH278777   5.273   3.216  11.418  0.7027 -0.0060  0.0448
19121TIP3    H178778   5.222   3.145  11.457  0.4879  0.5256  0.7628
19121TIP3    H278779   5.224   3.296  11.441  1.4947  0.4572  0.1549
19122TIP3   OH278780   1.966   2.450   2.905 -0.1752  0.3713 -0.5209
19122TIP3    H178781   1.932   2.371   2.863  0.5705 -0.2285 -0.0253
19122TIP3    H278782   1.889   2.507   2.915 -0.9370 -0.7187  0.0805
19123TIP3   OH278783   3.929   2.717   3.520  0.0548 -0.3974 -0.4119
19123TIP3    H178784   3.976   2.641   3.485 -0.2269 -0.6866 -0.1711
19123TIP3    H278785   3.997   2.782   3.535  0.2851 -0.5543 -0.7420
19124TIP3   OH278786   2.051   0.250   3.431  0.4661  0.2380  0.0115
19124TIP3    H178787   2.080   0.213   3.348 -0.8877  1.4999 -1.0807
19124TIP3    H278788   2.046   0.344   3.415  0.1152  0.5042  1.5182
19125TIP3   OH278789   3.138   4.700  13.055  0.1286  0.6324 -0.2656
19125TIP3    H178790   3.193   4.644  13.001 -0.6417  0.1813 -0.6066
19125TIP3    H278791   3.150   4.667  13.144  0.6661  0.7565 -0.2929
19126TIP3   OH278792   0.133   0.502  11.402 -0.8484 -0.3771 -0.1417
19126TIP3    H178793   0.219   0.475  11.371 -0.3181 -0.1784  1.0825
19126TIP3    H278794   0.124   0.593  11.374 -0.0812  0.0199  0.8380
19127TIP3   OH278795   5.311   1.479  13.368 -0.0165 -0.6415 -0.0038
19127TIP3    H178796   5.294   1.388  13.393  0.9044 -0.2976  2.0296
19127TIP3    H278797   5.347   1.519  13.447 -0.1116  1.4199 -0.9608
19128TIP3   OH278798   5.617   4.433   3.541  0.1383 -0.5398  0.6816
19128TIP3    H178799   5.568   4.354   3.559 -0.4727  0.0865  1.8842
19128TIP3    H278800   5.592   4.494   3.610 -0.4319  1.1786 -0.9394
19129TIP3   OH278801   1.052   2.446  14.814 -0.2882  0.3393  0.3513
19129TIP3    H178802   0.976   2.467  14.759 -0.5623 -0.0953  0.5640
19129TIP3    H278803   1.126   2.486  14.767 -0.7599  1.5950  0.6223
19130TIP3   OH278804   5.847   0.018  14.376  0.8246  0.2225 -0.3104
19130TIP3    H178805   5.818   0.078  14.445  3.1184  0.4301  0.5338
19130TIP3    H278806   5.917  -0.033  14.415  1.4175 -0.4652 -2.1430
19131TIP3   OH278807   0.973   4.806   1.970  0.2288  0.1965 -0.5848
19131TIP3    H178808   0.910   4.738   1.996  0.9932 -1.2478 -2.2401
19131TIP3    H278809   0.986   4.858   2.049 -1.2743 -0.8843  0.4435
19132TIP3   OH278810   5.514   0.277   3.990  0.0457 -0.0538 -0.1650
19132TIP3    H178811   5.541   0.241   3.906 -1.0754  0.1137 -0.6078
19132TIP3    H278812   5.418   0.275   3.988 -0.0166  1.2856  0.5258
19133TIP3   OH278813   1.813   0.498  10.915 -0.3110  0.2738  0.3870
19133TIP3    H178814   1.730   0.500  10.867 -1.2409  1.6947  1.9696
19133TIP3    H278815   1.825   0.405  10.937 -0.8177 -0.1324 -0.9230
19134TIP3   OH278816   3.882   6.790   1.190 -0.2486  0.5222 -0.6658
19134TIP3    H178817   3.849   6.708   1.153 -0.5447 -1.5731  3.6286
19134TIP3    H278818   3.976   6.774   1.205  0.1994  1.8841 -1.8172
19135TIP3   OH278819   2.181   6.071  15.841  0.3785 -0.1598 -0.3757
19135TIP3    H178820   2.198   6.142  15.778 -1.0962 -0.4714 -1.1731
19135TIP3    H278821   2.264   6.061  15.888  0.5089  2.3894  0.0896
19136TIP3   OH278822   5.588   6.322   4.303  0.2949  0.6580  0.0509
19136TIP3    H178823   5.585   6.354   4.212 -0.2722 -0.4142 -0.3250
19136TIP3    H278824   5.506   6.275   4.314 -0.7052  2.6925  1.8913
19137TIP3   OH278825   2.491   1.852  11.386  0.3473 -0.7777  0.2089
19137TIP3    H178826   2.585   1.862  11.402  0.6270 -0.4415 -1.4740
19137TIP3    H278827   2.485   1.823  11.295 -1.1586 -1.4741  0.4952
19138TIP3   OH278828   5.193   3.152   6.299  0.4529 -0.1640  0.2010
19138TIP3    H178829   5.276   3.116   6.332  0.2965 -1.1390 -0.4012
19138TIP3    H278830   5.149   3.186   6.376  0.8847 -0.7530  0.7235
19139TIP3   OH278831   0.913   5.295  14.153 -0.1975 -0.0071  0.0595
19139TIP3    H178832   0.930   5.368  14.093 -0.8629 -1.4835 -2.0250
19139TIP3    H278833   0.819   5.297  14.167  0.1084  1.2134  2.3332
19140TIP3   OH278834   5.106   2.974   6.091 -0.3517 -0.0479  0.2331
19140TIP3    H178835   5.130   3.027   6.167 -0.3691  0.3003 -0.0004
19140TIP3    H278836   5.011   2.982   6.085 -0.3699 -0.2203  0.2781
19141TIP3   OH278837   3.679   6.353   1.906  0.2243 -0.3343  0.1402
19141TIP3    H178838   3.743   6.424   1.913  0.0068 -0.2817  2.5537
19141TIP3    H278839   3.726   6.283   1.860  1.3294  0.4187  0.0804
19142TIP3   OH278840   6.441   4.357   3.529 -0.1367  0.7865  0.4196
19142TIP3    H178841   6.380   4.284   3.518  0.3475  0.5609 -0.9491
19142TIP3    H278842   6.481   4.368   3.443  1.0748  1.5474  1.0551
19143TIP3   OH278843   2.309   3.245  14.277  0.3291 -0.7797 -0.5927
19143TIP3    H178844   2.376   3.301  14.237  0.9108  0.6931  2.1369
19143TIP3    H278845   2.230   3.261  14.226  1.0186  0.9056 -1.1994
19144TIP3   OH278846   4.531   5.969  12.024  0.0414 -0.1883  0.5023
19144TIP3    H178847   4.548   5.959  11.931  0.9280 -1.0450  0.7450
19144TIP3    H278848   4.505   5.882  12.054  0.5984 -0.1189  1.2201
19145TIP3   OH278849   5.667   1.565  12.243 -0.4558 -0.3097 -0.3301
19145TIP3    H178850   5.683   1.637  12.182  0.6503 -0.5204 -0.3223
19145TIP3    H278851   5.722   1.586  12.318  1.0463 -1.8761 -0.9342
19146TIP3   OH278852   4.352   5.678  12.313  0.1464 -0.0269  0.3564
19146TIP3    H178853   4.397   5.688  12.228  1.5252  1.2598  1.1796
19146TIP3    H278854   4.422   5.654  12.374 -0.2427  2.0261  1.6968
19147TIP3   OH278855   2.797   0.598   0.101  0.2995 -0.1103  0.2060
19147TIP3    H178856   2.843   0.515   0.091 -0.2186 -0.4781  0.8527
19147TIP3    H278857   2.823   0.630   0.187  0.0702  0.1325  0.1848
19148TIP3   OH278858   0.579   4.969  15.598  0.3542 -0.0875 -0.3819
19148TIP3    H178859   0.672   4.950  15.609  0.9551  3.2030  1.6626
19148TIP3    H278860   0.550   4.997  15.685 -2.1014  0.6715 -1.3490
19149TIP3   OH278861   4.193   0.272   3.956  0.3360  0.7715 -0.5464
19149TIP3    H178862   4.198   0.264   4.051  0.7864  1.8064 -0.4675
19149TIP3    H278863   4.254   0.206   3.923 -0.4976 -0.2256 -0.1650
19150TIP3   OH278864   3.626   5.166  13.019  0.5817 -0.0199  0.1658
19150TIP3    H178865   3.571   5.150  13.096 -0.7189  1.7077 -0.3391
19150TIP3    H278866   3.564   5.181  12.948  1.7367  0.5559 -0.7514
19151TIP3   OH278867   1.800   3.313   1.926 -0.6582  0.1164  0.1960
19151TIP3    H178868   1.793   3.407   1.942 -3.1870  0.0533 -0.1283
19151TIP3    H278869   1.713   3.279   1.947 -0.4479 -1.8152 -1.7402
19152TIP3   OH278870   6.629   3.954  12.917 -0.0631 -0.0935 -0.2980
19152TIP3    H178871   6.560   4.009  12.956  0.3534 -0.5775  1.1996
19152TIP3    H278872   6.704   4.013  12.908 -0.6807  0.4837 -2.1041
19153TIP3   OH278873   1.168   1.338   4.745  0.2061 -0.9072  0.2502
19153TIP3    H178874   1.152   1.302   4.657 -0.7553 -1.9307  0.8164
19153TIP3    H278875   1.249   1.388   4.736  0.2895 -1.2465 -1.1490
19154TIP3   OH278876   1.579   1.712  14.575 -0.3115 -0.4761  0.2577
19154TIP3    H178877   1.582   1.725  14.480  1.9295 -0.3084  0.2888
19154TIP3    H278878   1.589   1.800  14.611  4.1390 -0.8197  0.5128
19155TIP3   OH278879   1.694   4.128   1.336 -0.4705  0.1888 -0.3163
19155TIP3    H178880   1.758   4.186   1.378  0.2461  0.1183 -1.2756
19155TIP3    H278881   1.611   4.177   1.340 -0.1499  0.7130  0.0569
19156TIP3   OH278882   2.351   4.934  13.985 -0.3898  0.0467  0.8184
19156TIP3    H178883   2.255   4.936  13.995 -0.3674 -0.1129  1.0723
19156TIP3    H278884   2.379   5.021  14.012 -0.2186 -0.7192  3.3930
19157TIP3   OH278885   3.870   4.686  14.755  0.3666  0.2239  0.3307
19157TIP3    H178886   3.805   4.724  14.813  0.4539 -1.4287  1.5855
19157TIP3    H278887   3.885   4.753  14.688 -1.3131  1.3264  0.9963
19158TIP3   OH278888   0.583   4.320  16.745 -0.3946 -0.1628  0.6110
19158TIP3    H178889   0.659   4.359  16.702  1.1581 -1.3731  2.1515
19158TIP3    H278890   0.605   4.227  16.754 -1.7303 -0.4015  1.7951
19159TIP3   OH278891   6.305   0.254  15.630  0.2526  0.6214  0.0142
19159TIP3    H178892   6.240   0.237  15.698 -1.6763  2.1981 -1.3336
19159TIP3    H278893   6.313   0.349  15.627  1.0610  0.5387 -1.2666
19160TIP3   OH278894   5.158   5.122   1.677 -0.2036 -0.0336  0.3989
19160TIP3    H178895   5.160   5.217   1.669 -0.8642 -0.0362  0.1228
19160TIP3    H278896   5.247   5.094   1.654  0.4243  0.6051  1.9569
19161TIP3   OH278897   5.383   5.181  11.418 -0.0721 -0.1578  0.0554
19161TIP3    H178898   5.449   5.237  11.459 -1.1281  0.6418  0.7132
19161TIP3    H278899   5.308   5.239  11.404 -1.2982 -1.4536  0.9811
19162TIP3   OH278900   2.102   4.429  14.991 -0.5850  0.2029  1.0765
19162TIP3    H178901   2.009   4.439  14.971 -0.1996  0.2973 -0.8694
19162TIP3    H278902   2.145   4.429  14.905  1.7061  4.7941  1.9605
19163TIP3   OH278903   3.831   3.598  12.241  0.0892  0.0634 -0.2196
19163TIP3    H178904   3.903   3.614  12.303  0.6891 -0.2410 -0.8259
19163TIP3    H278905   3.805   3.686  12.212 -0.1705  0.2048  0.4329
19164TIP3   OH278906   1.499   1.134  14.714  0.5945 -0.1371 -0.0462
19164TIP3    H178907   1.501   1.210  14.771 -0.8174  0.9247 -1.3321
19164TIP3    H278908   1.406   1.113  14.706  0.8215 -0.7215 -1.3325
19165TIP3   OH278909   3.068   3.028  10.714 -0.3943  0.3723 -0.0416
19165TIP3    H178910   3.139   3.086  10.687 -0.1614  0.8366  1.4370
19165TIP3    H278911   3.103   2.940  10.706  0.0377  0.5537 -0.1536
19166TIP3   OH278912   6.096   5.816  15.266  0.1874 -0.0351  0.4719
19166TIP3    H178913   6.016   5.864  15.285 -0.0798 -0.1034 -0.4276
19166TIP3    H278914   6.112   5.832  15.173  1.5471  0.4784  0.7617
19167TIP3   OH278915   3.310   2.416   0.798  0.2460  0.0490  0.7683
19167TIP3    H178916   3.373   2.475   0.839  0.2515  0.3216  0.3695
19167TIP3    H278917   3.338   2.410   0.707 -0.0358 -0.1920  0.6950
19168TIP3   OH278918   5.929   1.614  13.755 -0.6998 -0.0376  0.5223
19168TIP3    H178919   5.860   1.558  13.791 -0.8953  0.3900  0.8236
19168TIP3    H278920   5.957   1.668  13.829 -0.7921  0.5388  0.1451
19169TIP3   OH278921   5.508   0.073  14.316 -0.0225 -0.0611  0.2935
19169TIP3    H178922   5.417   0.053  14.293  0.1482 -0.6597  0.1336
19169TIP3    H278923   5.504   0.161  14.354 -0.5117  0.3886 -0.7389
19170TIP3   OH278924   2.861   1.040   0.385 -0.1055 -0.0675 -0.1149
19170TIP3    H178925   2.810   1.063   0.307 -0.3136 -0.0973  0.0101
19170TIP3    H278926   2.796   1.034   0.455  0.2113  1.0482  0.3026
19171TIP3   OH278927   2.301   4.113  12.327 -0.3021 -0.8639  0.3576
19171TIP3    H178928   2.208   4.136  12.332 -0.0360  0.3915 -0.1538
19171TIP3    H278929   2.346   4.197  12.323  0.8628 -1.4653  0.6338
19172TIP3   OH278930   1.353   6.070   1.030  0.3242  0.0829 -0.0809
19172TIP3    H178931   1.271   6.103   0.993  1.5977  0.0358 -3.1724
19172TIP3    H278932   1.421   6.123   0.989  2.0357 -1.9267  0.0283
19173TIP3   OH278933   1.603   4.405  16.472 -0.4168  0.5539 -0.1318
19173TIP3    H178934   1.607   4.325  16.420 -3.5067  0.0991  0.1516
19173TIP3    H278935   1.672   4.460  16.436  1.3152 -1.8765 -0.8612
19174TIP3   OH278936   3.967   4.599  16.464  0.6934  0.5063  0.4854
19174TIP3    H178937   3.962   4.631  16.554  2.1012  2.6995 -0.1236
19174TIP3    H278938   3.955   4.677  16.411 -0.9107 -0.8656 -1.2938
19175TIP3   OH278939   0.755   5.710   1.794 -0.1047  0.0930  0.1651
19175TIP3    H178940   0.809   5.781   1.825  0.5767 -0.8031  1.0927
19175TIP3    H278941   0.815   5.636   1.782 -1.0236 -0.8011  0.8119
19176TIP3   OH278942   4.671   1.870   3.738  0.9526 -0.5175  0.3175
19176TIP3    H178943   4.759   1.843   3.762  1.0540  0.2206  0.7984
19176TIP3    H278944   4.656   1.950   3.788  0.4196 -0.0459 -0.5678
19177TIP3   OH278945   0.317   3.138  16.776  0.3185  0.0480 -0.2087
19177TIP3    H178946   0.260   3.215  16.775  1.6987  1.1098 -0.1171
19177TIP3    H278947   0.326   3.113  16.684  0.8502  0.7793 -0.3661
19178TIP3   OH278948   3.353   3.670   4.233 -0.3124 -0.1894 -0.0364
19178TIP3    H178949   3.425   3.618   4.197 -1.0105 -0.5511 -0.9496
19178TIP3    H278950   3.286   3.669   4.164 -2.0460 -1.5896  1.5568
19179TIP3   OH278951   2.488   5.223  16.984  0.1058  0.2609  0.1836
19179TIP3    H178952   2.544   5.272  16.924  0.9681 -0.2343  0.5636
19179TIP3    H278953   2.438   5.163  16.928  0.6931  0.0070 -0.0784
19180TIP3   OH278954   2.434   2.494  12.463  0.1011  0.3185  0.3018
19180TIP3    H178955   2.349   2.516  12.424  0.5640 -1.1343 -1.6970
19180TIP3    H278956   2.488   2.466  12.389  2.3349  1.1039  1.5129
19181TIP3   OH278957   0.549   3.619  13.516  0.1762  0.0162  0.5118
19181TIP3    H178958   0.522   3.529  13.500 -0.7073  0.5659 -1.3899
19181TIP3    H278959   0.477   3.672  13.482  1.0770  1.4575  0.7659
19182TIP3   OH278960   0.042   2.040   1.919  0.1444  0.5288 -0.5061
19182TIP3    H178961  -0.009   1.959   1.919 -0.0176  0.6305 -0.5670
19182TIP3    H278962   0.039   2.070   1.828 -1.5811  1.7255 -0.1111
19183TIP3   OH278963   5.459   4.278  12.917 -0.6425  0.1018  0.5463
19183TIP3    H178964   5.393   4.291  12.985 -1.6106  0.3435 -0.4117
19183TIP3    H278965   5.433   4.197  12.874  0.9390 -0.9857  1.5191
19184TIP3   OH278966   3.199   6.495  16.117  0.0776  0.8085  0.2911
19184TIP3    H178967   3.155   6.420  16.157  0.2572 -0.0141 -1.0201
19184TIP3    H278968   3.131   6.561  16.108 -0.5334  0.1058 -0.3025
19185TIP3   OH278969   6.431   2.983  11.481 -0.1373 -0.2769  0.0498
19185TIP3    H178970   6.524   2.966  11.466 -0.6334 -1.4066 -2.2592
19185TIP3    H278971   6.422   3.078  11.474  0.9278 -0.0865  1.0390
19186TIP3   OH278972   5.239   5.837  14.569 -0.3244  0.1460  0.1040
19186TIP3    H178973   5.302   5.897  14.530 -1.8231  0.9900 -1.1393
19186TIP3    H278974   5.281   5.751  14.561  0.3021  0.5499 -1.5823
19187TIP3   OH278975   5.673   1.332  14.707  0.8110  0.2908  0.0201
19187TIP3    H178976   5.677   1.236  14.705 -2.5145  0.0464  0.0231
19187TIP3    H278977   5.744   1.361  14.649  2.3581 -2.0951  0.5762
19188TIP3   OH278978   5.000   2.346   2.514 -0.2799  0.4587 -0.6667
19188TIP3    H178979   5.040   2.298   2.586 -0.0878 -0.8635 -1.6137
19188TIP3    H278980   5.070   2.357   2.450 -0.1970  2.4574 -0.2828
19189TIP3   OH278981   4.729   5.328   5.010 -0.5048 -0.5726 -0.5335
19189TIP3    H178982   4.785   5.404   4.994 -0.0072 -0.9993 -0.8727
19189TIP3    H278983   4.644   5.364   5.034  0.0649  0.0993  0.5327
19190TIP3   OH278984   3.439   6.059   0.674 -0.4061 -0.4813 -0.6488
19190TIP3    H178985   3.476   6.142   0.642 -0.0565 -0.2414  0.3557
19190TIP3    H278986   3.402   6.018   0.596  3.5117 -1.5857 -2.1435
19191TIP3   OH278987   2.853   0.395   4.589  0.2735  0.0206  0.0029
19191TIP3    H178988   2.913   0.323   4.608 -2.4905 -2.6970 -0.7754
19191TIP3    H278989   2.825   0.380   4.499 -1.1226  1.5293  0.1429
19192TIP3   OH278990   4.143   1.724  12.157 -0.4115  0.0521 -0.1539
19192TIP3    H178991   4.134   1.660  12.086  0.7101 -0.3457  0.0426
19192TIP3    H278992   4.122   1.808  12.116  0.6905 -0.1029 -1.1141
19193TIP3   OH278993   0.808   6.555  14.217  0.2329  0.3715 -0.4269
19193TIP3    H178994   0.834   6.566  14.308  2.6347  0.2896 -1.0502
19193TIP3    H278995   0.848   6.473  14.189 -0.5547  0.3349 -1.5355
19194TIP3   OH278996   2.935   2.942   3.746 -0.2513 -0.6375 -0.4332
19194TIP3    H178997   2.965   2.852   3.735  0.4171 -0.6922  1.5365
19194TIP3    H278998   3.014   2.996   3.734  0.0387 -0.5638  1.5026
19195TIP3   OH278999   0.529   3.765  10.261  0.4681  0.9104 -0.1299
19195TIP3    H179000   0.449   3.718  10.236 -0.5922  2.5606 -0.0240
19195TIP3    H279001   0.590   3.697  10.287 -0.9014 -0.4133 -0.2432
19196TIP3   OH279002   3.243   3.730   3.216 -0.1092 -0.0782  0.2554
19196TIP3    H179003   3.215   3.689   3.135  0.5126 -3.1193  1.4425
19196TIP3    H279004   3.161   3.751   3.262 -0.4807  2.2262 -1.2911
19197TIP3   OH279005   0.799   3.638   0.184 -0.3302  0.1179 -0.3341
19197TIP3    H179006   0.787   3.551   0.221  0.3929 -0.0970 -0.6029
19197TIP3    H279007   0.812   3.624   0.091 -0.4307  0.5318 -0.4139
19198TIP3   OH279008   3.678   1.220  14.092  0.8090  0.1582 -0.4130
19198TIP3    H179009   3.620   1.295  14.075  2.2508  1.4577  0.2184
19198TIP3    H279010   3.639   1.177  14.168 -0.5472 -0.3240 -1.3327
19199TIP3   OH279011   5.104   0.531  12.970  0.1013  0.4628 -0.7830
19199TIP3    H179012   5.066   0.611  12.933  0.5945 -0.2867 -3.0906
19199TIP3    H279013   5.153   0.561  13.046 -3.2058  1.7374  1.0404
19200TIP3   OH279014   4.706   3.351   3.935  0.1347  0.0474  0.5911
19200TIP3    H179015   4.768   3.298   3.985 -0.3785 -1.9574 -0.7817
19200TIP3    H279016   4.760   3.414   3.888  0.7544  0.8968  2.3493
19201TIP3   OH279017   2.482   1.692   1.586  0.7982 -0.4169 -0.1695
19201TIP3    H179018   2.452   1.726   1.670  0.8057  0.9814 -0.7088
19201TIP3    H279019   2.554   1.750   1.560  0.3845 -0.4281 -1.4198
19202TIP3   OH279020   1.845   6.705  12.597  0.0148  0.7780 -0.3929
19202TIP3    H179021   1.835   6.642  12.525 -1.5008  1.6935 -1.0273
19202TIP3    H279022   1.870   6.787  12.553  0.7987  0.9245  0.3064
19203TIP3   OH279023   4.546   4.225   1.343 -0.7959  0.2241 -0.0383
19203TIP3    H179024   4.567   4.159   1.409 -2.0605 -0.4534 -0.2753
19203TIP3    H279025   4.477   4.278   1.383 -1.5222 -0.1462 -0.7601
19204TIP3   OH279026   5.084   2.413  11.290 -0.5885  0.3010  0.0603
19204TIP3    H179027   5.089   2.470  11.214 -0.2090 -0.2086 -0.3004
19204TIP3    H279028   5.163   2.432  11.340 -0.1560 -0.3289 -0.3673
19205TIP3   OH279029   2.580   4.721  14.123 -0.3349 -0.0788  0.7660
19205TIP3    H179030   2.535   4.772  14.055 -1.3941  0.0165  1.5171
19205TIP3    H279031   2.620   4.648  14.075 -1.7350 -0.4663  0.1344
19206TIP3   OH279032   1.582   2.689  16.986  0.2995 -0.4460  0.1881
19206TIP3    H179033   1.656   2.750  16.981  0.4343 -0.7011 -1.4204
19206TIP3    H279034   1.586   2.654  17.075  2.8513 -1.3266 -0.1838
19207TIP3   OH279035   4.952   5.483  16.840 -0.4134 -0.4782 -0.4147
19207TIP3    H179036   4.869   5.525  16.820 -0.1719 -0.7097 -2.0406
19207TIP3    H279037   4.999   5.547  16.894 -1.4083 -0.1157  0.0352
19208TIP3   OH279038   3.973   5.575   5.646 -0.3264 -0.2151  0.2741
19208TIP3    H179039   3.882   5.586   5.619  0.0743  1.6135 -0.4638
19208TIP3    H279040   3.971   5.581   5.742 -1.2210 -2.4624  0.4519
19209TIP3   OH279041   6.068   2.250  11.074 -0.9316 -0.6802  0.0078
19209TIP3    H179042   5.980   2.225  11.100 -0.9309  0.5794  1.3219
19209TIP3    H279043   6.125   2.202  11.134 -0.7757 -0.6110 -0.0840
19210TIP3   OH279044   6.508   0.496  15.025  0.5549  0.0640  0.4233
19210TIP3    H179045   6.513   0.540  14.940  1.3455 -2.3176 -0.8603
19210TIP3    H279046   6.594   0.456  15.036 -0.4633 -2.1906  0.8530
19211TIP3   OH279047   0.585   6.777   5.477  0.4019  0.5232 -0.2741
19211TIP3    H179048   0.635   6.834   5.419 -2.2451  2.5298 -0.8182
19211TIP3    H279049   0.518   6.738   5.421 -1.0614  1.0378  1.0168
19212TIP3   OH279050   1.992   0.703  14.796  0.1207 -0.3874 -0.0501
19212TIP3    H179051   2.048   0.720  14.721  0.7286 -0.1487  0.4473
19212TIP3    H279052   1.999   0.782  14.849  0.0021 -0.7059  0.4462
19213TIP3   OH279053   4.659   1.180  15.317 -0.9930 -0.4101  0.0370
19213TIP3    H179054   4.616   1.095  15.324  1.0735 -1.5364 -0.2230
19213TIP3    H279055   4.748   1.160  15.287 -1.1832  2.0408 -2.5695
19214TIP3   OH279056   2.558   4.878  13.574  0.1118  0.3396 -0.3283
19214TIP3    H179057   2.635   4.936  13.572 -0.3740  0.9863 -1.0460
19214TIP3    H279058   2.562   4.832  13.490  0.2531 -0.3583  0.0585
19215TIP3   OH279059   3.147   2.230  14.379 -0.1357  0.0316  0.1269
19215TIP3    H179060   3.108   2.192  14.458  1.0740 -1.1184  0.1986
19215TIP3    H279061   3.082   2.214  14.310 -0.2871 -0.8623  0.4641
19216TIP3   OH279062   5.837   1.567  16.160 -0.1783  0.4648  0.4018
19216TIP3    H179063   5.926   1.600  16.172 -0.1834  1.5487 -1.9683
19216TIP3    H279064   5.781   1.636  16.196 -0.1060  1.7607 -1.8102
19217TIP3   OH279065   2.078   0.932  10.388 -0.1188  0.1116 -0.0200
19217TIP3    H179066   2.160   0.967  10.352 -0.2332 -0.1459 -0.5298
19217TIP3    H279067   2.059   0.988  10.463  1.0490 -0.4133  0.7061
19218TIP3   OH279068   0.137   2.579   6.423  0.2109  0.1930  0.4330
19218TIP3    H179069   0.160   2.518   6.353 -1.9666 -1.8218  1.3350
19218TIP3    H279070   0.173   2.663   6.394  0.0829 -0.6997 -2.7158
19219TIP3   OH279071   1.162   1.821  12.412 -0.0707  0.3600 -0.1436
19219TIP3    H179072   1.121   1.875  12.480 -0.2999 -1.6614  1.4458
19219TIP3    H279073   1.170   1.735  12.452  0.0564 -0.8760 -2.6270
19220TIP3   OH279074   4.599   0.903  16.105 -0.5836 -0.1435  0.4841
19220TIP3    H179075   4.682   0.873  16.067 -0.8791 -2.6049  1.6377
19220TIP3    H279076   4.555   0.947  16.032  1.1733  0.1093 -0.5007
19221TIP3   OH279077   0.259   3.308   1.629 -0.1189  0.4029 -0.7771
19221TIP3    H179078   0.205   3.256   1.570 -0.5593 -2.7609  2.1199
19221TIP3    H279079   0.324   3.247   1.663  1.6241  2.6684  0.2492
19222TIP3   OH279080   3.742   2.293  16.774  0.2058  0.1162  0.0304
19222TIP3    H179081   3.750   2.300  16.869  2.0416 -0.0604 -0.0759
19222TIP3    H279082   3.658   2.334  16.754 -0.6477 -0.6661  1.8029
19223TIP3   OH279083   6.459   3.031  13.115  0.6164 -0.3231  0.4275
19223TIP3    H179084   6.367   3.040  13.090  0.3155  0.4978  1.7619
19223TIP3    H279085   6.473   2.936  13.117 -0.1896 -0.4608  0.2041
19224TIP3   OH279086   0.672   4.370  15.728  0.1348  0.0448 -1.0216
19224TIP3    H179087   0.679   4.465  15.722  0.2871  0.1063 -0.0074
19224TIP3    H279088   0.753   4.337  15.688  0.8384  0.3965  0.0856
19225TIP3   OH279089   3.937   4.260   1.962  0.3821 -0.4126 -0.0126
19225TIP3    H179090   3.931   4.263   2.058  1.2961 -4.0983  0.3060
19225TIP3    H279091   4.011   4.317   1.941  1.1379 -0.7115  1.6691
19226TIP3   OH279092   4.078   4.035  13.203  0.1404  0.1473  0.1292
19226TIP3    H179093   4.156   4.055  13.151  0.6697 -0.1225  0.8085
19226TIP3    H279094   4.057   4.117  13.248  1.6142 -0.4284  1.9967
19227TIP3   OH279095   4.421   5.999   0.879 -0.4734 -0.2018 -0.0676
19227TIP3    H179096   4.399   5.924   0.825  1.7023 -0.6430 -0.4227
19227TIP3    H279097   4.396   6.075   0.826 -0.3198 -0.6549 -0.7995
19228TIP3   OH279098   2.540   2.821  13.683  0.0985 -0.6903 -0.0241
19228TIP3    H179099   2.597   2.810  13.759  0.0892 -1.2703 -0.0939
19228TIP3    H279100   2.504   2.733  13.667 -1.7649 -0.1329  0.7694
19229TIP3   OH279101   6.430   2.630  10.914 -0.0597  0.1519 -0.2223
19229TIP3    H179102   6.350   2.578  10.901 -0.6746  1.2199 -0.8404
19229TIP3    H279103   6.414   2.711  10.865  1.5593  0.2353 -0.6473
19230TIP3   OH279104   3.638   0.668  13.875  0.6460 -0.2037  0.0020
19230TIP3    H179105   3.707   0.723  13.913  1.5775 -1.3167 -0.0239
19230TIP3    H279106   3.557   0.708  13.905  1.3197  0.5803  0.8458
19231TIP3   OH279107   5.288   3.774  12.159  0.0786 -0.2522 -0.2166
19231TIP3    H179108   5.355   3.740  12.099  0.1576  2.3102 -1.7394
19231TIP3    H279109   5.310   3.867  12.169 -2.7147  0.4697 -0.0385
19232TIP3   OH279110   2.215   2.022   3.021  0.2895  0.0494  0.3637
19232TIP3    H179111   2.238   1.929   3.012 -1.4439 -0.3891  0.0063
19232TIP3    H279112   2.228   2.058   2.933  0.5178  0.0298  0.3896
19233TIP3   OH279113   4.588   4.013   2.971  0.1412 -0.1082 -0.3234
19233TIP3    H179114   4.651   4.050   3.033 -0.7164  1.3493 -0.2790
19233TIP3    H279115   4.577   3.922   3.000  1.6418 -0.1860  0.1044
19234TIP3   OH279116   1.367   0.072   5.168 -0.1358 -0.1128 -0.8378
19234TIP3    H179117   1.329   0.148   5.213 -0.4018  0.1438 -1.4866
19234TIP3    H279118   1.452   0.059   5.211  0.0052  0.6804 -0.8542
19235TIP3   OH279119   1.712   1.845   3.300  0.1015  0.4371 -0.1097
19235TIP3    H179120   1.661   1.896   3.237  0.2313  1.4917  0.6167
19235TIP3    H279121   1.796   1.830   3.256  0.0543  0.8360 -0.3366
19236TIP3   OH279122   6.009   2.965   4.627 -0.1222  0.0348 -0.0631
19236TIP3    H179123   6.082   2.981   4.569  0.2257 -1.2180  0.0082
19236TIP3    H279124   5.936   3.015   4.589  0.2229 -0.3695 -1.2938
19237TIP3   OH279125   0.865   5.537   3.173  0.0082  0.1577  0.1822
19237TIP3    H179126   0.933   5.582   3.224  0.5510  0.6353 -0.9152
19237TIP3    H279127   0.913   5.496   3.101 -0.8722  0.6888 -0.7399
19238TIP3   OH279128   6.439   3.176  12.359 -0.0587  0.1664  0.9371
19238TIP3    H179129   6.401   3.108  12.414 -0.2589 -0.7689 -0.3096
19238TIP3    H279130   6.481   3.237  12.421 -1.2330 -0.2293  2.1610
19239TIP3   OH279131   4.149   1.167  14.567 -0.0555  0.5147  0.4406
19239TIP3    H179132   4.155   1.110  14.643  0.8670  1.1875  0.8888
19239TIP3    H279133   4.067   1.215  14.579 -0.6470 -0.4323  0.2502
19240TIP3   OH279134   2.092   3.733  12.132  0.3756  0.0719 -0.6378
19240TIP3    H179135   2.170   3.713  12.081  2.1474 -0.8756  2.2338
19240TIP3    H279136   2.021   3.736  12.067  2.7045  0.8421 -3.3417
19241TIP3   OH279137   4.662   3.715   0.809 -0.1684 -0.2233 -0.0798
19241TIP3    H179138   4.706   3.779   0.753  3.3062 -1.3973  1.0196
19241TIP3    H279139   4.654   3.758   0.894  1.1853 -0.7729  0.3645
19242TIP3   OH279140   4.430   0.727  11.065  0.1644 -0.4588  0.1274
19242TIP3    H179141   4.404   0.743  10.975  1.2614  0.9656  0.0254
19242TIP3    H279142   4.398   0.638  11.084 -0.9527 -0.4033 -1.3097
19243TIP3   OH279143   0.661   3.518   5.113 -0.3145  0.3532  0.1491
19243TIP3    H179144   0.609   3.472   5.178  1.8065 -1.1150  0.9327
19243TIP3    H279145   0.660   3.460   5.036 -1.1664  1.1180 -0.4328
19244TIP3   OH279146   5.782   3.116   3.176 -0.0625  0.4730 -0.3636
19244TIP3    H179147   5.771   3.024   3.198 -0.3635  0.6705  0.3147
19244TIP3    H279148   5.694   3.154   3.186 -0.3468  0.4765 -2.3691
19245TIP3   OH279149   0.059   0.621  14.199  0.5825 -0.4575  0.1207
19245TIP3    H179150   0.016   0.691  14.150  2.4348  1.9343  1.6842
19245TIP3    H279151   0.005   0.543  14.182 -2.3391  1.5823 -0.6770
19246TIP3   OH279152   3.915   6.755  10.123  0.1616 -0.0619  0.4102
19246TIP3    H179153   3.897   6.837  10.076  0.7228 -0.6336 -0.8657
19246TIP3    H279154   3.906   6.778  10.215 -2.5111  0.7749  0.0351
19247TIP3   OH279155   3.938   5.483   1.495 -0.6823  0.1458  0.4007
19247TIP3    H179156   3.901   5.448   1.576 -0.0144 -0.8403  0.2980
19247TIP3    H279157   3.897   5.569   1.484 -1.4036 -0.0741  1.3374
19248TIP3   OH279158   4.550   2.921  13.691 -0.3748 -0.2023 -0.2298
19248TIP3    H179159   4.616   2.953  13.630 -0.0330 -0.1668  0.1582
19248TIP3    H279160   4.600   2.884  13.764 -0.7682 -0.8100 -0.2560
19249TIP3   OH279161   6.694   6.109  15.134  0.3612 -0.1434 -0.1679
19249TIP3    H179162   6.644   6.028  15.132  0.3472 -0.1273 -0.4427
19249TIP3    H279163   6.690   6.137  15.226 -0.0472 -0.1931 -0.1684
19250TIP3   OH279164   4.656   0.306  14.943  0.0502  0.1111  0.5214
19250TIP3    H179165   4.584   0.260  14.987  0.1093  0.6000  1.1407
19250TIP3    H279166   4.614   0.377  14.896  0.0104 -0.2897 -0.0601
19251TIP3   OH279167   5.924   6.372   2.888  0.7338 -0.3025 -0.3684
19251TIP3    H179168   5.871   6.452   2.888  0.4243 -0.5000 -1.2397
19251TIP3    H279169   6.013   6.402   2.909  0.5860  0.2448 -0.5080
19252TIP3   OH279170   4.598   2.026   3.976  0.3210  0.2938 -0.6370
19252TIP3    H179171   4.590   1.990   4.064  0.8903  0.6259 -0.4437
19252TIP3    H279172   4.601   2.121   3.989  1.9777  0.3092 -0.8594
19253TIP3   OH279173   0.820   2.872   1.081 -0.3981 -0.7017 -0.1227
19253TIP3    H179174   0.777   2.861   0.996 -1.1110  0.2382  0.1104
19253TIP3    H279175   0.890   2.807   1.080 -0.2427 -0.5513 -1.5325
19254TIP3   OH279176   5.087   0.366   2.539 -0.1607 -0.2052 -0.0397
19254TIP3    H179177   5.172   0.326   2.521  0.1519  0.4821 -0.0911
19254TIP3    H279178   5.097   0.407   2.624 -0.7879 -1.0546  0.4682
19255TIP3   OH279179   6.659   4.684  11.836 -0.3009 -0.3494  0.4389
19255TIP3    H179180   6.603   4.692  11.759 -0.0534 -2.2670 -0.0004
19255TIP3    H279181   6.602   4.647  11.904  0.1749 -1.5000  0.2438
19256TIP3   OH279182   3.293   0.565  13.366 -1.0082  0.1879 -0.1000
19256TIP3    H179183   3.383   0.585  13.339 -0.1286 -0.2020  2.3223
19256TIP3    H279184   3.275   0.479  13.327  0.3416 -0.5321  0.7883
19257TIP3   OH279185   6.017   6.645   0.494  0.4497 -0.0928  0.7623
19257TIP3    H179186   5.969   6.605   0.422 -0.0955 -0.5435  1.3632
19257TIP3    H279187   5.951   6.695   0.542  0.7419 -0.0725  1.1420
19258TIP3   OH279188   4.542   3.367   3.723 -0.0951  0.4291  0.5116
19258TIP3    H179189   4.551   3.278   3.689  0.5689  0.1679  1.3414
19258TIP3    H279190   4.605   3.372   3.795 -0.0513  1.6073  0.4091
19259TIP3   OH279191   3.147   5.572   1.385  0.4337 -0.1824 -0.0286
19259TIP3    H179192   3.242   5.567   1.383  0.4713  0.4600 -0.0574
19259TIP3    H279193   3.119   5.484   1.411  0.9805 -0.7469 -1.2552
19260TIP3   OH279194   1.101   0.633  15.959  0.3681 -0.1773  0.9067
19260TIP3    H179195   1.113   0.542  15.989 -1.4920 -1.2433 -1.2697
19260TIP3    H279196   1.176   0.649  15.902 -0.8430 -1.6008 -1.2408
19261TIP3   OH279197   3.166   6.438  12.980  0.0220 -0.1162  0.1478
19261TIP3    H179198   3.113   6.416  12.903 -0.8358 -0.1726  0.7410
19261TIP3    H279199   3.256   6.417  12.953 -0.3830 -1.2298 -0.4520
19262TIP3   OH279200   0.767   0.721  13.184 -0.2913 -0.6998 -0.5572
19262TIP3    H179201   0.677   0.733  13.214  0.5551 -0.3214  2.1563
19262TIP3    H279202   0.786   0.799  13.131 -2.0064 -1.5909 -2.6442
19263TIP3   OH279203   4.782   3.690   1.241  0.0249 -0.6452 -0.3697
19263TIP3    H179204   4.822   3.773   1.268  1.2471 -1.8435  1.7493
19263TIP3    H279205   4.849   3.648   1.187 -0.5660 -0.3329 -1.3790
19264TIP3   OH279206   2.844   0.247   6.431  0.0422 -0.6473  0.3323
19264TIP3    H179207   2.887   0.327   6.459 -1.6650  0.2513  0.5257
19264TIP3    H279208   2.877   0.232   6.342 -0.4747  0.9463 -0.1653
19265TIP3   OH279209   5.018   5.373   0.624 -0.1011  0.2206 -0.0280
19265TIP3    H179210   5.095   5.402   0.574  0.3178 -0.4391  0.2154
19265TIP3    H279211   5.017   5.430   0.701 -1.4777  2.1023 -1.3338
19266TIP3   OH279212   2.908   1.431  16.302 -0.0214 -0.1007  0.2635
19266TIP3    H179213   2.985   1.481  16.273 -0.5006  0.9983  0.8361
19266TIP3    H279214   2.852   1.426  16.225  1.9493 -3.6805 -1.1450
19267TIP3   OH279215   0.116   2.617   5.096 -0.2337 -0.1952  0.5820
19267TIP3    H179216   0.103   2.575   5.011  1.8137  0.0170  0.1242
19267TIP3    H279217   0.180   2.563   5.141  0.2988  0.8598  1.1370
19268TIP3   OH279218   0.367   5.236   3.396 -0.3514 -0.8645 -0.3442
19268TIP3    H179219   0.387   5.265   3.485 -2.9697 -0.8045  0.2979
19268TIP3    H279220   0.307   5.163   3.408  0.0308 -1.4985 -2.0812
19269TIP3   OH279221   0.311   4.749   1.085  0.1840  0.3465 -0.0533
19269TIP3    H179222   0.227   4.705   1.098  0.1465  0.1937 -0.7462
19269TIP3    H279223   0.352   4.701   1.013  2.7281 -2.2808  2.8896
19270TIP3   OH279224   6.030   4.719   4.537  0.3951  0.5353 -0.0218
19270TIP3    H179225   6.111   4.696   4.581  0.9606  1.4033 -0.5782
19270TIP3    H279226   5.989   4.784   4.594 -1.0573 -1.5088  1.4015
19271TIP3   OH279227   3.537   0.661  10.964  0.0421  0.2057  0.2514
19271TIP3    H179228   3.471   0.657  10.895 -0.8714  0.4692  1.0952
19271TIP3    H279229   3.618   0.683  10.918 -0.5046  0.1462 -0.7623
19272TIP3   OH279230   5.841   1.121   5.463  0.1592 -0.7626  0.5432
19272TIP3    H179231   5.779   1.187   5.433  2.5302  1.2134 -0.3946
19272TIP3    H279232   5.927   1.158   5.443  1.7164 -2.8820  2.6978
19273TIP3   OH279233   6.754   3.507   3.046  0.1781  0.0349 -0.5355
19273TIP3    H179234   6.698   3.440   3.008  0.7161  0.9980 -3.2772
19273TIP3    H279235   6.833   3.461   3.072 -0.7190 -0.8633  0.7336
19274TIP3   OH279236   1.169   5.255  14.677  0.7992  0.0715 -0.4831
19274TIP3    H179237   1.175   5.208  14.594  0.7526  3.2472 -2.4297
19274TIP3    H279238   1.165   5.185  14.743  2.8815 -2.5907 -2.9101
19275TIP3   OH279239   6.773   4.426  15.310 -0.6291 -0.6251 -0.6540
19275TIP3    H179240   6.690   4.402  15.351 -0.2491 -0.7140  0.0869
19275TIP3    H279241   6.835   4.430  15.383 -0.5222  2.0513 -0.7662
19276TIP3   OH279242   2.327   2.930   5.015  0.2667 -0.4043 -0.2620
19276TIP3    H179243   2.286   2.844   5.015  1.1423 -0.8413 -0.9037
19276TIP3    H279244   2.281   2.979   5.083  0.2520 -1.6205  0.6421
19277TIP3   OH279245   0.056   0.233  14.499  0.3477  0.0608  0.3202
19277TIP3    H179246   0.037   0.143  14.472 -0.6559  0.0937  0.8558
19277TIP3    H279247   0.151   0.237  14.503  0.5482 -0.1908 -2.3414
19278TIP3   OH279248   5.466   0.874   1.209  0.0953 -0.2695  0.4789
19278TIP3    H179249   5.453   0.943   1.144 -1.1208 -0.6129  0.3341
19278TIP3    H279250   5.506   0.802   1.162  0.7438  0.0823  0.4826
19279TIP3   OH279251   4.833   3.713   1.843 -0.1004 -0.3735 -0.4450
19279TIP3    H179252   4.820   3.807   1.852 -2.4083 -0.3482 -2.6985
19279TIP3    H279253   4.744   3.677   1.842  0.7244 -2.5472  0.0813
19280TIP3   OH279254   1.938   4.919   5.083 -0.5186 -0.1346  0.2149
19280TIP3    H179255   1.913   4.937   5.174 -0.4070  1.1823 -0.0023
19280TIP3    H279256   2.031   4.898   5.088  0.1544  2.5431  0.1279
19281TIP3   OH279257   6.704   3.644  14.751  0.1757 -0.6833 -0.9697
19281TIP3    H179258   6.686   3.726  14.796 -0.8278 -0.3574 -1.9296
19281TIP3    H279259   6.634   3.585  14.778  1.0370 -1.3264 -0.0787
19282TIP3   OH279260   1.116   6.760  11.837  0.0814 -0.1194 -0.6589
19282TIP3    H179261   1.180   6.774  11.768  1.7069 -2.5827  0.1932
19282TIP3    H279262   1.093   6.667  11.830 -1.2966  0.0604  0.8123
19283TIP3   OH279263   6.513   2.147  15.278 -0.3905  0.4085 -0.2086
19283TIP3    H179264   6.569   2.097  15.218  1.2692  0.8481  0.9011
19283TIP3    H279265   6.499   2.088  15.352 -0.2991  0.7704  0.1002
19284TIP3   OH279266   1.828   4.754  12.956  0.4795 -0.3154 -0.1113
19284TIP3    H179267   1.745   4.751  13.004  0.3165 -1.0061 -0.4166
19284TIP3    H279268   1.862   4.842  12.972 -0.0087 -0.2305  0.5288
19285TIP3   OH279269   0.736   4.200  13.162 -0.3428 -0.3548  0.2372
19285TIP3    H179270   0.739   4.213  13.257 -1.4672  0.2840  0.2148
19285TIP3    H279271   0.709   4.286  13.128 -1.0083 -0.8623 -0.5527
19286TIP3   OH279272   4.555   2.178  12.118 -0.0464 -0.7686 -0.2592
19286TIP3    H179273   4.550   2.247  12.184  2.1755 -1.2292  0.4977
19286TIP3    H279274   4.548   2.097  12.167  1.2287 -1.1124 -0.6060
19287TIP3   OH279275   2.390   3.895  16.500  0.3411 -0.2204  0.0038
19287TIP3    H179276   2.363   3.947  16.424 -1.9542 -1.1075  0.1116
19287TIP3    H279277   2.467   3.848  16.471 -0.1381 -0.0831 -1.5881
19288TIP3   OH279278   6.381   6.786  11.923  0.6736 -0.7370  0.7430
19288TIP3    H179279   6.393   6.812  12.015 -1.5919  0.6225  0.7351
19288TIP3    H279280   6.304   6.729  11.925 -2.1391  2.6863 -0.6979
19289TIP3   OH279281   5.574   5.555  17.088  0.2610 -0.6101 -0.0370
19289TIP3    H179282   5.574   5.459  17.091  1.4380 -0.6542 -0.8820
19289TIP3    H279283   5.623   5.576  17.008  1.0473  0.7042  0.7708
19290TIP3   OH279284   0.038   0.549   2.943 -0.7517 -0.0108 -0.0677
19290TIP3    H179285  -0.040   0.530   2.890 -0.7413  1.2831 -0.5977
19290TIP3    H279286   0.109   0.504   2.899 -0.9379  0.1123 -0.5012
19291TIP3   OH279287   2.046   4.598  12.395  0.4660 -0.0125 -0.1463
19291TIP3    H179288   1.964   4.647  12.385  0.8969  0.4228 -1.8274
19291TIP3    H279289   2.051   4.580  12.489 -1.3323  0.3193  0.0575
19292TIP3   OH279290   4.781   2.971  13.538 -0.0709 -0.4050 -0.2156
19292TIP3    H179291   4.838   2.977  13.461 -1.3535  0.9011 -1.1167
19292TIP3    H279292   4.841   2.969  13.613  1.1809  1.2171 -1.1060
19293TIP3   OH279293   2.217   2.619  14.243 -0.2729  0.0368 -0.5439
19293TIP3    H179294   2.177   2.694  14.199  0.0612 -0.1531 -1.1686
19293TIP3    H279295   2.152   2.593  14.308 -0.6571  0.4738 -0.7458
19294TIP3   OH279296   2.838   2.175  13.256  0.2198 -0.4201  0.6039
19294TIP3    H179297   2.886   2.149  13.177 -0.5434  1.0473 -0.4001
19294TIP3    H279298   2.781   2.101  13.276  1.3546 -1.3330  0.5699
19295TIP3   OH279299   3.145   6.390   4.929 -0.1472 -0.1131 -0.0819
19295TIP3    H179300   3.178   6.405   4.840  0.7432  1.7973  0.5357
19295TIP3    H279301   3.187   6.308   4.956  1.5886  0.6000 -0.5003
19296TIP3   OH279302   2.019   0.431  16.902  0.3119  0.3626 -0.1471
19296TIP3    H179303   1.977   0.348  16.882  1.8635 -0.3933 -0.4557
19296TIP3    H279304   2.060   0.418  16.988  0.2200  0.9406 -0.0117
19297TIP3   OH279305   4.186   1.905  13.987  0.3291  0.1919 -0.2222
19297TIP3    H179306   4.268   1.858  13.970  0.2875  0.7633 -2.1780
19297TIP3    H279307   4.121   1.860  13.934 -0.5970 -0.0619  1.0775
19298TIP3   OH279308   3.470   0.137  14.098 -0.4479 -1.2068  0.0472
19298TIP3    H179309   3.460   0.108  14.007 -2.5066 -1.1013  0.2005
19298TIP3    H279310   3.449   0.060  14.150 -3.0399 -0.3564  0.4202
19299TIP3   OH279311   6.780   5.271   1.277  0.6432 -0.0918  0.5579
19299TIP3    H179312   6.799   5.177   1.274  1.7698  0.1464 -0.8598
19299TIP3    H279313   6.723   5.282   1.353 -0.0506 -2.0108  0.3571
19300TIP3   OH279314   3.280   6.149  13.112  0.6394  0.0716  0.3499
19300TIP3    H179315   3.259   6.056  13.106  0.7749  0.0822 -0.4307
19300TIP3    H279316   3.201   6.194  13.080  0.8829  0.1947 -0.0839
19301TIP3   OH279317   0.987   6.731  12.606 -0.8138 -0.4107 -0.2112
19301TIP3    H179318   1.075   6.742  12.640 -1.0948 -0.3764  0.5148
19301TIP3    H279319   0.995   6.663  12.539  0.1123  0.9681 -1.5617
19302TIP3   OH279320   5.738   4.608  11.669 -0.4013  0.1355 -0.0740
19302TIP3    H179321   5.728   4.695  11.631 -0.4123  0.4766  0.6860
19302TIP3    H279322   5.792   4.560  11.606  0.1139  0.8831 -0.2119
19303TIP3   OH279323   4.792   0.655  12.972  0.2541  0.3424  0.2702
19303TIP3    H179324   4.860   0.706  12.927 -0.9289  1.6282 -0.1132
19303TIP3    H279325   4.818   0.563  12.959  1.4664  0.7814 -0.5606
19304TIP3   OH279326   0.997   3.547   4.486 -0.3663  0.3748 -0.1307
19304TIP3    H179327   0.996   3.489   4.562 -2.4980 -0.8170 -0.9748
19304TIP3    H279328   1.056   3.618   4.511  1.1181 -1.3430  1.5529
19305TIP3   OH279329   1.554   0.044   5.377  0.6579 -0.1105  0.3212
19305TIP3    H179330   1.590   0.060   5.464  0.0189  2.8219  0.1492
19305TIP3    H279331   1.492  -0.028   5.389 -0.7501  1.3723  2.7122
19306TIP3   OH279332   5.739   4.723   2.387  0.4901  0.2465 -0.0790
19306TIP3    H179333   5.653   4.686   2.365 -0.0407  1.4654 -0.1536
19306TIP3    H279334   5.739   4.727   2.482  0.7113 -0.3087 -0.0546
19307TIP3   OH279335   2.323   3.044  16.094 -0.0298 -0.0578  0.0797
19307TIP3    H179336   2.232   3.019  16.108 -0.2680  1.7418  2.4127
19307TIP3    H279337   2.358   3.059  16.182  2.2757  0.1560 -0.7892
19308TIP3   OH279338   2.008   2.540  14.407 -0.1910  0.2361 -0.1356
19308TIP3    H179339   1.972   2.598  14.474 -0.8476 -1.1842  0.7861
19308TIP3    H279340   1.933   2.510  14.357  0.0065 -0.5305  0.0009
19309TIP3   OH279341   2.101   0.799   0.193 -0.0389 -0.2812  0.3235
19309TIP3    H179342   2.064   0.716   0.224  2.1474 -1.0403  1.1106
19309TIP3    H279343   2.139   0.839   0.271 -0.3658  1.0949 -0.2027
19310TIP3   OH279344   4.720   6.760   1.735  0.0070  0.1647  0.3514
19310TIP3    H179345   4.771   6.691   1.778 -1.0355  0.4595  2.1710
19310TIP3    H279346   4.631   6.748   1.768 -1.2282 -0.4704 -2.8889
19311TIP3   OH279347   0.551   6.450  14.632 -0.3529  0.2360  0.5595
19311TIP3    H179348   0.564   6.523  14.692 -0.7542 -0.7241  1.8580
19311TIP3    H279349   0.485   6.396  14.674  1.6386 -2.1431  0.8448
19312TIP3   OH279350   0.090   6.625   2.991  0.1464  0.0542  0.1929
19312TIP3    H179351   0.161   6.669   3.038  1.5483 -1.5037 -0.3594
19312TIP3    H279352   0.086   6.538   3.032  0.1215 -0.6632 -1.2737
19313TIP3   OH279353   2.416   4.015  12.854 -0.5786  0.0468 -0.5631
19313TIP3    H179354   2.347   4.024  12.788 -0.3532 -0.8692 -0.9441
19313TIP3    H279355   2.432   3.921  12.859 -0.1552  0.1591  0.3532
19314TIP3   OH279356   2.904   5.873  15.063  1.0374 -0.0197  0.1769
19314TIP3    H179357   2.811   5.869  15.041  1.3709  2.8194 -2.4316
19314TIP3    H279358   2.906   5.891  15.156 -1.0301  0.2133  0.2188
19315TIP3   OH279359   4.165   0.570   4.081  0.1946 -0.1433  0.3377
19315TIP3    H179360   4.118   0.487   4.086 -0.1436  0.0759  0.8872
19315TIP3    H279361   4.100   0.635   4.107 -0.4527  0.6625 -2.8158
19316TIP3   OH279362   1.758   6.462   0.710  0.0260  0.4318 -0.6586
19316TIP3    H179363   1.777   6.541   0.659  0.3904  0.7584 -0.0288
19316TIP3    H279364   1.842   6.437   0.748 -0.2653  0.2565 -0.1201
19317TIP3   OH279365   2.064   1.743  12.866  0.5318 -0.2421 -0.2638
19317TIP3    H179366   2.118   1.664  12.870  1.1381  0.0351 -2.1347
19317TIP3    H279367   2.097   1.799  12.936  1.2429 -0.9405 -0.0278
19318TIP3   OH279368   1.934   6.177   0.640 -0.3415  0.0960  0.3275
19318TIP3    H179369   1.854   6.227   0.656  0.9924  2.0435  1.1844
19318TIP3    H279370   1.918   6.092   0.682 -2.0057  0.3685  0.3125
19319TIP3   OH279371   0.652   6.205  11.123  0.4125  0.5195  0.4238
19319TIP3    H179372   0.673   6.169  11.037 -2.8410  2.5203 -1.3820
19319TIP3    H279373   0.575   6.155  11.152  0.7618  0.6660  1.6889
19320TIP3   OH279374   4.827   2.748  15.524 -0.5510  0.2080  0.5661
19320TIP3    H179375   4.791   2.771  15.438  0.6299 -0.3288 -0.1072
19320TIP3    H279376   4.799   2.658  15.538  0.6575 -0.2958 -0.0718
19321TIP3   OH279377   1.947   4.763  15.357 -0.3884 -0.0291  0.1678
19321TIP3    H179378   2.022   4.712  15.389  0.0423 -0.0439 -0.8238
19321TIP3    H279379   1.953   4.757  15.262 -1.3974  0.3542  0.0688
19322TIP3   OH279380   0.253   0.136  15.788 -0.3828 -0.2734  0.2498
19322TIP3    H179381   0.232   0.044  15.802 -0.7069 -0.1874  0.3413
19322TIP3    H279382   0.171   0.175  15.755 -0.1129 -0.1213 -0.2641
19323TIP3   OH279383   2.009   5.149   3.297 -0.4269  0.3043 -0.0521
19323TIP3    H179384   2.056   5.171   3.377 -0.3401  0.5318 -0.1666
19323TIP3    H279385   1.969   5.064   3.316 -0.4296  0.3700  0.2418
19324TIP3   OH279386   5.426   4.972  15.994 -0.7241  0.3420  0.4578
19324TIP3    H179387   5.413   5.055  16.038 -1.8554 -0.5779  1.9593
19324TIP3    H279388   5.338   4.933  15.990 -0.6511  0.2610 -2.4404
19325TIP3   OH279389   2.680   5.357  10.445 -0.0648 -0.1286  0.2796
19325TIP3    H179390   2.606   5.296  10.442 -1.1497  1.1741 -1.5254
19325TIP3    H279391   2.643   5.438  10.481  0.5441  0.4600 -0.3962
19326TIP3   OH279392   0.150   1.921   5.728  0.3915 -0.1830  0.2636
19326TIP3    H179393   0.207   1.987   5.767 -0.5044  1.7643 -1.5449
19326TIP3    H279394   0.063   1.942   5.762 -0.1658  0.6525 -1.5887
19327TIP3   OH279395   0.069   4.685  13.972 -0.3100  0.3651  0.4200
19327TIP3    H179396   0.136   4.672  14.039  0.5593  3.8334  0.3953
19327TIP3    H279397  -0.007   4.718  14.021 -0.6060  0.3410 -0.0215
19328TIP3   OH279398   5.034   1.219   2.408 -0.2114  0.1277  0.8307
19328TIP3    H179399   5.034   1.293   2.469 -0.3828  1.1166 -0.3381
19328TIP3    H279400   5.034   1.259   2.321  0.5572 -1.2512  0.1621
19329TIP3   OH279401   3.887   2.222  12.769  0.0356 -0.4452  0.0453
19329TIP3    H179402   3.892   2.158  12.840 -1.6325 -0.1120  0.5242
19329TIP3    H279403   3.829   2.181  12.705  0.1980 -0.0525 -0.3529
19330TIP3   OH279404   4.485   4.801  16.838 -0.3271  0.3691  0.2721
19330TIP3    H179405   4.495   4.708  16.822  1.2698  0.4467  0.6377
19330TIP3    H279406   4.409   4.808  16.896 -0.3575 -0.7083  0.3763
19331TIP3   OH279407   0.209   4.786  12.676 -0.6816  0.0721  0.3375
19331TIP3    H179408   0.127   4.766  12.630 -0.4977 -0.3881  0.2105
19331TIP3    H279409   0.183   4.795  12.768 -0.8609 -0.1700  0.3122
19332TIP3   OH279410   4.296   6.664  14.617  0.4700 -0.6734 -0.0524
19332TIP3    H179411   4.259   6.576  14.604 -0.2362 -0.2530 -0.9548
19332TIP3    H279412   4.238   6.722  14.569  0.4404  0.4144  1.2402
19333TIP3   OH279413   0.167   5.960  13.929 -0.1183 -0.3568 -0.5256
19333TIP3    H179414   0.075   5.940  13.910 -0.6283  0.2273  1.0904
19333TIP3    H279415   0.172   6.056  13.925  0.5741 -0.4149 -1.2039
19334TIP3   OH279416   6.399   2.683   2.367  0.2807  0.5396 -0.1530
19334TIP3    H179417   6.492   2.660   2.365  0.3445  0.8346 -1.3254
19334TIP3    H279418   6.364   2.647   2.286 -0.9666 -0.8709  0.9606
19335TIP3   OH279419   1.555   1.024  14.056  0.0452 -0.1029 -0.1444
19335TIP3    H179420   1.503   1.020  14.137 -0.6044  1.0397 -0.4745
19335TIP3    H279421   1.609   0.945  14.058 -0.8487 -0.7203  0.8037
19336TIP3   OH279422   3.744   2.113  12.522 -0.3892  0.5738  0.0200
19336TIP3    H179423   3.695   2.136  12.601 -2.0208 -2.1312 -0.0929
19336TIP3    H279424   3.697   2.039  12.485  2.4020 -0.5987 -1.5150
19337TIP3   OH279425   6.034   5.150   5.069 -0.2181 -0.2347 -0.3112
19337TIP3    H179426   5.947   5.124   5.101 -0.4375  0.3582 -0.4049
19337TIP3    H279427   6.017   5.229   5.018  0.5186  0.5383  0.6050
19338TIP3   OH279428   1.034   4.447   3.818  0.2816 -0.1999  0.3440
19338TIP3    H179429   1.123   4.438   3.854  0.3431 -0.4060  0.1439
19338TIP3    H279430   0.980   4.468   3.894  0.4640 -0.3085  0.5071
19339TIP3   OH279431   1.985   0.778  11.834  0.2912 -1.4465 -0.8107
19339TIP3    H179432   1.904   0.780  11.782 -0.0308  1.4446 -0.3781
19339TIP3    H279433   1.970   0.708  11.898 -1.6878 -1.3184 -1.0533
19340TIP3   OH279434   5.530   4.343   5.220 -0.0822 -0.8145 -0.3319
19340TIP3    H179435   5.471   4.419   5.217  0.9371 -0.0297 -1.9308
19340TIP3    H279436   5.496   4.284   5.153  0.0174 -1.0836 -0.1468
19341TIP3   OH279437   5.804   0.923  15.707  0.1453  0.2297 -0.5076
19341TIP3    H179438   5.729   0.983  15.703  0.5383  0.8042  0.5027
19341TIP3    H279439   5.855   0.952  15.782  1.1645 -0.4299 -0.9131
19342TIP3   OH279440   1.999   6.788   6.120 -0.1310  0.1618 -0.8621
19342TIP3    H179441   1.942   6.750   6.187  1.1091 -1.2007 -0.5425
19342TIP3    H279442   2.004   6.721   6.052  1.3569  0.1026 -0.7175
19343TIP3   OH279443   3.763   5.298   1.380  0.3350  0.0074 -0.1704
19343TIP3    H179444   3.857   5.314   1.382  0.0950  2.0384 -1.8680
19343TIP3    H279445   3.755   5.203   1.370  2.1276 -0.4042  1.5735
19344TIP3   OH279446   2.210   4.208  11.135  0.0480 -0.0058 -0.0716
19344TIP3    H179447   2.286   4.171  11.179 -0.3687  0.3750  0.9915
19344TIP3    H279448   2.153   4.133  11.117 -0.0181 -0.1055  0.5299
19345TIP3   OH279449   6.121   0.885   4.930  0.3007  0.4097 -0.7663
19345TIP3    H179450   6.126   0.971   4.973  0.6226  0.4748 -0.9312
19345TIP3    H279451   6.028   0.861   4.937 -0.0405  1.3198 -1.7653
19346TIP3   OH279452   4.641   1.289  11.263  0.4639  0.1003  0.1677
19346TIP3    H179453   4.717   1.290  11.322 -0.3557 -1.1345  1.3061
19346TIP3    H279454   4.621   1.382  11.248 -0.0859  0.5275  2.9574
19347TIP3   OH279455   2.258   5.442  13.231 -0.2548 -0.0590  0.1503
19347TIP3    H179456   2.226   5.473  13.316  0.9676  0.5852  0.3935
19347TIP3    H279457   2.332   5.499  13.211  0.1233 -0.8761 -0.8639
19348TIP3   OH279458   3.437   0.810  12.914  0.3037 -0.1477 -0.1406
19348TIP3    H179459   3.438   0.717  12.893 -2.9034 -0.1473 -0.7947
19348TIP3    H279460   3.411   0.815  13.006 -1.2139  0.0834 -0.5590
19349TIP3   OH279461   4.876   1.059  16.081 -0.6007 -0.9009  0.3271
19349TIP3    H179462   4.886   0.964  16.072  1.9709 -0.6361 -0.4067
19349TIP3    H279463   4.938   1.084  16.150 -2.3787  0.1055  1.6341
19350TIP3   OH279464   4.634   0.646   5.545  0.6155  0.5682  0.4012
19350TIP3    H179465   4.672   0.710   5.485  0.6218 -0.0190 -0.2248
19350TIP3    H279466   4.665   0.674   5.632  2.7584 -0.0818 -0.1170
19351TIP3   OH279467   2.705   5.673  15.798  0.0686  0.5537  0.2321
19351TIP3    H179468   2.623   5.625  15.789  2.0286 -3.0502 -0.0002
19351TIP3    H279469   2.704   5.707  15.887 -1.9297  1.2414 -0.0066
19352TIP3   OH279470   5.130   3.884  15.887 -0.7047  0.3325 -0.4727
19352TIP3    H179471   5.114   3.976  15.908  3.2237  0.6712  2.0934
19352TIP3    H279472   5.188   3.887  15.812 -1.5929 -0.1734 -1.1969
19353TIP3   OH279473   5.031   5.141  15.743 -0.2654 -0.4285  0.1964
19353TIP3    H179474   4.962   5.077  15.760 -0.0177 -0.9801 -0.8050
19353TIP3    H279475   5.080   5.147  15.825 -0.6610 -1.0608  0.4826
19354TIP3   OH279476   2.118   3.247   0.049  0.2237 -0.6420  0.1867
19354TIP3    H179477   2.154   3.249   0.138  1.1071  2.0151 -0.1274
19354TIP3    H279478   2.184   3.200  -0.002  0.6818 -0.4381  0.5802
19355TIP3   OH279479   2.046   2.729  14.792  0.2775  0.0965 -0.6302
19355TIP3    H179480   2.140   2.715  14.782 -0.0789 -2.2685 -1.1523
19355TIP3    H279481   2.030   2.716  14.886  0.5118  0.9889 -0.4549
19356TIP3   OH279482   1.731   2.561   4.443  0.5240 -0.0922 -0.4899
19356TIP3    H179483   1.749   2.566   4.537 -0.3636 -3.2096 -0.0308
19356TIP3    H279484   1.635   2.564   4.437  0.5587 -0.3030 -1.2383
19357TIP3   OH279485   5.564   3.866   5.205  0.6669  0.2669 -0.3651
19357TIP3    H179486   5.572   3.827   5.292  3.8526  1.2870 -0.0725
19357TIP3    H279487   5.489   3.822   5.166 -1.3080  0.2215  3.0777
19358TIP3   OH279488   3.713   0.290  15.498 -0.4372 -0.1668 -0.5496
19358TIP3    H179489   3.716   0.289  15.403  0.3516  1.7582 -0.5765
19358TIP3    H279490   3.756   0.208  15.524  0.0981 -0.3132 -1.8249
19359TIP3   OH279491   5.546   0.927  15.469  0.0166  0.0073  0.4418
19359TIP3    H179492   5.619   0.870  15.495  0.8373  1.7053  2.1139
19359TIP3    H279493   5.498   0.876  15.404  1.7221 -1.8511  0.5347
19360TIP3   OH279494   0.870   3.584   4.247  0.0817 -0.7719 -0.0951
19360TIP3    H179495   0.914   3.575   4.331  0.5824  2.0820  0.0708
19360TIP3    H279496   0.933   3.630   4.192 -0.9866 -0.7750 -1.3757
19361TIP3   OH279497   4.211   0.592   2.309  0.1020  0.2255  0.6289
19361TIP3    H179498   4.230   0.594   2.215  0.3209  0.7632  0.6802
19361TIP3    H279499   4.230   0.681   2.339 -1.1222  0.4037  0.9486
19362TIP3   OH279500   0.215   6.251  12.083 -0.0515 -0.7113 -0.1068
19362TIP3    H179501   0.273   6.175  12.071 -0.5635 -0.9931 -0.8739
19362TIP3    H279502   0.233   6.281  12.172  1.1250 -0.9208 -0.2473
19363TIP3   OH279503   2.501   2.367  15.397 -0.4024  0.0372 -0.6884
19363TIP3    H179504   2.551   2.393  15.474  0.8840 -0.6777 -1.2446
19363TIP3    H279505   2.445   2.442  15.378  1.5027  1.5072 -0.8889
19364TIP3   OH279506   4.557   3.239  11.093  0.2838  0.5035  0.2031
19364TIP3    H179507   4.525   3.251  11.182 -0.7827  2.2427 -0.3707
19364TIP3    H279508   4.581   3.327  11.064  2.0859 -0.2397 -0.7169
19365TIP3   OH279509   4.705   3.972   4.444 -0.4613  0.2382 -0.3215
19365TIP3    H179510   4.643   3.907   4.477 -0.1979 -0.0698 -0.4192
19365TIP3    H279511   4.652   4.030   4.390 -1.0238  1.1511  1.1532
19366TIP3   OH279512   6.088   0.950   0.350 -0.0825 -0.2165 -0.1063
19366TIP3    H179513   6.078   1.017   0.417 -0.4544 -0.1955 -0.1798
19366TIP3    H279514   6.063   0.869   0.393  0.4758 -0.3260  0.0143
19367TIP3   OH279515   3.318   0.223   2.035  0.8970  0.3477 -0.6463
19367TIP3    H179516   3.403   0.187   2.062  1.4498  2.7881  1.1487
19367TIP3    H279517   3.300   0.179   1.952  3.4807 -0.9120 -0.6648
19368TIP3   OH279518   6.672   5.065  11.549  0.0787  0.4889  0.6503
19368TIP3    H179519   6.605   4.998  11.559  0.9002 -0.2961  0.9981
19368TIP3    H279520   6.633   5.144  11.588 -1.7250  0.8282 -1.6230
19369TIP3   OH279521   2.181   5.279  12.430  0.0676 -0.4276 -0.1049
19369TIP3    H179522   2.231   5.299  12.351 -0.4473  0.2990 -0.2589
19369TIP3    H279523   2.226   5.204  12.469  0.8039 -0.2791 -0.6530
19370TIP3   OH279524   4.152   3.388   4.135 -0.3264 -0.2412  0.0410
19370TIP3    H179525   4.090   3.323   4.168 -0.7312  0.8185  1.4587
19370TIP3    H279526   4.224   3.336   4.100 -1.7710 -1.5037 -1.2378
19371TIP3   OH279527   2.394   2.804   3.080  0.4011  0.0185 -0.1865
19371TIP3    H179528   2.371   2.741   3.012  0.4447 -0.7459  0.4863
19371TIP3    H279529   2.461   2.859   3.040 -0.9290  0.8185 -1.4014
19372TIP3   OH279530   3.092   5.221   6.113  0.2403  0.1122 -0.2868
19372TIP3    H179531   3.085   5.313   6.139  0.0861 -0.4047  1.7184
19372TIP3    H279532   3.006   5.184   6.133  1.2090 -1.1202  1.9934
19373TIP3   OH279533   0.638   6.764   3.191  0.2105 -0.1714 -0.3810
19373TIP3    H179534   0.676   6.806   3.268 -0.5261 -1.2266  0.6060
19373TIP3    H279535   0.671   6.815   3.117 -1.0218  2.4326  0.7327
19374TIP3   OH279536   0.140   0.763  16.517 -0.3623  0.0855 -0.0625
19374TIP3    H179537   0.092   0.686  16.486 -0.8890 -0.3286  1.7019
19374TIP3    H279538   0.225   0.757  16.473 -0.6891 -1.0472 -0.5825
19375TIP3   OH279539   0.307   3.037  12.096 -0.0367 -0.2432  0.0857
19375TIP3    H179540   0.321   3.115  12.151 -0.3176  0.7907 -1.2608
19375TIP3    H279541   0.227   3.056  12.048  0.2790 -1.0663 -0.7794
19376TIP3   OH279542   4.414   2.696   0.143  0.1175  0.5527  0.1970
19376TIP3    H179543   4.467   2.770   0.175  0.4853 -0.2474  1.5378
19376TIP3    H279544   4.472   2.648   0.084  0.8047 -0.0989  1.3546
19377TIP3   OH279545   4.206   4.441   1.859 -0.2324 -0.2928  0.4206
19377TIP3    H179546   4.231   4.530   1.837  0.7619 -0.4149  1.0057
19377TIP3    H279547   4.285   4.389   1.847 -0.6465 -0.9997  0.6365
19378TIP3   OH279548   4.010   1.889  11.179 -0.0328  0.4356 -0.2156
19378TIP3    H179549   3.995   1.801  11.214 -1.0178  0.3735 -0.7472
19378TIP3    H279550   4.093   1.883  11.133 -1.6221 -1.2017 -3.1742
19379TIP3   OH279551   6.211   0.011   6.394  0.2323 -0.1483  0.0361
19379TIP3    H179552   6.191   0.093   6.438 -1.5298 -0.0247 -0.9113
19379TIP3    H279553   6.242   0.037   6.307  0.9219 -0.4553  0.1881
19380TIP3   OH279554   0.517   4.422  12.394 -0.2473 -0.0879  0.1507
19380TIP3    H179555   0.602   4.455  12.366  0.0598 -0.0751  1.0519
19380TIP3    H279556   0.459   4.498  12.392  0.1007  0.2073  0.8070
19381TIP3   OH279557   0.853   0.406  14.494  0.7540 -0.4526 -0.1851
19381TIP3    H179558   0.786   0.340  14.510  0.6277 -0.5592 -1.1166
19381TIP3    H279559   0.922   0.360  14.447  0.9360 -0.0682 -0.3032
19382TIP3   OH279560   6.162   3.151  16.841  0.1774  0.2203  0.9364
19382TIP3    H179561   6.140   3.199  16.762 -0.5029 -0.8345  0.4639
19382TIP3    H279562   6.256   3.165  16.852  0.4556 -0.3075 -0.5412
19383TIP3   OH279563   6.512   2.020  13.341  0.0668  0.0747 -0.2948
19383TIP3    H179564   6.560   2.016  13.258 -4.1085  0.6460 -3.0915
19383TIP3    H279565   6.480   1.931  13.354 -2.4582  0.6958 -1.6005
19384TIP3   OH279566   6.399   6.601  11.476 -0.3010 -0.8304 -0.1498
19384TIP3    H179567   6.347   6.670  11.435 -0.3293 -0.8584 -0.1614
19384TIP3    H279568   6.344   6.569  11.548 -0.2358 -0.7555 -0.0665
19385TIP3   OH279569   3.177   6.193  14.301  0.2602 -0.0691 -0.3754
19385TIP3    H179570   3.162   6.115  14.248  1.9263 -0.5932 -0.1069
19385TIP3    H279571   3.094   6.240  14.297 -0.8395 -1.9004 -0.4548
19386TIP3   OH279572   3.320   2.117  14.625  0.5593 -0.2971  0.3042
19386TIP3    H179573   3.303   2.169  14.546 -0.0410 -1.6692 -0.5162
19386TIP3    H279574   3.416   2.112  14.630  0.6245 -1.2420 -1.1047
19387TIP3   OH279575   5.111   6.577   0.974  0.2857 -0.0951 -0.3874
19387TIP3    H179576   5.066   6.658   0.997  0.0738 -0.4767  0.5897
19387TIP3    H279577   5.203   6.602   0.967  0.6195 -0.2068  2.4504
19388TIP3   OH279578   0.068   1.541   3.553  0.1986 -0.3365  0.3540
19388TIP3    H179579   0.087   1.449   3.533  1.1574  0.0014 -0.4055
19388TIP3    H279580  -0.026   1.544   3.567 -0.2311 -1.0537 -1.8764
19389TIP3   OH279581   4.040   3.679  11.113 -0.0908 -0.6154  0.0752
19389TIP3    H179582   4.077   3.708  11.029 -0.6402  0.0469  0.0501
19389TIP3    H279583   3.948   3.662  11.094 -0.9235  2.1512  1.0668
19390TIP3   OH279584   1.388   4.571  14.275  0.1888 -0.4620 -0.1799
19390TIP3    H179585   1.293   4.571  14.288  0.4884  2.6094  3.7487
19390TIP3    H279586   1.403   4.636  14.205 -0.5411 -1.6723 -1.5181
19391TIP3   OH279587   2.211   4.599  14.091 -0.3483 -0.0628  0.6745
19391TIP3    H179588   2.218   4.625  14.183 -0.7216  0.4475  0.5646
19391TIP3    H279589   2.145   4.658  14.054  0.2672  0.1834 -0.0803
19392TIP3   OH279590   6.225   4.907  11.648  0.0765  0.1647  0.9059
19392TIP3    H179591   6.165   4.954  11.590 -1.9666 -1.3006  1.7009
19392TIP3    H279592   6.307   4.955  11.641 -0.9215  1.7766 -0.9041
19393TIP3   OH279593   4.990   2.521  13.691 -0.9288 -0.5741  0.1564
19393TIP3    H179594   5.077   2.532  13.652 -0.0136 -2.2807  1.5389
19393TIP3    H279595   4.959   2.610  13.707  0.7460  0.0770 -0.0328
19394TIP3   OH279596   5.252   3.642   1.096 -0.0699 -0.8540  0.3663
19394TIP3    H179597   5.337   3.600   1.086  0.3009 -0.1338  0.3917
19394TIP3    H279598   5.244   3.698   1.018  0.1844  0.2717  1.1196
19395TIP3   OH279599   1.066   2.288  11.015 -0.0678 -0.1076  0.3702
19395TIP3    H179600   1.112   2.250  10.940 -3.0414  1.5569 -2.6052
19395TIP3    H279601   1.016   2.214  11.051 -0.0662 -0.5760 -0.5451
19396TIP3   OH279602   4.725   0.857   0.692 -0.2485  0.4482  0.4182
19396TIP3    H179603   4.658   0.863   0.760 -0.1370  1.0310  0.4871
19396TIP3    H279604   4.694   0.789   0.633 -0.9781  0.8225  0.3597
19397TIP3   OH279605   3.584   5.761  16.232 -0.3286 -0.9697 -0.5644
19397TIP3    H179606   3.496   5.800  16.227 -0.0192 -0.1499  0.1548
19397TIP3    H279607   3.643   5.836  16.236  0.2768 -1.4980  0.9461
19398TIP3   OH279608   5.411   5.848   0.295 -0.3182 -0.0024 -0.2248
19398TIP3    H179609   5.458   5.823   0.374 -1.4036  0.8339  0.7052
19398TIP3    H279610   5.480   5.870   0.232  0.5412 -0.2750  0.6036
19399TIP3   OH279611   3.778   4.947  12.958  0.0546 -0.0051 -0.5144
19399TIP3    H179612   3.781   4.917  12.867  1.5264  0.6783 -0.7117
19399TIP3    H279613   3.715   5.019  12.957 -0.8201 -0.7580 -0.7420
19400TIP3   OH279614   5.628   4.452  16.516 -0.1134 -0.0671 -0.3598
19400TIP3    H179615   5.673   4.431  16.434  1.2632  0.1072  0.3249
19400TIP3    H279616   5.689   4.426  16.584  0.0025  2.3980  0.5764
19401TIP3   OH279617   4.473   1.322  16.498 -0.2461 -0.2997  0.2786
19401TIP3    H179618   4.430   1.390  16.550 -2.3865 -0.9298 -0.5880
19401TIP3    H279619   4.501   1.366  16.418  0.4263  0.0249  0.6797
19402TIP3   OH279620   4.446   5.726  14.192 -0.0702 -0.0336 -0.1395
19402TIP3    H179621   4.412   5.812  14.169 -2.1850 -0.3608  1.4939
19402TIP3    H279622   4.502   5.742  14.268 -1.5181 -0.2190  0.9962
19403TIP3   OH279623   1.104   0.225  11.612 -0.2259 -0.7337  0.2680
19403TIP3    H179624   1.179   0.166  11.615  0.0633 -0.6122 -2.2647
19403TIP3    H279625   1.142   0.313  11.616 -0.2017 -0.6763 -0.8036
19404TIP3   OH279626   2.437   0.865   5.034  0.2608  0.2352  0.1468
19404TIP3    H179627   2.514   0.851   5.088 -1.3220 -1.2786  2.1921
19404TIP3    H279628   2.456   0.820   4.951  0.9768 -1.5359  1.2182
19405TIP3   OH279629   4.347   5.147   1.864  0.6915 -1.0037 -0.0728
19405TIP3    H179630   4.421   5.195   1.900  1.0661 -0.5911 -1.3578
19405TIP3    H279631   4.288   5.214   1.830  0.7287 -1.4106 -0.9542
19406TIP3   OH279632   1.672   3.089  12.846 -0.1780 -0.2467 -0.5555
19406TIP3    H179633   1.596   3.030  12.854 -0.0287 -0.6064 -1.6687
19406TIP3    H279634   1.706   3.073  12.759  0.6055  0.6308 -0.4282
19407TIP3   OH279635   0.527   1.613  12.463 -0.3468  0.3867  0.1837
19407TIP3    H179636   0.545   1.533  12.513 -1.8447  0.9881  1.7955
19407TIP3    H279637   0.447   1.592  12.414 -0.7130  0.8482  0.5685
19408TIP3   OH279638   3.652   3.590   0.151  0.3800 -0.3051 -0.5265
19408TIP3    H179639   3.559   3.592   0.129 -0.3221  0.6025  2.1695
19408TIP3    H279640   3.673   3.497   0.160 -1.0467 -0.4816  1.5845
19409TIP3   OH279641   5.197   2.179  13.550  0.1227 -0.4720 -0.0489
19409TIP3    H179642   5.277   2.160  13.500 -0.6649 -1.6143 -0.9234
19409TIP3    H279643   5.223   2.166  13.641  1.0046 -0.5425 -0.2963
19410TIP3   OH279644   1.182   2.722  15.640  0.4608 -0.0099 -0.0807
19410TIP3    H179645   1.112   2.787  15.648  0.5511  0.0472  0.3109
19410TIP3    H279646   1.165   2.678  15.558  1.3048  1.5760 -1.1598
19411TIP3   OH279647   6.221   1.531  12.085  0.1124  0.3137 -0.0962
19411TIP3    H179648   6.152   1.564  12.143 -0.2110 -0.4953 -0.0148
19411TIP3    H279649   6.230   1.439  12.108  1.8780  0.6158  0.5373
19412TIP3   OH279650   3.096   5.387  14.342 -0.0470  0.2550  0.2701
19412TIP3    H179651   3.039   5.414  14.414 -1.5898 -1.2306 -0.3323
19412TIP3    H279652   3.112   5.468  14.293  0.0527  1.0684  1.5892
19413TIP3   OH279653   3.879   1.030   3.202 -0.0003  0.0355 -0.5658
19413TIP3    H179654   3.924   0.948   3.223 -0.2185  0.0988  0.1720
19413TIP3    H279655   3.793   1.022   3.243  0.2784  0.9723  0.2419
19414TIP3   OH279656   1.531   3.979  16.614 -0.0354 -0.1340  0.5197
19414TIP3    H179657   1.562   3.994  16.703 -1.1388  0.6246  0.7935
19414TIP3    H279658   1.474   4.054  16.595  1.0252  0.3011 -1.2249
19415TIP3   OH279659   1.237   5.052   6.060  0.2977  0.2596 -0.2693
19415TIP3    H179660   1.245   5.107   5.982 -0.0383  1.0353  0.2304
19415TIP3    H279661   1.227   5.114   6.132  3.4105 -0.3281  0.7939
19416TIP3   OH279662   0.077   3.959  12.201  0.6013 -0.4232  0.0784
19416TIP3    H179663   0.113   4.045  12.223  0.5316 -0.2491 -0.4696
19416TIP3    H279664   0.014   3.977  12.130  0.7735 -0.9537 -0.2155
19417TIP3   OH279665   6.638   5.488  14.276 -0.8137 -0.5222 -0.3138
19417TIP3    H179666   6.637   5.584  14.271 -2.5332 -0.3673  1.4838
19417TIP3    H279667   6.555   5.466  14.318 -0.0169 -2.7531  0.2336
19418TIP3   OH279668   3.265   6.460  16.698  0.2843  0.6138  0.2332
19418TIP3    H179669   3.207   6.454  16.775 -0.1164  1.4799  0.0031
19418TIP3    H279670   3.205   6.464  16.624  0.6597  0.7878 -0.0592
19419TIP3   OH279671   1.326   5.260  13.701  0.0133  0.0228 -0.8490
19419TIP3    H179672   1.289   5.343  13.729  1.3830  0.7705 -1.1741
19419TIP3    H279673   1.258   5.195  13.722 -0.1945  0.8870  1.5286
19420TIP3   OH279674   0.043   0.807  11.358  0.7903  0.0785 -0.2144
19420TIP3    H179675   0.001   0.846  11.435  0.8840 -0.1740 -0.0327
19420TIP3    H279676  -0.024   0.811  11.290  1.2728  1.8650 -0.6228
19421TIP3   OH279677   5.076   5.546   1.211 -0.2383  0.3128 -0.4935
19421TIP3    H179678   5.125   5.616   1.255 -0.4594 -0.0066  0.2751
19421TIP3    H279679   5.029   5.502   1.281 -0.0855 -0.6259 -0.9656
19422TIP3   OH279680   6.357   2.445  15.832 -0.2436  0.4683 -0.1417
19422TIP3    H179681   6.331   2.514  15.892  1.3986  1.8619 -0.9481
19422TIP3    H279682   6.411   2.386  15.884 -0.6586  0.4368  0.2580
19423TIP3   OH279683   2.790   5.779   0.680 -0.1503 -0.1428  0.1030
19423TIP3    H179684   2.839   5.701   0.652 -0.9279 -1.0260  1.1195
19423TIP3    H279685   2.811   5.788   0.773  0.2312  1.1165 -0.0840
19424TIP3   OH279686   1.300   5.510   5.593 -0.3077 -0.4861  0.0812
19424TIP3    H179687   1.236   5.516   5.664 -0.1083  2.9623  0.1266
19424TIP3    H279688   1.252   5.536   5.515  0.5102 -0.0301 -0.2768
19425TIP3   OH279689   6.212   4.272   1.164 -0.6834 -0.1473 -0.1853
19425TIP3    H179690   6.144   4.230   1.216  0.0961 -1.7997 -0.4529
19425TIP3    H279691   6.286   4.212   1.167  0.4842  1.2067 -0.6124
19426TIP3   OH279692   2.974   1.814   2.793  0.3616  0.0459  0.0039
19426TIP3    H179693   3.013   1.901   2.790 -1.3281  0.8408  0.0871
19426TIP3    H279694   2.889   1.827   2.836 -0.3435 -1.4677 -0.8567
19427TIP3   OH279695   6.199   5.902  16.841  0.3267  0.0613 -0.1500
19427TIP3    H179696   6.272   5.845  16.816  0.4143  0.2867 -0.4163
19427TIP3    H279697   6.238   5.969  16.897  0.8447  1.6755 -2.2870
19428TIP3   OH279698   0.444   1.121   3.375 -0.2607  0.3567  0.0710
19428TIP3    H179699   0.410   1.203   3.339  2.2747  1.9252  0.9588
19428TIP3    H279700   0.538   1.124   3.357  0.3967 -0.9321  2.6898
19429TIP3   OH279701   4.260   4.403  15.745  0.0301 -0.3073 -0.2307
19429TIP3    H179702   4.286   4.464  15.815 -0.1842  0.6142 -0.9295
19429TIP3    H279703   4.172   4.431  15.719 -0.3336 -1.3238 -0.1421
19430TIP3   OH279704   3.030   2.976   2.245 -0.1411  0.2902  0.2368
19430TIP3    H179705   3.050   3.064   2.279  1.2662 -0.1190  0.5487
19430TIP3    H279706   2.986   2.932   2.318 -1.0330  0.7757  0.0123
19431TIP3   OH279707   6.216   1.075   3.986  0.5019 -0.0634 -0.1761
19431TIP3    H179708   6.228   1.090   4.080  0.7736 -0.2179 -0.1882
19431TIP3    H279709   6.300   1.096   3.947  0.1252  0.9151 -0.4984
19432TIP3   OH279710   5.240   6.723  16.689  0.0640 -0.0627  0.3371
19432TIP3    H179711   5.266   6.681  16.607 -2.1845  0.7531 -0.8764
19432TIP3    H279712   5.311   6.786  16.707 -0.3964  1.3126 -2.2099
19433TIP3   OH279713   6.532   6.627   6.384 -0.5672  0.0834 -0.1804
19433TIP3    H179714   6.621   6.591   6.389 -1.2574 -1.5196  1.5135
19433TIP3    H279715   6.544   6.722   6.390  1.0004 -0.1241  0.3126
19434TIP3   OH279716   2.947   3.213   5.924  0.0758  0.5663 -0.0973
19434TIP3    H179717   2.892   3.185   5.998  1.4000  1.3612  1.2361
19434TIP3    H279718   2.919   3.303   5.906  1.0671  1.0683  0.7600
19435TIP3   OH279719   5.870   1.988   3.778 -0.2330  0.3642 -0.1439
19435TIP3    H179720   5.942   2.042   3.811 -0.9098  1.2400 -0.0741
19435TIP3    H279721   5.807   2.050   3.743 -0.4648 -0.4483 -1.2373
19436TIP3   OH279722   5.179   1.534  14.562 -0.2647 -0.3696  0.2537
19436TIP3    H179723   5.085   1.535  14.547 -0.3345  2.1663  0.5813
19436TIP3    H279724   5.190   1.485  14.643 -1.2106 -1.2258 -0.1156
19437TIP3   OH279725   3.052   4.373   1.925 -0.2931  0.3142 -0.3645
19437TIP3    H179726   3.018   4.311   1.860 -1.2911  0.4054  0.0552
19437TIP3    H279727   3.073   4.319   2.001  0.2177  0.2998 -0.5143
19438TIP3   OH279728   5.024   1.217   1.394  0.1058  0.0537 -0.1442
19438TIP3    H179729   4.961   1.288   1.401 -0.7480 -0.6526 -0.3983
19438TIP3    H279730   5.066   1.212   1.480 -0.4175  0.3275  0.1271
19439TIP3   OH279731   5.385   1.247   1.812 -0.0979  0.0639 -0.5568
19439TIP3    H179732   5.420   1.200   1.736  0.5615 -2.5538  1.2407
19439TIP3    H279733   5.293   1.263   1.789 -0.0234 -1.0207 -1.7582
19440TIP3   OH279734   2.257   3.696  14.832 -0.4783  0.4123  0.3602
19440TIP3    H179735   2.320   3.631  14.862  1.5504  2.7577  1.5100
19440TIP3    H279736   2.281   3.713  14.741  1.9617  2.6547  1.3037
19441TIP3   OH279737   6.398   2.724  16.961  0.1378  0.5241 -0.2527
19441TIP3    H179738   6.379   2.710  16.868  1.8978 -0.3796 -0.5220
19441TIP3    H279739   6.351   2.654  17.006 -1.3964  1.4449 -0.3288
19442TIP3   OH279740   2.262   0.135   4.153  0.2586 -0.5756 -0.5997
19442TIP3    H179741   2.329   0.204   4.152 -0.1760 -0.1547 -1.4211
19442TIP3    H279742   2.200   0.161   4.085 -1.0811 -0.6469  0.5648
19443TIP3   OH279743   1.555   2.293   3.263 -0.3823  0.7586  0.0292
19443TIP3    H179744   1.579   2.333   3.347 -0.7633 -0.7903  0.9329
19443TIP3    H279745   1.637   2.257   3.229 -0.6027 -0.7633  0.9939
19444TIP3   OH279746   0.241   6.747   3.200  0.5154  0.0951  0.0068
19444TIP3    H179747   0.209   6.824   3.154  1.4544  0.6826  0.3086
19444TIP3    H279748   0.282   6.781   3.280  0.2357 -0.7839  0.5404
19445TIP3   OH279749   2.734   5.963   4.856  0.0135 -0.2221  0.2676
19445TIP3    H179750   2.712   5.870   4.868  0.2718 -0.5645 -1.5641
19445TIP3    H279751   2.699   5.984   4.769  0.6561  1.1890  0.3310
19446TIP3   OH279752   0.638   3.629  13.907 -0.2479 -0.0428  0.8463
19446TIP3    H179753   0.552   3.646  13.869  0.9444  0.7475 -1.7619
19446TIP3    H279754   0.662   3.711  13.950  0.1094  0.5704 -0.4580
19447TIP3   OH279755   3.328   4.362   4.873  0.2936 -0.3146 -0.4196
19447TIP3    H179756   3.271   4.334   4.801 -1.9638  0.1532  1.0931
19447TIP3    H279757   3.378   4.283   4.896 -0.2703 -0.9465 -1.2919
19448TIP3   OH279758   1.849   2.033  16.740  0.3628  0.2682  0.2566
19448TIP3    H179759   1.868   2.074  16.656  0.3030  1.5827  0.8674
19448TIP3    H279760   1.921   1.972  16.753  1.9511  2.1214  0.5584
19449TIP3   OH279761   4.530   2.805  12.947 -0.8602  0.6754  0.0250
19449TIP3    H179762   4.487   2.728  12.911  0.8771 -0.5857  0.5253
19449TIP3    H279763   4.571   2.774  13.028 -1.0596  2.3961  0.8209
19450TIP3   OH279764   5.768   1.306  15.705  0.5152 -0.5553  0.1980
19450TIP3    H179765   5.771   1.246  15.779 -1.5045 -2.7649 -1.3928
19450TIP3    H279766   5.682   1.349  15.711  0.5171 -0.4132 -0.5952
19451TIP3   OH279767   4.435   6.320  11.521  0.3108 -0.6030  0.7096
19451TIP3    H179768   4.376   6.298  11.593  0.2018 -0.0333  0.7931
19451TIP3    H279769   4.499   6.248  11.520  0.2532 -0.6655  1.3091
19452TIP3   OH279770   0.096   5.580   2.827  0.2532 -0.2887 -0.2707
19452TIP3    H179771   0.038   5.544   2.760 -0.7925 -0.2301  0.5702
19452TIP3    H279772   0.063   5.544   2.910  2.0668 -1.0866  0.1682
19453TIP3   OH279773   6.486   5.119  10.537 -0.2837  0.2004 -0.5277
19453TIP3    H179774   6.429   5.051  10.503  0.5995  0.5125 -2.7901
19453TIP3    H279775   6.538   5.076  10.605 -0.8236 -0.9543 -0.8349
19454TIP3   OH279776   1.076   0.446   5.033 -0.2853  0.2240  0.0736
19454TIP3    H179777   1.019   0.445   4.956 -1.0144  0.8657  0.5968
19454TIP3    H279778   1.042   0.516   5.087  1.2920  0.9314  0.1950
19455TIP3   OH279779   0.073   4.460   3.302 -0.5014 -0.5322 -0.2809
19455TIP3    H179780   0.110   4.385   3.256 -1.3211 -1.0237 -0.1722
19455TIP3    H279781   0.059   4.430   3.392 -1.2716 -0.4147 -0.3493
19456TIP3   OH279782   4.891   1.495  14.481  0.0800  0.9634  0.6568
19456TIP3    H179783   4.836   1.466  14.553  2.0885 -0.1094  1.8300
19456TIP3    H279784   4.837   1.560  14.435 -1.7235  0.7654  2.3539
19457TIP3   OH279785   3.885   2.674  11.278  0.2206 -0.2969  0.0811
19457TIP3    H179786   3.888   2.681  11.183 -0.6091  0.6263  0.1003
19457TIP3    H279787   3.886   2.580  11.296  1.0783 -0.4722 -0.7963
19458TIP3   OH279788   0.377   2.517   5.174 -0.2038  0.2694  0.2833
19458TIP3    H179789   0.436   2.443   5.187 -0.1737  0.4905  1.5387
19458TIP3    H279790   0.401   2.552   5.088  0.7829 -0.2777  0.3218
19459TIP3   OH279791   5.182   3.563   2.159 -0.2237 -0.4374  0.4780
19459TIP3    H179792   5.087   3.573   2.153 -0.0233  1.0317 -2.8643
19459TIP3    H279793   5.210   3.632   2.218 -1.1786 -0.2061  0.6856
19460TIP3   OH279794   6.670   2.366  11.814  0.2948 -0.0171 -0.0405
19460TIP3    H179795   6.682   2.417  11.894 -1.5081 -1.5517  1.2982
19460TIP3    H279796   6.576   2.364  11.800  0.5150 -0.5627 -1.7046
19461TIP3   OH279797   1.875   3.215   5.166 -0.0636  0.3270  0.2764
19461TIP3    H179798   1.870   3.307   5.192  0.3623 -0.2050  2.4695
19461TIP3    H279799   1.844   3.167   5.243 -1.8253 -1.3484 -1.3731
19462TIP3   OH279800   6.434   6.321  14.822 -0.2114 -0.2137  0.4787
19462TIP3    H179801   6.481   6.238  14.815 -0.8888 -0.5586 -0.0507
19462TIP3    H279802   6.481   6.370  14.890  2.2700  0.3667 -1.5167
19463TIP3   OH279803   1.047   3.754  16.603  0.4937 -0.0230 -0.0782
19463TIP3    H179804   0.976   3.741  16.667 -0.4453 -0.4234 -1.1695
19463TIP3    H279805   1.093   3.832  16.634 -1.1672  0.9603  0.0235
19464TIP3   OH279806   1.871   5.222  15.426 -0.1988 -0.2828  0.3255
19464TIP3    H179807   1.944   5.211  15.365 -1.1342  1.1973 -1.1060
19464TIP3    H279808   1.886   5.307  15.467 -1.4243  0.3082 -0.4202
19465TIP3   OH279809   1.238   0.284   5.492  0.4418  0.4634 -0.4977
19465TIP3    H179810   1.152   0.246   5.509 -0.1053  1.3634 -1.1893
19465TIP3    H279811   1.244   0.289   5.396  1.1925  0.5911 -0.4519
19466TIP3   OH279812   6.800   2.333  12.534 -0.4358  0.8981  0.7700
19466TIP3    H179813   6.859   2.284  12.477 -1.0065  0.3992  0.6006
19466TIP3    H279814   6.832   2.315  12.622 -0.0257  1.0453  0.6559
19467TIP3   OH279815   5.215   3.200   4.864 -0.2131  0.4222 -0.1787
19467TIP3    H179816   5.230   3.270   4.800  0.4656 -0.5184 -1.0756
19467TIP3    H279817   5.300   3.190   4.908 -0.3616  0.2813  0.0776
19468TIP3   OH279818   1.112   2.136  16.451  0.1149  0.2087 -0.2485
19468TIP3    H179819   1.181   2.155  16.514  0.7879  1.7402 -1.3774
19468TIP3    H279820   1.035   2.180  16.487 -0.3122 -1.4578  0.9844
19469TIP3   OH279821   4.887   0.623  14.147 -0.5847 -0.3200 -0.1535
19469TIP3    H179822   4.885   0.538  14.192 -2.0658 -0.6019 -0.7151
19469TIP3    H279823   4.864   0.603  14.056  0.7286  0.4766 -0.6952
19470TIP3   OH279824   4.961   4.493   4.402 -0.2433  0.6581  0.1990
19470TIP3    H179825   5.037   4.457   4.355  1.0964  0.3704  2.4692
19470TIP3    H279826   4.979   4.587   4.407 -0.5673  0.7422 -0.1254
19471TIP3   OH279827   2.151   5.670   0.327  0.1353 -0.3480 -0.5208
19471TIP3    H179828   2.061   5.674   0.358  0.7336  0.2093  1.3008
19471TIP3    H279829   2.197   5.736   0.380  1.6907 -0.9566 -1.0698
19472TIP3   OH279830   3.271   5.881  12.496  0.5203  0.2956 -0.2457
19472TIP3    H179831   3.324   5.826  12.438 -1.1829 -2.1277  0.3254
19472TIP3    H279832   3.224   5.940  12.437  0.9985 -0.1244 -1.0630
19473TIP3   OH279833   1.207   1.014  11.282 -0.9075  0.0830  0.0595
19473TIP3    H179834   1.157   1.008  11.201  0.2018  1.0218 -0.7363
19473TIP3    H279835   1.293   0.978  11.259  0.0948  2.2551  0.1847
19474TIP3   OH279836   6.795   6.430  15.346  0.1401 -0.3151  0.0764
19474TIP3    H179837   6.841   6.373  15.408 -0.8186 -1.0490  0.1510
19474TIP3    H279838   6.739   6.370  15.296 -0.8550  0.5591  0.1102
19475TIP3   OH279839   5.963   1.121   1.244 -0.0708  0.0263 -0.1791
19475TIP3    H179840   5.962   1.121   1.339  1.3147 -1.4365 -0.1169
19475TIP3    H279841   6.055   1.138   1.221 -0.6385  1.8709 -1.3125
19476TIP3   OH279842   5.404   2.256   3.777 -0.4194 -0.0362 -0.1241
19476TIP3    H179843   5.388   2.294   3.690  0.2517  1.5416  0.3984
19476TIP3    H279844   5.322   2.213   3.800 -0.4521 -0.9292 -1.7320
19477TIP3   OH279845   3.516   3.435   5.159  0.2543 -0.5020 -0.0696
19477TIP3    H179846   3.557   3.350   5.174  2.1949  0.4011  0.2117
19477TIP3    H279847   3.480   3.459   5.244 -0.2088 -0.9999 -0.1240
19478TIP3   OH279848   0.978   5.256  15.973 -0.6652 -0.3663  0.1672
19478TIP3    H179849   0.923   5.179  15.991 -0.6310 -0.8029 -1.3884
19478TIP3    H279850   1.011   5.283  16.058 -2.5860 -0.6282  1.0632
19479TIP3   OH279851   3.355   1.866   4.812 -0.5929 -0.2851  0.0288
19479TIP3    H179852   3.387   1.891   4.899  1.0955  0.1344 -0.6720
19479TIP3    H279853   3.357   1.770   4.813 -1.3627 -0.3153  0.6929
19480TIP3   OH279854   0.728   6.564   0.049 -0.1438 -0.0797  0.3184
19480TIP3    H179855   0.780   6.515  -0.015 -0.0041  0.4717  0.0060
19480TIP3    H279856   0.791   6.613   0.100 -0.4174  3.0255 -2.0394
19481TIP3   OH279857   1.176   1.654  10.511 -0.0272 -0.1218 -0.4762
19481TIP3    H179858   1.093   1.606  10.506 -1.1332  1.7915 -2.0357
19481TIP3    H279859   1.151   1.743  10.537  1.0232  1.3384 -3.8176
19482TIP3   OH279860   2.910   6.197  17.014 -0.1283 -0.3619 -0.6028
19482TIP3    H179861   3.004   6.182  16.999 -0.0022  0.3527 -0.5631
19482TIP3    H279862   2.892   6.153  17.097 -0.6295 -3.5430 -2.2406
19483TIP3   OH279863   2.107   0.227  14.965 -0.2206 -0.7768 -0.2042
19483TIP3    H179864   2.086   0.315  14.934  0.0702 -1.0001 -1.0698
19483TIP3    H279865   2.051   0.170  14.913 -1.1345 -1.0491  1.0590
19484TIP3   OH279866   4.375   0.552  13.048  0.0855 -0.0844 -0.1371
19484TIP3    H179867   4.442   0.524  12.985  0.8429  2.3135 -0.4968
19484TIP3    H279868   4.311   0.599  12.996 -0.5921 -0.2163  0.5641
19485TIP3   OH279869   0.781   0.229   4.182  0.0514  0.0300 -0.2011
19485TIP3    H179870   0.695   0.269   4.197  0.7512  1.3305  0.6148
19485TIP3    H279871   0.816   0.275   4.106  1.0791  1.4515  1.0531
19486TIP3   OH279872   2.104   6.436   4.782 -0.0061 -0.0371 -0.6440
19486TIP3    H179873   2.140   6.423   4.869  1.5597  1.1469 -1.0589
19486TIP3    H279874   2.056   6.355   4.762  3.3445 -2.2429 -0.4510
19487TIP3   OH279875   2.986   3.244   4.275 -0.0539 -0.0459  1.0460
19487TIP3    H179876   3.023   3.310   4.334  4.1063 -1.2567  0.1186
19487TIP3    H279877   2.955   3.174   4.333 -0.2189  0.6826  1.8655
19488TIP3   OH279878   1.544   4.148   2.384 -0.0382  0.5834  0.2198
19488TIP3    H179879   1.628   4.115   2.352  0.4034  2.4188 -0.6550
19488TIP3    H279880   1.494   4.165   2.304 -0.8629  0.4796  0.7063
19489TIP3   OH279881   2.704   4.604  13.079  0.7849  0.6177 -0.3588
19489TIP3    H179882   2.750   4.667  13.023 -0.6145  1.2145 -0.8837
19489TIP3    H279883   2.618   4.594  13.039  0.6237 -0.9019  0.2747
19490TIP3   OH279884   1.946   1.899   3.148  0.4468  0.1964  0.5029
19490TIP3    H179885   1.983   1.937   3.068  1.0904 -1.4169 -0.0194
19490TIP3    H279886   2.019   1.898   3.210  0.6794 -0.9128  0.2296
19491TIP3   OH279887   0.057   5.752   4.249  0.4411  0.1073 -0.1932
19491TIP3    H179888  -0.033   5.757   4.283  0.5444  1.0793 -0.0329
19491TIP3    H279889   0.112   5.778   4.323  0.7972  0.3861 -0.5496
19492TIP3   OH279890   5.320   5.387  11.785  0.0823  0.1682 -0.2245
19492TIP3    H179891   5.282   5.457  11.732 -0.9546 -0.3077 -0.1339
19492TIP3    H279892   5.289   5.306  11.743  0.9944 -0.2358 -0.1332
19493TIP3   OH279893   2.609   5.293   0.478 -0.1405 -0.6161  0.5203
19493TIP3    H179894   2.704   5.302   0.470 -0.1808  0.4052  1.0623
19493TIP3    H279895   2.577   5.288   0.388  0.5056 -1.9638  0.3468
19494TIP3   OH279896   1.157   0.298   2.814 -0.6122 -0.0051  0.2976
19494TIP3    H179897   1.203   0.289   2.731 -0.1736  1.3568  0.3754
19494TIP3    H279898   1.164   0.391   2.836 -2.8628  0.1496  0.6237
19495TIP3   OH279899   6.412   4.653   3.575  0.6517  0.1139 -0.4024
19495TIP3    H179900   6.396   4.559   3.568  0.9210  0.1279 -1.3198
19495TIP3    H279901   6.499   4.666   3.539  0.4036  0.7811 -0.7861
19496TIP3   OH279902   4.118   4.597   0.313 -0.4315  0.5991 -0.5654
19496TIP3    H179903   4.032   4.595   0.271 -0.0348 -1.0332 -1.3998
19496TIP3    H279904   4.105   4.550   0.396 -0.0648 -1.0143 -1.3756
19497TIP3   OH279905   0.155   2.059   3.447 -0.2636  0.2547  0.2703
19497TIP3    H179906   0.099   2.023   3.515  0.1519  0.8339  0.9351
19497TIP3    H279907   0.178   1.984   3.392 -0.9716 -0.1391  0.4947
19498TIP3   OH279908   6.760   3.912  15.432  0.4132 -0.4508 -0.1050
19498TIP3    H179909   6.846   3.925  15.473  0.7833  0.4286 -1.1224
19498TIP3    H279910   6.780   3.868  15.349 -0.1921 -0.8456 -0.0440
19499TIP3   OH279911   0.224   6.472  11.672 -0.3792  0.2137  0.0224
19499TIP3    H179912   0.198   6.427  11.752  1.0333 -0.0166  0.3650
19499TIP3    H279913   0.315   6.496  11.685  0.2987 -0.9731 -2.0353
19500TIP3   OH279914   1.282   6.662  14.890  0.1181 -0.9010 -0.3992
19500TIP3    H179915   1.234   6.646  14.972  2.6343 -0.5802  1.2243
19500TIP3    H279916   1.260   6.752  14.866 -0.4761 -0.9248  0.0332
19501TIP3   OH279917   2.735   1.310  12.329  0.0735  0.1814 -0.1899
19501TIP3    H179918   2.728   1.356  12.413 -0.0057 -0.5693  0.2257
19501TIP3    H279919   2.654   1.260  12.323 -0.3521  0.9562 -1.1702
19502TIP3   OH279920   0.663   5.028  12.100  0.3839  0.8806 -0.3877
19502TIP3    H179921   0.575   5.026  12.062 -0.6225  0.6888  1.8363
19502TIP3    H279922   0.687   5.120  12.099 -0.0322  0.9910 -0.5593
19503TIP3   OH279923   5.907   4.604   0.975  0.9406  0.1102 -0.1496
19503TIP3    H179924   5.841   4.572   0.914  1.1307  0.6783 -0.6665
19503TIP3    H279925   5.936   4.526   1.023  0.5483 -0.2844 -0.5540
19504TIP3   OH279926   5.997   0.085  12.314  0.2832  0.0891  0.1732
19504TIP3    H179927   6.050   0.028  12.371  1.3530 -0.0622 -0.9353
19504TIP3    H279928   5.953   0.145  12.375  1.3459 -0.1007  1.1759
19505TIP3   OH279929   2.320   1.695  15.606 -0.0263  0.3930 -0.4531
19505TIP3    H179930   2.342   1.713  15.698  2.3301  1.6748 -1.1903
19505TIP3    H279931   2.255   1.763  15.585 -1.2303 -0.4278  0.4431
19506TIP3   OH279932   1.385   2.969   4.487  0.1312  0.6243 -0.4364
19506TIP3    H179933   1.380   2.955   4.582  0.1514  0.2297 -0.4928
19506TIP3    H279934   1.475   2.997   4.472  0.7916 -1.4233 -0.6030
19507TIP3   OH279935   3.171   0.240  13.874 -0.4558 -0.0708  0.2884
19507TIP3    H179936   3.216   0.256  13.791 -2.5491 -0.8996 -1.0798
19507TIP3    H279937   3.149   0.147  13.872  0.7086 -0.4655  2.4829
19508TIP3   OH279938   3.242   4.953   0.387 -0.1004  0.6335  0.0245
19508TIP3    H179939   3.169   5.013   0.400  0.3390  1.2200 -0.1221
19508TIP3    H279940   3.313   4.990   0.440 -0.1320 -0.3503  0.7787
19509TIP3   OH279941   0.195   1.096   2.607  0.1359  0.3078 -0.0955
19509TIP3    H179942   0.110   1.084   2.564  0.3718 -2.3100  0.0324
19509TIP3    H279943   0.245   1.018   2.584  1.4995  0.4388  2.1313
19510TIP3   OH279944   3.850   6.767  12.429  0.8230  0.1976  0.5629
19510TIP3    H179945   3.784   6.707  12.462 -0.3936 -0.2096 -2.2510
19510TIP3    H279946   3.804   6.851  12.421  1.1828  0.3758  0.3287
19511TIP3   OH279947   4.429   1.512   3.208 -0.0050 -0.0893 -0.6190
19511TIP3    H179948   4.334   1.519   3.207 -0.1010 -0.2818  1.8714
19511TIP3    H279949   4.460   1.600   3.230  0.3807 -0.1317 -0.9698
19512TIP3   OH279950   3.694   4.423   0.647  0.2786 -0.4544  0.3237
19512TIP3    H179951   3.650   4.360   0.590 -1.3761  0.1392  0.8880
19512TIP3    H279952   3.682   4.389   0.735 -1.2767  0.9463  0.7100
19513TIP3   OH279953   1.142   5.384  12.815 -0.1506  0.8168  0.1412
19513TIP3    H179954   1.118   5.311  12.870  1.8553 -0.1961 -0.2187
19513TIP3    H279955   1.219   5.353  12.766 -0.6805  2.3241 -1.7991
19514TIP3   OH279956   3.951   0.464  15.219  0.1548 -0.3179  0.1504
19514TIP3    H179957   3.944   0.435  15.128 -0.7338  0.3539 -0.0047
19514TIP3    H279958   4.002   0.395  15.262 -0.4011 -1.2213 -0.5970
19515TIP3   OH279959   6.267   3.578   0.916 -0.5455  0.2870 -0.8291
19515TIP3    H179960   6.302   3.502   0.869  0.7432  1.1929 -1.4028
19515TIP3    H279961   6.338   3.642   0.914  0.0688  0.0091  3.3824
19516TIP3   OH279962   0.889   1.898  16.061 -0.3481 -0.8993  0.1148
19516TIP3    H179963   0.862   1.830  15.999  1.0965  1.0337 -2.8421
19516TIP3    H279964   0.839   1.975  16.035  0.9395  0.1928  0.7803
19517TIP3   OH279965   0.793   4.655   0.991  0.1143  0.3033  0.0955
19517TIP3    H179966   0.794   4.572   0.944  0.4330  0.2939  0.1155
19517TIP3    H279967   0.868   4.649   1.051 -0.1208  0.4270  0.4020
19518TIP3   OH279968   0.906   5.769  16.940  0.3545  0.0928  0.6974
19518TIP3    H179969   1.000   5.783  16.928  0.9800 -2.9575  1.3534
19518TIP3    H279970   0.882   5.827  17.012  1.6890  0.9252  0.5137
19519TIP3   OH279971   3.711   5.636   5.598 -0.3971  0.2451  0.1564
19519TIP3    H179972   3.654   5.574   5.553  0.2261  0.6828 -1.3063
19519TIP3    H279973   3.652   5.698   5.640 -1.0132  0.2013 -0.6211
19520TIP3   OH279974   6.673   2.542  10.810 -0.4067 -0.3014  0.2129
19520TIP3    H179975   6.693   2.535  10.716 -0.8407  0.2574  0.0713
19520TIP3    H279976   6.597   2.600  10.813 -1.2526 -1.4099  0.8167
19521TIP3   OH279977   0.789   1.533   1.223 -0.1815 -0.4030  0.0486
19521TIP3    H179978   0.867   1.557   1.275 -1.0682 -0.3911  1.4331
19521TIP3    H279979   0.786   1.597   1.153  0.7532 -0.0593  0.3048
19522TIP3   OH279980   3.776   2.335  14.719  0.5244  0.5027 -0.2903
19522TIP3    H179981   3.778   2.346  14.814  0.8889 -0.6023 -0.1640
19522TIP3    H279982   3.865   2.310  14.696  0.2161 -0.1471 -0.8053
19523TIP3   OH279983   4.416   0.043  14.256 -0.3375 -0.6516  0.5935
19523TIP3    H179984   4.395  -0.012  14.180 -0.3516  0.6043 -0.3556
19523TIP3    H279985   4.338   0.039  14.311 -0.4662 -1.3064  0.3694
19524TIP3   OH279986   2.072   4.879   2.750 -0.2218  0.1531 -0.2839
19524TIP3    H179987   2.141   4.940   2.774 -0.8133  1.2522 -1.3077
19524TIP3    H279988   2.062   4.823   2.828  0.8180  0.8822  0.4058
19525TIP3   OH279989   0.339   6.327  10.910 -0.8549  1.5709 -0.4233
19525TIP3    H179990   0.416   6.304  10.859 -0.2263  2.5734  0.0373
19525TIP3    H279991   0.289   6.245  10.918  1.3862  0.2686  1.3576
19526TIP3   OH279992   2.107   6.257   5.123 -0.2657 -0.0770  0.1056
19526TIP3    H179993   2.130   6.349   5.113  1.0851 -0.4143 -0.0077
19526TIP3    H279994   2.096   6.245   5.218  4.8117 -0.9162  0.8447
19527TIP3   OH279995   3.967   4.427  12.877 -0.2093  0.8146  0.1211
19527TIP3    H179996   4.061   4.446  12.884 -0.0885  0.9410 -1.3541
19527TIP3    H279997   3.955   4.404  12.785 -1.5853  0.5193  0.3581
19528TIP3   OH279998   2.729   6.387   1.892  0.1095 -0.2380 -0.0570
19528TIP3    H179999   2.777   6.463   1.925  1.1529 -0.9635  0.1627
19528TIP3    H280000   2.647   6.387   1.940  0.3679  0.3898  0.3961
19529TIP3   OH280001   3.906   1.884  16.456 -0.1668  0.0242 -0.2705
19529TIP3    H180002   3.818   1.876  16.420  0.5443  0.7639 -2.3265
19529TIP3    H280003   3.903   1.963  16.509 -1.0096 -0.5715  0.5969
19530TIP3   OH280004   2.356   4.897   5.648  1.0242 -0.2641  0.1077
19530TIP3    H180005   2.316   4.984   5.639  1.9061  0.3398  1.6540
19530TIP3    H280006   2.398   4.881   5.564  0.0606  0.3882 -0.5227
19531TIP3   OH280007   0.387   6.774   5.277  0.2687 -0.1559  0.3504
19531TIP3    H180008   0.393   6.702   5.215  3.0190  0.1354  0.1433
19531TIP3    H280009   0.420   6.850   5.229 -0.0504  0.6502  1.3657
19532TIP3   OH280010   3.145   5.360   5.727  0.3380 -0.0150 -0.4707
19532TIP3    H180011   3.190   5.364   5.642 -0.1277 -4.0452 -1.0989
19532TIP3    H280012   3.184   5.285   5.771 -3.6380 -1.9441  0.1794
19533TIP3   OH280013   5.188   3.781  11.794 -0.2711 -0.1160  0.2112
19533TIP3    H180014   5.157   3.868  11.820 -0.1847 -0.0347  0.0387
19533TIP3    H280015   5.189   3.783  11.699 -0.2491 -0.3006  0.2078
19534TIP3   OH280016   3.076   0.283  12.634  0.5966 -0.6675 -0.8319
19534TIP3    H180017   3.025   0.328  12.567  0.5265 -1.5793 -1.4172
19534TIP3    H280018   3.160   0.329  12.637 -0.4617  1.3308  0.6747
19535TIP3   OH280019   3.835   5.918   4.937  0.8195  0.1084 -0.0110
19535TIP3    H180020   3.843   5.961   5.022  1.2119  0.9172 -0.4428
19535TIP3    H280021   3.784   5.839   4.955  2.8254 -0.9612  1.3893
19536TIP3   OH280022   2.150   3.689   0.647 -0.3290 -0.0128  0.8576
19536TIP3    H180023   2.158   3.774   0.603 -1.6893 -0.3913 -0.1696
19536TIP3    H280024   2.119   3.711   0.735 -2.9690  0.4868 -0.1114
19537TIP3   OH280025   4.810   1.725  13.055  0.1554 -0.6391  0.1394
19537TIP3    H180026   4.807   1.764  13.142 -1.7253  1.0516 -0.5869
19537TIP3    H280027   4.718   1.713  13.031  0.6404 -1.4974 -1.4352
19538TIP3   OH280028   4.055   1.892   5.872 -0.6007  0.0002 -0.1310
19538TIP3    H180029   4.015   1.875   5.957 -0.2608 -0.2888 -0.0256
19538TIP3    H280030   3.988   1.864   5.809 -0.6826 -0.1996  0.0418
19539TIP3   OH280031   5.123   5.983  15.421  0.2761 -0.5217 -0.9267
19539TIP3    H180032   5.038   6.019  15.395  0.5668  0.6534 -0.3282
19539TIP3    H280033   5.173   5.981  15.340  0.1176  0.0851 -1.0512
19540TIP3   OH280034   2.047   3.862  14.786  0.5446  0.3329 -0.3580
19540TIP3    H180035   2.110   3.791  14.800  1.4576  1.0653 -0.5874
19540TIP3    H280036   1.970   3.820  14.748 -0.2919 -1.0485  2.6250
19541TIP3   OH280037   2.897   5.422   4.357  0.2316 -0.0716  0.2715
19541TIP3    H180038   2.879   5.500   4.305 -1.4597 -1.4796 -1.4313
19541TIP3    H280039   2.842   5.431   4.435 -0.8054 -0.0291 -0.4434
19542TIP3   OH280040   5.284   4.778  14.494 -0.0635 -0.0760 -0.1696
19542TIP3    H180041   5.278   4.846  14.561  1.0706  0.8502 -0.9787
19542TIP3    H280042   5.344   4.714  14.531 -0.2448 -0.0837  0.1199
19543TIP3   OH280043   0.337   1.440  16.078 -0.5401 -0.2490  0.3803
19543TIP3    H180044   0.339   1.468  15.987  3.6998 -0.6087  0.1587
19543TIP3    H280045   0.312   1.518  16.127  1.5133  1.2909 -0.8790
19544TIP3   OH280046   5.652   2.361  13.420  0.7711  0.4268 -0.1753
19544TIP3    H180047   5.635   2.282  13.368  0.9680  1.1700 -1.4300
19544TIP3    H280048   5.593   2.355  13.494  1.7778 -1.5957  0.5440
19545TIP3   OH280049   5.267   1.972  15.241 -0.5518  0.4517  0.1568
19545TIP3    H180050   5.221   1.942  15.319  0.7493 -0.4920  0.6023
19545TIP3    H280051   5.211   1.946  15.168 -1.3744  0.5889  0.7236
19546TIP3   OH280052   1.975   0.878  16.941 -0.2233  0.3200 -0.1726
19546TIP3    H180053   1.934   0.954  16.898  0.2930  0.4444 -0.4472
19546TIP3    H280054   1.949   0.804  16.887 -1.2661  0.2049  0.4564
19547TIP3   OH280055   1.811   1.299  15.651 -0.3591  0.0800  0.0431
19547TIP3    H180056   1.848   1.384  15.628 -0.6396 -0.0618 -1.0208
19547TIP3    H280057   1.880   1.236  15.631  0.1479  0.1025  1.6109
19548TIP3   OH280058   3.461   3.093  13.862 -0.7063  0.0113 -0.6382
19548TIP3    H180059   3.401   3.140  13.804 -2.7910 -0.0839  1.2682
19548TIP3    H280060   3.428   3.112  13.950  0.7206 -1.9427  0.3985
19549TIP3   OH280061   4.772   2.248  13.760 -0.1852 -0.5202  0.2046
19549TIP3    H180062   4.864   2.237  13.787  0.3616 -0.7563 -1.5947
19549TIP3    H280063   4.725   2.265  13.841  1.4756 -0.2491  1.1615
19550TIP3   OH280064   3.038   1.524   5.809  0.0331  0.0922  0.4312
19550TIP3    H180065   2.966   1.552   5.865  0.5602  1.0079  0.6836
19550TIP3    H280066   3.095   1.472   5.867 -1.8847 -3.3223 -0.4718
19551TIP3   OH280067   5.174   0.621   4.893 -0.0602  0.2596  0.0111
19551TIP3    H180068   5.092   0.630   4.844  0.1906  1.0491 -0.2820
19551TIP3    H280069   5.156   0.662   4.978  0.6503  2.4291 -0.8147
19552TIP3   OH280070   3.757   1.282   4.765  0.1908 -0.4391 -0.0443
19552TIP3    H180071   3.735   1.298   4.857  1.3611 -0.7900  0.3113
19552TIP3    H280072   3.699   1.210   4.739 -1.2787  0.7269 -0.0670
19553TIP3   OH280073   4.142   1.129   5.529  0.2234  0.1735  0.0297
19553TIP3    H180074   4.161   1.037   5.513  0.2955  0.3521 -1.0286
19553TIP3    H280075   4.059   1.144   5.484  0.2293  0.6220  0.1674
19554TIP3   OH280076   6.686   4.317  16.042  0.5922  0.1331  0.4660
19554TIP3    H180077   6.652   4.320  15.952  1.0616 -0.1096  0.2781
19554TIP3    H280078   6.635   4.383  16.089 -0.8666 -0.9381  0.4447
19555TIP3   OH280079   5.267   4.801  14.823 -0.4954 -0.2448 -0.1115
19555TIP3    H180080   5.212   4.722  14.822  0.6022 -1.1120  1.7705
19555TIP3    H280081   5.281   4.818  14.916  0.9837  0.9701 -0.5321
19556TIP3   OH280082   0.102   3.299   1.213  0.1725 -0.3944 -0.4831
19556TIP3    H180083   0.123   3.248   1.292  0.2823 -2.4042 -1.7400
19556TIP3    H280084   0.140   3.386   1.230 -0.2182 -0.6097  1.8376
19557TIP3   OH280085   6.166   5.157   0.201  0.1014  0.3896  0.1137
19557TIP3    H180086   6.231   5.192   0.140  0.2931  0.9954  0.6547
19557TIP3    H280087   6.083   5.195   0.172 -0.1820 -1.0915 -1.1312
19558TIP3   OH280088   5.386   1.689  14.929  0.0956  0.2136 -0.3761
19558TIP3    H180089   5.315   1.624  14.934  0.2241 -0.1277 -2.1970
19558TIP3    H280090   5.466   1.637  14.920  0.4454  0.6166  0.3334
19559TIP3   OH280091   2.671   0.483   1.769 -0.3727 -0.4127  0.3696
19559TIP3    H180092   2.724   0.561   1.786  1.2878 -1.3788 -0.1929
19559TIP3    H280093   2.685   0.464   1.676 -1.2617 -1.0273  0.3506
19560TIP3   OH280094   0.748   1.267  10.723  0.1259  0.6196  0.4301
19560TIP3    H180095   0.706   1.239  10.804  1.3982  2.5015  1.8346
19560TIP3    H280096   0.828   1.215  10.718 -0.6637 -0.5612 -0.4613
19561TIP3   OH280097   4.818   1.749  13.898  0.9283  0.2288 -0.3853
19561TIP3    H180098   4.900   1.753  13.947  1.3511  1.8924 -1.1927
19561TIP3    H280099   4.780   1.836  13.905 -0.2323 -0.1993 -0.9645
19562TIP3   OH280100   1.959   0.073  14.811 -0.0566  0.3755 -0.1412
19562TIP3    H180101   1.956   0.024  14.729 -2.0807 -0.3652  0.3133
19562TIP3    H280102   1.879   0.046  14.858 -0.5137  3.0286  0.7633
19563TIP3   OH280103   6.141   2.014   1.036 -0.2509  0.0531 -0.1063
19563TIP3    H180104   6.083   1.987   1.106  1.4668 -1.8105  0.6885
19563TIP3    H280105   6.084   2.027   0.960 -1.6183 -2.9202  0.2810
19564TIP3   OH280106   5.212   4.805  15.935 -0.3566 -0.3411 -0.9686
19564TIP3    H180107   5.126   4.774  15.905  0.3851 -2.2431 -1.2649
19564TIP3    H280108   5.207   4.800  16.030 -0.2530 -1.4436 -1.0090
19565TIP3   OH280109   1.819   5.863  13.660 -0.6249  0.1982 -0.7500
19565TIP3    H180110   1.817   5.894  13.569 -1.5524 -0.8343 -1.1144
19565TIP3    H280111   1.905   5.888  13.692  0.2122 -0.5139 -2.3224
19566TIP3   OH280112   3.556   0.437   1.906 -0.1158 -0.3291 -0.1194
19566TIP3    H180113   3.472   0.449   1.861 -0.7575 -2.0748  0.5303
19566TIP3    H280114   3.585   0.526   1.925 -0.8841  0.3873 -1.9966
19567TIP3   OH280115   3.395   2.175   5.820  0.1290 -0.6638 -0.7202
19567TIP3    H180116   3.346   2.163   5.902 -0.0358  2.6051 -0.1892
19567TIP3    H280117   3.483   2.145   5.840  0.0353 -0.1229  0.6188
19568TIP3   OH280118   4.500   3.123  11.556  0.1537 -0.4528 -0.2533
19568TIP3    H180119   4.526   3.038  11.523  1.6876  0.1601 -0.6951
19568TIP3    H280120   4.539   3.129  11.644  1.6060  0.4638 -0.9142
19569TIP3   OH280121   6.065   3.597   2.367 -0.4804 -0.0076  0.4224
19569TIP3    H180122   6.070   3.530   2.298 -0.0706  0.1753  0.2695
19569TIP3    H280123   6.102   3.675   2.327 -1.0136  0.3314  0.5848
19570TIP3   OH280124   4.512   0.417   4.243 -0.6409 -0.1901 -0.3794
19570TIP3    H180125   4.591   0.417   4.298 -0.6176 -0.3047 -0.4132
19570TIP3    H280126   4.505   0.327   4.212 -0.9228 -0.2356 -0.1825
19571TIP3   OH280127   0.727   5.319  12.839  0.3771 -0.5944 -0.1010
19571TIP3    H180128   0.638   5.308  12.873  0.4076 -0.8165 -0.0879
19571TIP3    H280129   0.782   5.314  12.917  0.3024  1.1107  0.0976
19572TIP3   OH280130   3.285   3.423  11.431 -0.1065 -0.6729  0.0808
19572TIP3    H180131   3.305   3.510  11.397  2.0113 -0.1052  2.4703
19572TIP3    H280132   3.347   3.365  11.386  0.5015 -0.4373  0.5934
19573TIP3   OH280133   6.689   3.377  15.712 -0.5751 -0.0988 -0.1436
19573TIP3    H180134   6.594   3.377  15.703 -0.5365 -0.1328 -0.5938
19573TIP3    H280135   6.713   3.470  15.708 -0.5158 -0.1400 -0.9457
19574TIP3   OH280136   6.129   6.311  13.353  0.1590  0.2668 -0.1945
19574TIP3    H180137   6.048   6.299  13.402  0.6062 -1.7373  0.1496
19574TIP3    H280138   6.197   6.279  13.412  0.7750 -1.7153 -1.8681
19575TIP3   OH280139   4.911   0.280   0.857 -0.1833  0.0662 -0.0049
19575TIP3    H180140   4.879   0.331   0.783 -0.5704 -0.2390 -0.0544
19575TIP3    H280141   4.844   0.292   0.924 -1.8880 -2.7696 -1.0141
19576TIP3   OH280142   0.878   6.513  14.546  0.2258  0.0507 -0.6285
19576TIP3    H180143   0.925   6.448  14.495  0.5289 -0.2384  0.0080
19576TIP3    H280144   0.797   6.469  14.572  0.5065 -0.1358 -0.0573
19577TIP3   OH280145   2.209   3.582   2.129  0.0199  0.0600  0.3156
19577TIP3    H180146   2.222   3.576   2.223  2.0462 -0.4979  0.0545
19577TIP3    H280147   2.298   3.582   2.093 -0.7008 -1.8810 -1.6991
19578TIP3   OH280148   0.346   6.531   6.020  0.0950  0.2149  0.0795
19578TIP3    H180149   0.274   6.495   6.072  1.3153 -0.3798  1.4389
19578TIP3    H280150   0.326   6.624   6.012 -0.1778  0.3151  1.5912
19579TIP3   OH280151   1.926   6.094  15.927 -0.5513 -0.0463  0.1486
19579TIP3    H180152   2.015   6.068  15.903 -1.3725 -2.0449 -1.0042
19579TIP3    H280153   1.908   6.044  16.007 -0.6909  0.2737  0.3174
19580TIP3   OH280154   3.217   3.889  12.604  0.6855 -0.3796  0.0892
19580TIP3    H180155   3.208   3.794  12.603  1.2472 -0.4312 -0.6603
19580TIP3    H280156   3.195   3.916  12.515 -0.9409  0.3496  0.6590
19581TIP3   OH280157   2.483   0.926   3.614  0.0522  0.4996 -0.6431
19581TIP3    H180158   2.562   0.915   3.667 -1.1543 -1.7656  0.8687
19581TIP3    H280159   2.500   0.876   3.535  1.4883  3.1187 -2.1523
19582TIP3   OH280160   4.854   4.026   1.863 -0.2336  0.5140 -0.0514
19582TIP3    H180161   4.927   4.031   1.924  0.3788  0.0203 -0.7382
19582TIP3    H280162   4.782   4.071   1.909  0.2146  0.1848  1.0117
19583TIP3   OH280163   2.602   4.577   3.825  0.6020  0.0770 -0.1484
19583TIP3    H180164   2.693   4.569   3.795  0.2609 -3.1472 -0.7480
19583TIP3    H280165   2.608   4.585   3.920  1.4987  1.7807 -0.3094
19584TIP3   OH280166   3.615   1.039  11.451  0.3393  0.1269  0.2975
19584TIP3    H180167   3.520   1.043  11.437  0.3325 -1.5255 -0.2933
19584TIP3    H280168   3.642   0.958  11.408  2.0135  0.5314  0.5462
19585TIP3   OH280169   6.297   6.727   0.213 -0.2496 -0.4449 -0.0340
19585TIP3    H180170   6.341   6.809   0.190  0.2564 -1.2868 -2.2167
19585TIP3    H280171   6.363   6.676   0.260 -1.3717  1.3890  4.0675
19586TIP3   OH280172   1.001   3.792  16.332  0.0651 -0.3197  0.0450
19586TIP3    H180173   1.053   3.872  16.341  1.1760 -0.9561 -0.5913
19586TIP3    H280174   0.990   3.760  16.421  0.5720 -0.0593  0.2014
19587TIP3   OH280175   5.176   5.076  15.277 -0.2729 -0.5608  0.1039
19587TIP3    H180176   5.204   5.075  15.369 -1.0478 -0.5115  0.3452
19587TIP3    H280177   5.163   5.169  15.257 -0.1260 -0.5733 -0.0498
19588TIP3   OH280178   1.326   5.626   4.438 -0.3630 -0.3762  0.0450
19588TIP3    H180179   1.355   5.685   4.367  0.9356 -1.4488 -0.3674
19588TIP3    H280180   1.270   5.562   4.394 -1.0369  0.0117  0.3297
19589TIP3   OH280181   2.989   5.926  13.271  0.6214 -0.0192  0.7056
19589TIP3    H180182   3.024   5.961  13.353  0.7242  0.1255  0.6018
19589TIP3    H280183   3.067   5.905  13.219  0.6364  3.0802 -0.7202
19590TIP3   OH280184   5.187   6.294  12.230 -0.4564  0.0820  0.5592
19590TIP3    H180185   5.163   6.273  12.321  0.0360 -1.9866  0.2787
19590TIP3    H280186   5.280   6.316  12.235 -0.0744 -1.3671  0.4316
19591TIP3   OH280187   0.095   1.598   4.185 -0.6319  0.4457  0.4390
19591TIP3    H180188   0.076   1.678   4.233 -1.8592 -0.8443  2.1983
19591TIP3    H280189   0.018   1.543   4.197  0.0876 -0.9384 -0.8900
19592TIP3   OH280190   5.887   3.412   1.161 -0.3928  0.0763 -0.9453
19592TIP3    H180191   5.953   3.478   1.180 -1.0477  0.5123 -0.0855
19592TIP3    H280192   5.936   3.331   1.150  0.1829  0.0013  1.6032
19593TIP3   OH280193   3.444   4.733  11.581 -0.1556  0.5648  0.0532
19593TIP3    H180194   3.359   4.692  11.562  0.6197 -1.1221  0.0514
19593TIP3    H280195   3.480   4.681  11.653  0.6894  1.5519  0.3650
19594TIP3   OH280196   3.426   1.891  12.845  0.4519  0.2195  0.4685
19594TIP3    H180197   3.404   1.900  12.752 -0.0739 -0.8956  0.4647
19594TIP3    H280198   3.344   1.869  12.888  0.7657  0.3066  1.1337
19595TIP3   OH280199   4.950   4.993   4.086  0.4983  0.1733  0.2601
19595TIP3    H180200   4.864   4.988   4.129  0.3015 -0.1665 -0.1583
19595TIP3    H280201   5.011   5.017   4.156  0.3086 -1.1519  0.9043
19596TIP3   OH280202   2.304   5.870  14.431 -0.3863  0.6163 -0.1863
19596TIP3    H180203   2.374   5.935  14.433 -0.8266  1.0973 -0.3164
19596TIP3    H280204   2.304   5.832  14.519 -0.8777  1.5985  0.2467
19597TIP3   OH280205   5.264   2.020  16.797  0.2234  0.4842  0.0086
19597TIP3    H180206   5.300   2.038  16.710 -0.2429 -0.2192 -0.3395
19597TIP3    H280207   5.184   1.971  16.780 -0.2814  1.0145  0.8193
19598TIP3   OH280208   1.575   5.530   5.724  0.1547 -0.2037 -0.4566
19598TIP3    H180209   1.481   5.522   5.709  0.4406 -1.3207 -1.8948
19598TIP3    H280210   1.584   5.536   5.819 -1.4019  0.6900 -0.3346
19599TIP3   OH280211   6.349   5.622   1.165  0.2291 -0.0613 -0.3212
19599TIP3    H180212   6.348   5.717   1.182  0.5549 -0.0862 -0.1584
19599TIP3    H280213   6.328   5.583   1.250  0.6053 -0.1479 -0.2644
19600TIP3   OH280214   1.680   0.104  13.485  0.4340  0.9217 -0.4696
19600TIP3    H180215   1.686   0.167  13.414 -1.6144  0.3219 -1.2306
19600TIP3    H280216   1.589   0.107  13.513  0.6186 -0.6528  0.4623
19601TIP3   OH280217   1.820   3.452   2.207  0.1358 -0.2667  0.3317
19601TIP3    H180218   1.866   3.368   2.208 -1.1952 -1.0190  0.1916
19601TIP3    H280219   1.849   3.496   2.288  1.3294 -0.5707  0.0885
19602TIP3   OH280220   6.212   3.614  12.231  0.3228 -1.0812 -0.8926
19602TIP3    H180221   6.217   3.521  12.252  0.5008 -0.8931 -0.0525
19602TIP3    H280222   6.124   3.625  12.196 -0.9750 -1.0295  2.0270
19603TIP3   OH280223   5.816   5.131  12.288  0.0730 -0.4030 -0.2168
19603TIP3    H180224   5.902   5.171  12.299 -1.2830  2.4056  1.4323
19603TIP3    H280225   5.759   5.204  12.261 -2.2100 -1.6225  0.9640
19604TIP3   OH280226   6.649   3.017   5.516  0.0800  0.0494 -0.4396
19604TIP3    H180227   6.710   2.999   5.444 -1.2153  0.6430 -1.7363
19604TIP3    H280228   6.646   2.936   5.566  0.1460 -0.7810 -1.7371
19605TIP3   OH280229   6.647   6.334  14.021  0.4490  0.0199  0.2655
19605TIP3    H180230   6.627   6.402  13.956 -0.3757  1.2739  1.7453
19605TIP3    H280231   6.594   6.259  13.994  1.6038 -0.2050 -1.5765
19606TIP3   OH280232   6.448   3.554  13.382  0.3128  0.2762 -0.1102
19606TIP3    H180233   6.359   3.521  13.392  0.2461  0.7246  0.9519
19606TIP3    H280234   6.503   3.487  13.424  0.3750  0.4811  0.1398
19607TIP3   OH280235   5.439   3.974  16.349  0.7585 -0.2680 -0.0644
19607TIP3    H180236   5.478   3.921  16.279  1.6907  1.3271 -0.8138
19607TIP3    H280237   5.438   4.063  16.314 -2.1168  0.0551  0.5930
19608TIP3   OH280238   2.458   3.176  11.649  0.5220  0.2684 -0.3354
19608TIP3    H180239   2.442   3.214  11.562 -0.2274 -0.1483 -0.3883
19608TIP3    H280240   2.403   3.228  11.708  2.7877  2.1302  0.3163
19609TIP3   OH280241   2.193   4.665   3.505  0.8795 -0.5637  0.3934
19609TIP3    H180242   2.152   4.734   3.558 -0.8963 -0.5269 -0.9234
19609TIP3    H280243   2.278   4.651   3.546  1.4958  2.7055  0.4830
19610TIP3   OH280244   4.364   1.172   2.383 -0.1678 -0.5318  0.1988
19610TIP3    H180245   4.403   1.087   2.399  1.2354 -0.1487 -0.9873
19610TIP3    H280246   4.373   1.186   2.289 -0.0786  1.0587  0.4066
19611TIP3   OH280247   5.248   3.490  12.331  0.3698  0.1884  0.2780
19611TIP3    H180248   5.242   3.568  12.387  3.2818  3.3110 -3.2521
19611TIP3    H280249   5.167   3.492  12.280 -0.3393 -0.1633  1.3540
19612TIP3   OH280250   2.601   5.046   0.694  0.3737  0.2991  0.1222
19612TIP3    H180251   2.651   5.121   0.662  3.8803 -1.2822  1.3621
19612TIP3    H280252   2.622   4.976   0.633 -0.9804 -0.2974  0.3045
19613TIP3   OH280253   2.513   3.988  13.934  0.0500  0.1434  0.4782
19613TIP3    H180254   2.534   4.038  14.013  1.6498 -0.0740  0.2196
19613TIP3    H280255   2.463   4.049  13.879  0.7768  0.9958  0.7453
19614TIP3   OH280256   5.870   5.108  11.715 -0.1310  0.2812 -0.3182
19614TIP3    H180257   5.781   5.144  11.724 -0.1642 -0.1797  1.8546
19614TIP3    H280258   5.920   5.154  11.782  0.9209 -0.5021 -0.5510
19615TIP3   OH280259   4.101   2.281   3.834 -0.3308 -0.1553 -0.4260
19615TIP3    H180260   4.124   2.355   3.778 -0.2242 -0.7443 -1.1878
19615TIP3    H280261   4.012   2.300   3.864 -0.5185  0.0240 -1.0718
19616TIP3   OH280262   0.379   3.716   0.944 -0.5420  0.0943 -0.4175
19616TIP3    H180263   0.370   3.632   0.899  1.0691 -0.7019  0.6371
19616TIP3    H280264   0.415   3.775   0.878  0.2180 -0.6044 -0.6469
19617TIP3   OH280265   3.696   3.348  17.061  0.8565  0.1024  0.1463
19617TIP3    H180266   3.676   3.400  17.139 -0.6549  0.4971 -0.4710
19617TIP3    H280267   3.689   3.257  17.089 -0.1151  0.2396  0.3891
19618TIP3   OH280268   0.488   6.030  12.778  0.6523  0.2954 -0.2216
19618TIP3    H180269   0.415   6.036  12.840  1.1082  3.4186  0.2069
19618TIP3    H280270   0.446   6.017  12.693 -0.0926 -2.1896  0.4664
19619TIP3   OH280271   0.300   1.751  11.405 -0.0519 -0.1511 -0.4086
19619TIP3    H180272   0.245   1.828  11.386  0.1155 -0.1703 -1.0072
19619TIP3    H280273   0.285   1.733  11.498 -1.1096 -0.1904 -0.5687
19620TIP3   OH280274   5.689   4.434   5.928  0.5600 -0.1025  0.5069
19620TIP3    H180275   5.710   4.371   5.997 -1.5781 -0.7742  0.6039
19620TIP3    H280276   5.675   4.382   5.850  0.4244  0.4205  0.1750
19621TIP3   OH280277   4.372   1.682  14.656 -0.5130  0.1458 -0.2768
19621TIP3    H180278   4.283   1.716  14.666 -0.6195  0.1584 -1.1457
19621TIP3    H280279   4.428   1.759  14.658 -0.6289  0.2484 -0.8593
19622TIP3   OH280280   4.832   1.588  11.485 -0.2828  0.4244  0.2761
19622TIP3    H180281   4.851   1.682  11.492  2.6237  0.0115 -0.9146
19622TIP3    H280282   4.768   1.582  11.414  0.5036  1.4388 -0.5600
19623TIP3   OH280283   5.243   5.853  16.475 -0.5811  0.2780  0.0701
19623TIP3    H180284   5.259   5.947  16.459  0.1007  0.3352  1.0062
19623TIP3    H280285   5.155   5.849  16.511  0.1500  0.8292  2.0698
19624TIP3   OH280286   2.696   5.474  11.074 -0.0491  0.6373 -0.1623
19624TIP3    H180287   2.790   5.483  11.059  0.0739  1.6975  1.0446
19624TIP3    H280288   2.679   5.380  11.063  1.4975  0.1174  1.3211
19625TIP3   OH280289   3.347   5.804  15.242 -0.6343 -0.2248  0.2726
19625TIP3    H180290   3.315   5.815  15.152 -0.2604  1.9686  0.3675
19625TIP3    H280291   3.272   5.827  15.297 -0.4280 -0.1191  0.5112
19626TIP3   OH280292   2.771   6.230  11.656  0.1079  0.4040  0.0964
19626TIP3    H180293   2.728   6.250  11.739  0.5978 -0.9204  0.6943
19626TIP3    H280294   2.744   6.140  11.636  1.0515  0.2402 -0.4975
19627TIP3   OH280295   5.549   5.732   3.940  0.7783 -0.1964  0.6674
19627TIP3    H180296   5.623   5.686   3.979  1.7076 -0.1879 -1.0173
19627TIP3    H280297   5.491   5.663   3.909  2.2768 -0.3551 -2.0602
19628TIP3   OH280298   5.794   3.376   3.632 -0.4326 -0.3888 -0.2883
19628TIP3    H180299   5.792   3.412   3.720 -1.0936  0.4518 -0.6427
19628TIP3    H280300   5.761   3.446   3.576  2.3661  0.0743 -1.5603
19629TIP3   OH280301   3.309   1.101   3.241 -0.3087 -0.2179  0.0929
19629TIP3    H180302   3.228   1.130   3.198  0.8676  0.9313 -1.4652
19629TIP3    H280303   3.297   1.008   3.256 -1.9120 -0.0653 -0.0942
19630TIP3   OH280304   2.759   3.214  16.340  0.2534 -0.2199  0.0595
19630TIP3    H180305   2.680   3.256  16.306  0.2863  1.2578  1.6497
19630TIP3    H280306   2.753   3.226  16.435  1.4801 -1.7554  0.3772
19631TIP3   OH280307   0.514   5.366   4.920  0.4294 -0.2528  0.0044
19631TIP3    H180308   0.518   5.441   4.980  1.0899 -0.1683 -0.1333
19631TIP3    H280309   0.534   5.403   4.834  1.8841 -0.7395  0.0946
19632TIP3   OH280310   2.200   0.719   3.566 -0.1688 -0.6326  0.6418
19632TIP3    H180311   2.282   0.730   3.613  0.9321 -1.2946 -1.0346
19632TIP3    H280312   2.210   0.637   3.518 -1.4303 -0.2530 -0.3317
19633TIP3   OH280313   3.253   6.695  12.438  0.4667  1.1531 -0.1606
19633TIP3    H180314   3.261   6.645  12.357  0.4586  0.6188  0.1664
19633TIP3    H280315   3.326   6.757  12.436  0.3056  1.3339 -0.7023
19634TIP3   OH280316   2.813   3.840  16.431  0.3798  0.0433 -0.1276
19634TIP3    H180317   2.783   3.930  16.419 -0.7833 -0.3334 -0.1581
19634TIP3    H280318   2.896   3.835  16.383  0.1777  0.9473 -0.5778
19635TIP3   OH280319   1.924   1.916   4.650 -0.1470 -0.2746 -0.6417
19635TIP3    H180320   1.831   1.909   4.628 -0.3591 -1.6991  0.5455
19635TIP3    H280321   1.948   2.004   4.623 -2.3329  0.8531  0.7424
19636TIP3   OH280322   1.397   4.242  17.009 -0.6593  0.2311 -0.5056
19636TIP3    H180323   1.307   4.236  17.040 -0.7393 -1.2344 -0.9697
19636TIP3    H280324   1.402   4.328  16.967 -1.0191  1.5437  1.9515
19637TIP3   OH280325   2.035   1.277   1.246 -0.2834  0.2901 -0.6252
19637TIP3    H180326   2.017   1.321   1.162  0.3497  1.5300 -0.1388
19637TIP3    H280327   2.110   1.325   1.282  0.0139 -0.8010  0.2458
19638TIP3   OH280328   5.845   5.176   0.412  0.3356  0.3771  0.4095
19638TIP3    H180329   5.816   5.089   0.385 -0.1433 -0.7583  4.0319
19638TIP3    H280330   5.900   5.207   0.340  1.5441 -3.4245 -0.5098
19639TIP3   OH280331   5.663   3.786   5.474  0.4132 -0.3607 -0.5270
19639TIP3    H180332   5.738   3.766   5.530 -0.7922 -0.0756  1.2475
19639TIP3    H280333   5.640   3.876   5.495 -1.9514 -1.1986  0.8805
19640TIP3   OH280334   1.766   0.632   5.828 -0.3227 -0.1724 -0.5501
19640TIP3    H180335   1.814   0.591   5.756  0.7611  0.3108 -0.1226
19640TIP3    H280336   1.679   0.591   5.825  0.7373 -2.6700 -0.0119
19641TIP3   OH280337   5.939   5.510  13.126  0.1188 -0.0227  0.8321
19641TIP3    H180338   5.887   5.479  13.052 -0.3052 -0.5882  1.3580
19641TIP3    H280339   5.992   5.581  13.090  0.3045 -0.6353 -0.1373
19642TIP3   OH280340   5.247   2.233   4.902  0.1193  0.0101  0.0322
19642TIP3    H180341   5.217   2.173   4.969 -1.0028  0.6960  0.1658
19642TIP3    H280342   5.337   2.254   4.927 -0.1915  0.0487  1.1690
19643TIP3   OH280343   0.817   4.504   5.700 -0.8217  0.2170  0.2884
19643TIP3    H180344   0.816   4.595   5.729 -0.1027  0.1085  0.6603
19643TIP3    H280345   0.827   4.509   5.605  1.0645  0.5009  0.4798
19644TIP3   OH280346   5.021   5.612  13.620  0.0982 -0.2410 -0.2949
19644TIP3    H180347   4.970   5.686  13.587 -0.3733 -1.0706 -1.4954
19644TIP3    H280348   4.972   5.581  13.696 -1.7201 -1.5642 -1.9325
19645TIP3   OH280349   4.903   2.771   1.390 -0.1498  0.2200 -0.2255
19645TIP3    H180350   4.857   2.741   1.311 -0.6372  1.0025 -0.2515
19645TIP3    H280351   4.935   2.691   1.431 -0.1493 -0.2185 -1.0614
19646TIP3   OH280352   0.154   5.574   0.420  0.1431  0.2284  0.0874
19646TIP3    H180353   0.196   5.560   0.505 -3.4291  0.3182  2.1110
19646TIP3    H280354   0.113   5.490   0.399 -0.6902  0.7615 -0.4913
19647TIP3   OH280355   0.533   1.803  16.489 -0.1089  0.2023  0.6969
19647TIP3    H180356   0.498   1.880  16.534 -0.1982  0.2105  0.6165
19647TIP3    H280357   0.522   1.823  16.396  0.0957  0.1963  0.6713
19648TIP3   OH280358   3.776   0.407   2.630 -0.1838  0.0678 -0.1878
19648TIP3    H180359   3.799   0.393   2.722  0.7799 -1.3403 -0.6103
19648TIP3    H280360   3.773   0.319   2.593 -0.2310  0.6443 -1.5939
19649TIP3   OH280361   2.911   5.563   0.811 -0.4031 -0.3845 -0.0909
19649TIP3    H180362   2.968   5.598   0.880 -2.4912 -0.6406  1.8994
19649TIP3    H280363   2.850   5.506   0.858 -1.8449 -0.6674 -2.2056
19650TIP3   OH280364   1.398   3.596   2.268  0.2566  0.1971  1.1027
19650TIP3    H180365   1.343   3.673   2.280  0.1845  0.2174  0.6766
19650TIP3    H280366   1.397   3.552   2.353 -3.4460 -1.8189  0.2511
19651TIP3   OH280367   6.371   5.009  14.608  0.4062  0.6689  0.2802
19651TIP3    H180368   6.364   4.918  14.638  0.6319  0.5758  0.0504
19651TIP3    H280369   6.337   5.060  14.681 -1.1500  0.3220 -0.1392
19652TIP3   OH280370   4.034   1.513   4.430 -0.2920  0.1486  0.6126
19652TIP3    H180371   4.119   1.478   4.405 -0.1977 -0.9387  2.3048
19652TIP3    H280372   4.024   1.592   4.377 -0.2495 -2.0196 -2.9209
19653TIP3   OH280373   3.300   4.041   2.300  0.5916 -0.2228  0.0216
19653TIP3    H180374   3.394   4.058   2.313  0.2105  2.2473  0.1250
19653TIP3    H280375   3.262   4.056   2.387 -0.0272 -0.1322 -0.2662
19654TIP3   OH280376   0.637   6.065  13.505  0.5551 -0.0936  0.0602
19654TIP3    H180377   0.667   6.084  13.594 -0.3390  0.0106  0.3608
19654TIP3    H280378   0.623   5.971  13.504 -0.3719  0.0211  0.3632
19655TIP3   OH280379   3.647   4.194   0.527  0.3774  0.2093  0.1918
19655TIP3    H180380   3.673   4.160   0.441  0.3493  0.6209  0.0178
19655TIP3    H280381   3.570   4.142   0.551  0.6438 -0.2023  0.1679
19656TIP3   OH280382   1.315   5.464   6.034 -0.0744  0.0769 -0.0823
19656TIP3    H180383   1.324   5.481   6.128  0.4817  3.0957 -0.5820
19656TIP3    H280384   1.403   5.477   5.999 -0.4534 -0.1326 -1.1287
19657TIP3   OH280385   4.908   6.472  11.801  0.1238 -0.2049  0.0989
19657TIP3    H180386   4.971   6.530  11.845 -1.7142  0.3484  2.2135
19657TIP3    H280387   4.925   6.386  11.839  0.4357 -0.3294 -0.3110
19658TIP3   OH280388   0.304   4.113  12.743  0.3096  0.1072  0.2891
19658TIP3    H180389   0.367   4.179  12.714 -1.3036  1.7808  0.4682
19658TIP3    H280390   0.278   4.068  12.662 -1.6047  2.4703 -0.5346
19659TIP3   OH280391   2.930   4.767   3.384 -0.1347 -0.2430  0.3052
19659TIP3    H180392   3.013   4.730   3.415  0.0372 -0.9246 -0.9023
19659TIP3    H280393   2.867   4.695   3.394 -0.4957  0.1327  0.7963
19660TIP3   OH280394   6.616   4.805  12.976  0.1696 -0.0579 -1.1220
19660TIP3    H180395   6.599   4.741  13.046 -0.0939 -2.0585 -2.9258
19660TIP3    H280396   6.529   4.828  12.944  0.3434 -0.1656 -1.6675
19661TIP3   OH280397   1.613   2.690   0.117  0.3757  0.4651  0.2098
19661TIP3    H180398   1.682   2.738   0.162 -0.6197  1.0917  1.1071
19661TIP3    H280399   1.553   2.664   0.186  0.1000 -0.7421 -0.4657
19662TIP3   OH280400   1.633   0.228   3.783 -0.1353  0.1298 -0.5538
19662TIP3    H180401   1.715   0.179   3.788 -1.0752 -1.5013 -0.3744
19662TIP3    H280402   1.596   0.205   3.698 -1.9366 -1.8171  0.6597
19663TIP3   OH280403   4.172   5.935  11.794  0.0090  0.4679  0.3003
19663TIP3    H180404   4.140   5.981  11.872  1.8477  1.5348  0.4766
19663TIP3    H280405   4.192   5.846  11.825  1.0925  0.9972  1.1526
19664TIP3   OH280406   1.586   3.725  11.656 -0.3659 -0.0023  0.1532
19664TIP3    H180407   1.552   3.661  11.594 -1.2131 -0.8362  1.4319
19664TIP3    H280408   1.682   3.718  11.647 -0.2937 -3.2418  1.9360
19665TIP3   OH280409   5.068   4.185  16.118 -0.0531  0.2137  0.1398
19665TIP3    H180410   4.988   4.174  16.067  0.3709 -1.3188 -0.2176
19665TIP3    H280411   5.130   4.223  16.056 -0.0505 -0.0329 -0.0105
19666TIP3   OH280412   2.699   2.602  17.133 -0.2653  0.4889  0.3717
19666TIP3    H180413   2.714   2.597  17.228 -2.0387 -2.4887  0.6110
19666TIP3    H280414   2.786   2.616  17.096  0.6564  0.4154  2.3745
19667TIP3   OH280415   0.590   0.664   3.449 -0.3169 -0.1444 -0.7612
19667TIP3    H180416   0.653   0.734   3.464 -1.2231  0.7720 -1.1411
19667TIP3    H280417   0.644   0.586   3.436  0.7055  0.4445 -0.2161
19668TIP3   OH280418   3.249   6.631  13.229 -0.2628 -0.2098 -0.5268
19668TIP3    H180419   3.186   6.564  13.201  2.0703 -2.9291  0.2854
19668TIP3    H280420   3.307   6.643  13.154  1.1274 -1.4235  0.3091
19669TIP3   OH280421   5.099   0.269  15.149  0.3622 -0.1341  0.5312
19669TIP3    H180422   5.082   0.175  15.138 -1.2592  0.2101 -0.1897
19669TIP3    H280423   5.076   0.287  15.240 -0.7570 -0.1921  0.2827
19670TIP3   OH280424   5.866   1.348  10.548  0.1013  0.4798  0.4499
19670TIP3    H180425   5.913   1.306  10.619 -0.2469 -0.0182  0.3918
19670TIP3    H280426   5.915   1.428  10.530  0.8748  0.0100  0.4390
19671TIP3   OH280427   0.159   2.892   3.641  0.3319  0.3986 -0.6988
19671TIP3    H180428   0.161   2.797   3.630  0.1731  0.3377 -0.2382
19671TIP3    H280429   0.080   2.908   3.693  1.2756  0.6137  0.7246
19672TIP3   OH280430   4.247   2.768   2.215  0.0044 -0.1347 -0.6309
19672TIP3    H180431   4.300   2.829   2.163  0.6777  0.6374  0.8990
19672TIP3    H280432   4.226   2.696   2.154  0.3542  0.9471 -2.0797
19673TIP3   OH280433   5.896   5.015   5.378 -0.8875 -0.2727 -0.1542
19673TIP3    H180434   5.924   5.102   5.404 -1.4288 -0.2942  0.5222
19673TIP3    H280435   5.835   5.030   5.305  0.0478 -0.1715 -0.9279
19674TIP3   OH280436   0.353   6.594   4.538  0.3821  0.6514 -0.1150
19674TIP3    H180437   0.302   6.517   4.514  1.7985 -0.5966  0.7668
19674TIP3    H280438   0.287   6.657   4.568 -0.8530  0.0687 -1.4436
19675TIP3   OH280439   1.755   2.998  16.713 -0.2724  0.1991  0.2734
19675TIP3    H180440   1.762   3.083  16.671 -0.3742  0.6295  1.1015
19675TIP3    H280441   1.741   2.936  16.641  1.5668  0.6300 -0.5253
19676TIP3   OH280442   3.164   3.922  12.325 -0.4715 -0.6012  0.6794
19676TIP3    H180443   3.168   3.911  12.230  0.0751  2.3046  0.2852
19676TIP3    H280444   3.076   3.955  12.343 -0.1537  0.0978  1.0000
19677TIP3   OH280445   2.791   4.627  16.291  0.5380  0.2355 -0.2357
19677TIP3    H180446   2.778   4.704  16.346 -1.6866 -0.0811 -0.2182
19677TIP3    H280447   2.760   4.653  16.204 -0.2314 -0.6047 -0.2285
19678TIP3   OH280448   3.157   4.503   4.648 -0.2560 -0.7272  0.0097
19678TIP3    H180449   3.197   4.535   4.567 -0.9390 -0.0582 -0.0710
19678TIP3    H280450   3.223   4.519   4.715  0.4404 -1.5685 -0.4530
19679TIP3   OH280451   6.085   5.026  12.626 -0.8041 -0.5580  0.1567
19679TIP3    H180452   6.017   4.988  12.571 -1.2301 -2.0969  1.6525
19679TIP3    H280453   6.037   5.077  12.692 -0.3438  0.6703 -0.4403
19680TIP3   OH280454   6.414   0.673  12.860  0.5286  0.1615 -0.7053
19680TIP3    H180455   6.354   0.747  12.865  2.2614  1.5623  1.3545
19680TIP3    H280456   6.495   0.711  12.826  1.8001 -0.4487  1.4228
19681TIP3   OH280457   6.730   2.275   5.879 -0.3709 -0.2520  0.5165
19681TIP3    H180458   6.819   2.267   5.914 -0.0398  0.4421 -0.1305
19681TIP3    H280459   6.674   2.259   5.954  0.2877 -1.4357  0.7755
19682TIP3   OH280460   5.165   2.469  16.745  0.1432 -0.5289 -0.0016
19682TIP3    H180461   5.127   2.389  16.780  0.4479 -0.3630  0.7155
19682TIP3    H280462   5.117   2.540  16.788 -1.1391 -0.2868 -1.7160
19683TIP3   OH280463   5.775   1.664  15.096 -0.6875 -0.4044  0.3412
19683TIP3    H180464   5.709   1.620  15.043 -1.0592 -0.9040  1.1929
19683TIP3    H280465   5.737   1.749  15.115 -1.3384 -0.8883  1.2719
19684TIP3   OH280466   1.510   2.099  17.159 -0.2626  0.1908  0.4761
19684TIP3    H180467   1.434   2.157  17.155 -0.5055 -0.0649  1.2146
19684TIP3    H280468   1.584   2.158  17.171 -0.4305  0.3985  0.5036
19685TIP3   OH280469   5.993   0.896   0.074 -0.5729  0.2456 -0.1921
19685TIP3    H180470   6.020   0.950   0.149 -1.3116 -0.0959  0.3332
19685TIP3    H280471   6.022   0.946  -0.003  1.0225  0.1722  0.3166
19686TIP3   OH280472   0.800   3.694  11.832 -0.3491 -0.0903  0.1567
19686TIP3    H180473   0.771   3.643  11.756 -0.4132  2.8019 -1.9442
19686TIP3    H280474   0.727   3.688  11.893 -0.7681 -1.6182 -0.4234
19687TIP3   OH280475   5.247   4.357  13.098 -0.0314 -0.6372 -0.6452
19687TIP3    H180476   5.294   4.419  13.154 -1.1960 -1.1331  0.9786
19687TIP3    H280477   5.240   4.401  13.014  1.4098  0.3419 -0.2903
19688TIP3   OH280478   5.459   2.265   2.158  0.4305  0.1625 -0.2173
19688TIP3    H180479   5.385   2.312   2.118  0.5029 -0.4700 -1.1314
19688TIP3    H280480   5.461   2.181   2.112 -0.2636 -1.1512  2.0095
19689TIP3   OH280481   5.236   0.288  17.013  0.5819  0.6128 -0.1751
19689TIP3    H180482   5.311   0.272  16.956  0.2704 -0.7003 -0.2576
19689TIP3    H280483   5.245   0.222  17.082 -1.2992 -0.6278 -1.0250
19690TIP3   OH280484   6.807   6.048  12.309 -0.0851 -0.6992 -0.2637
19690TIP3    H180485   6.770   6.083  12.228 -0.3455  0.0632  0.1744
19690TIP3    H280486   6.738   5.994  12.346 -0.1273 -0.6824 -0.3182
19691TIP3   OH280487   5.813   3.575  14.889 -0.3707  0.1150 -0.1084
19691TIP3    H180488   5.878   3.532  14.832 -0.5272 -2.1137  1.2745
19691TIP3    H280489   5.747   3.610  14.828  0.4435 -0.4707 -1.3750
19692TIP3   OH280490   6.580   1.604   0.691 -0.0731 -0.2248 -0.0617
19692TIP3    H180491   6.502   1.584   0.639  1.0263  0.8996 -2.3237
19692TIP3    H280492   6.579   1.699   0.702  0.4384 -0.3056  0.8172
19693TIP3   OH280493   3.353   3.426   2.181  0.2063 -0.2993 -0.3372
19693TIP3    H180494   3.400   3.490   2.129  0.0186 -1.0830 -1.5138
19693TIP3    H280495   3.292   3.477   2.234  0.7233  0.5441 -0.5486
19694TIP3   OH280496   1.818   1.516   6.371  0.6877  0.3927  0.1708
19694TIP3    H180497   1.817   1.597   6.422  1.4472  0.7276 -0.3349
19694TIP3    H280498   1.910   1.499   6.354  0.5322 -0.5382  0.1929
19695TIP3   OH280499   5.818   5.671   4.047 -0.2939  0.1981  0.0135
19695TIP3    H180500   5.792   5.597   3.992 -0.2853  0.4419 -0.3275
19695TIP3    H280501   5.870   5.727   3.988  0.9032 -0.2202  0.6535
19696TIP3   OH280502   2.767   5.080   4.852 -0.2177 -0.0393  0.6643
19696TIP3    H180503   2.855   5.086   4.888 -0.4480  1.2986  1.0763
19696TIP3    H280504   2.724   5.012   4.904  0.3596 -0.2192  0.9167
19697TIP3   OH280505   3.543   4.499   1.794 -0.1633  0.0913 -0.2831
19697TIP3    H180506   3.631   4.490   1.757 -0.1849 -0.7557 -0.1606
19697TIP3    H280507   3.513   4.409   1.806  0.1357  0.2795  2.5305
19698TIP3   OH280508   5.064   3.368  11.509 -0.3907  0.2672 -0.0269
19698TIP3    H180509   5.047   3.462  11.500 -0.7663  0.0414 -1.9686
19698TIP3    H280510   4.980   3.326  11.494 -0.1634 -0.4167  0.5318
19699TIP3   OH280511   1.243   5.909   3.452 -0.0623 -0.3325  0.2565
19699TIP3    H180512   1.247   6.004   3.441  0.9908 -0.4687 -0.8256
19699TIP3    H280513   1.231   5.875   3.363  1.6927 -1.2592  0.3188
19700TIP3   OH280514   5.705   1.641  16.600 -0.1536  0.0344 -0.0508
19700TIP3    H180515   5.609   1.651  16.599 -0.0559  1.0420 -0.6637
19700TIP3    H280516   5.720   1.555  16.562 -0.7566  0.5940 -1.6508
19701TIP3   OH280517   3.938   3.875   3.667  0.1907  0.3674 -0.0174
19701TIP3    H180518   4.012   3.837   3.621  0.8881  0.4221  1.0195
19701TIP3    H280519   3.938   3.967   3.641  0.6284  0.4178  0.1500
19702TIP3   OH280520   1.583   3.370   0.245 -0.5190  0.4558  0.0119
19702TIP3    H180521   1.610   3.454   0.209 -1.4850  0.4643 -0.7340
19702TIP3    H280522   1.648   3.308   0.211 -0.3512  0.7536 -0.2212
19703TIP3   OH280523   2.030   0.249  16.006  0.1768 -0.0024 -0.1154
19703TIP3    H180524   2.086   0.255  16.084 -0.2797 -1.4548  0.3524
19703TIP3    H280525   1.947   0.216  16.040  0.3044 -1.6866 -1.3654
19704TIP3   OH280526   6.654   4.594  15.123  0.0157  0.0238  0.0801
19704TIP3    H180527   6.710   4.671  15.126  1.4573 -0.8522 -1.8759
19704TIP3    H280528   6.702   4.526  15.170  1.4993 -1.1635 -2.8696
19705TIP3   OH280529   5.685   2.605  14.392  0.4767 -0.5516  0.4084
19705TIP3    H180530   5.693   2.518  14.353 -0.6646  0.5322 -2.5621
19705TIP3    H280531   5.613   2.647  14.344  1.5017  2.2982  1.1288
19706TIP3   OH280532   0.304   4.504  11.495 -0.1901 -0.3568  0.2785
19706TIP3    H180533   0.317   4.469  11.583 -0.8168  1.3503  1.0976
19706TIP3    H280534   0.349   4.588  11.496  0.4571 -0.6507 -1.3083
19707TIP3   OH280535   3.270   6.359   0.644 -0.4721 -0.0780  0.1124
19707TIP3    H180536   3.248   6.280   0.595  0.9453 -0.7944  0.5839
19707TIP3    H280537   3.269   6.429   0.579 -2.0662 -0.4084 -0.2531
19708TIP3   OH280538   1.385   0.420  14.176 -0.2160 -0.3804  0.0362
19708TIP3    H180539   1.388   0.481  14.102 -1.2344  0.7380  0.8775
19708TIP3    H280540   1.394   0.334  14.136  4.2100  0.3069 -1.0071
19709TIP3   OH280541   5.768   5.683   4.328  0.2474 -0.1462 -0.5330
19709TIP3    H180542   5.697   5.618   4.323  2.1892 -2.3470 -1.2939
19709TIP3    H280543   5.797   5.694   4.237 -1.5611  3.7595 -0.8128
19710TIP3   OH280544   5.338   1.555  11.371 -0.3425 -0.4162 -0.3644
19710TIP3    H180545   5.403   1.490  11.346 -0.4707 -0.5429 -0.3659
19710TIP3    H280546   5.312   1.596  11.288  1.9659  1.7691 -0.1337
19711TIP3   OH280547   0.411   4.670   5.776  0.5217 -0.2780 -0.0443
19711TIP3    H180548   0.491   4.662   5.829  1.1846  0.0317 -0.9724
19711TIP3    H280549   0.392   4.763   5.775  0.0261 -0.3689  0.3261
19712TIP3   OH280550   1.416   3.807  15.789 -0.2186 -0.2084 -0.2687
19712TIP3    H180551   1.369   3.787  15.708 -1.1128 -2.0505  0.6438
19712TIP3    H280552   1.367   3.880  15.827  0.1633  0.6204 -1.3263
19713TIP3   OH280553   4.016   6.612   1.530 -0.1729 -0.3804 -0.2592
19713TIP3    H180554   3.948   6.677   1.545 -0.2297  0.0382 -2.0584
19713TIP3    H280555   3.968   6.529   1.524 -0.3339 -0.3157  0.1434
19714TIP3   OH280556   5.409   0.340  12.303  0.0320  0.3145 -0.2808
19714TIP3    H180557   5.385   0.250  12.327 -1.6004  0.5327 -0.9854
19714TIP3    H280558   5.497   0.351  12.339 -0.4136 -0.9739  1.3437
19715TIP3   OH280559   2.766   4.696   1.545 -0.3339 -0.1274 -0.6107
19715TIP3    H180560   2.826   4.767   1.569 -0.4294 -0.2390 -0.0463
19715TIP3    H280561   2.796   4.621   1.597 -1.7521  0.1474  0.6593
19716TIP3   OH280562   5.457   3.379   5.079 -0.1020  0.4427 -0.4014
19716TIP3    H180563   5.400   3.438   5.128 -0.5308 -0.2777 -0.0134
19716TIP3    H280564   5.538   3.377   5.129 -0.2047  0.4511 -0.2319
19717TIP3   OH280565   4.428   4.408  13.278  0.2297  0.6235  0.0546
19717TIP3    H180566   4.338   4.395  13.307  0.1929  0.9967  0.1052
19717TIP3    H280567   4.440   4.503  13.278  0.4637  0.5932 -0.4424
19718TIP3   OH280568   2.296   6.685   1.514 -0.0117  0.0543 -0.0980
19718TIP3    H180569   2.342   6.675   1.430  0.3816  0.1117  0.1086
19718TIP3    H280570   2.365   6.680   1.580 -0.3249 -0.0300  0.2275
19719TIP3   OH280571   0.602   4.424  13.699  0.5445  0.8075 -0.0305
19719TIP3    H180572   0.569   4.334  13.705  0.1375  1.0338  1.2318
19719TIP3    H280573   0.526   4.475  13.669  0.9449  0.6552 -1.3872
19720TIP3   OH280574   0.522   2.526   5.584 -0.1492  0.0696  0.0815
19720TIP3    H180575   0.443   2.473   5.601 -1.0228  1.0890 -0.6300
19720TIP3    H280576   0.510   2.605   5.637 -0.2738  0.8290 -1.0385
19721TIP3   OH280577   0.782   6.057   1.165 -0.2218 -0.1869 -0.5212
19721TIP3    H180578   0.688   6.045   1.177 -0.4585  1.0745 -0.9041
19721TIP3    H280579   0.822   5.983   1.211 -1.3626 -0.1567  0.5844
19722TIP3   OH280580   1.920   0.257   6.038  0.1621 -0.3668 -0.2546
19722TIP3    H180581   1.953   0.170   6.063  0.1098 -0.2473  0.2452
19722TIP3    H280582   1.974   0.283   5.964 -0.1810 -1.0657 -0.7592
19723TIP3   OH280583   3.294   0.354   1.617  0.7988 -0.2140  0.0383
19723TIP3    H180584   3.290   0.267   1.656 -1.9069 -0.7602 -1.1941
19723TIP3    H280585   3.366   0.349   1.554  0.5124 -1.6800 -0.2080
19724TIP3   OH280586   3.251   1.897  10.442  0.3105  0.0544  0.0697
19724TIP3    H180587   3.274   1.959  10.511  0.4587  0.0946 -0.0154
19724TIP3    H280588   3.304   1.819  10.461 -0.2637 -0.2460  0.4817
19725TIP3   OH280589   1.829   3.913  13.079 -0.4416  0.0905  0.3887
19725TIP3    H180590   1.891   3.905  13.007 -1.3203  0.1113 -0.3798
19725TIP3    H280591   1.884   3.937  13.154  0.5854 -0.6582 -0.0816
19726TIP3   OH280592   5.355   6.338   4.607 -0.4821 -0.5809 -0.5000
19726TIP3    H180593   5.429   6.289   4.571 -1.9411 -0.9409 -3.2733
19726TIP3    H280594   5.385   6.428   4.610  0.7918 -1.0077  0.5944
19727TIP3   OH280595   3.545   5.022   2.744  0.2908 -0.5156  0.1377
19727TIP3    H180596   3.551   4.996   2.652  1.9684  0.6673 -0.1296
19727TIP3    H280597   3.612   4.969   2.788  2.7736  2.1311 -0.1796
19728TIP3   OH280598   1.201   3.390   3.980  0.3748  0.0443  0.1432
19728TIP3    H180599   1.209   3.474   4.027  0.7288  0.6751 -1.0069
19728TIP3    H280600   1.121   3.352   4.014 -0.3408  1.3285 -0.0281
19729TIP3   OH280601   0.256   6.279   6.139  0.3729  1.0378  1.0308
19729TIP3    H180602   0.213   6.209   6.188 -1.3106  0.4300 -1.1739
19729TIP3    H280603   0.186   6.341   6.118  0.9626  1.1434 -0.7671
19730TIP3   OH280604   1.135   1.869  16.137  0.1626  0.0672 -0.0024
19730TIP3    H180605   1.049   1.892  16.102  0.5568  0.4515 -0.7246
19730TIP3    H280606   1.172   1.810  16.072  0.3572 -0.2847  0.4225
19731TIP3   OH280607   3.385   6.214   1.982 -0.4409 -0.2827  0.3834
19731TIP3    H180608   3.317   6.231   1.916  1.6867  1.2912 -1.5713
19731TIP3    H280609   3.451   6.281   1.965  1.1707 -1.1511  2.8245
19732TIP3   OH280610   1.754   2.156   5.545  0.1417  0.3219 -0.5661
19732TIP3    H180611   1.689   2.188   5.607 -0.2570 -1.2048 -0.1633
19732TIP3    H280612   1.702   2.113   5.476  0.6398  0.8631 -1.2941
19733TIP3   OH280613   1.063   5.801  13.150  0.1314  0.5699  0.2945
19733TIP3    H180614   0.976   5.840  13.141  0.7932  1.6912 -1.7056
19733TIP3    H280615   1.102   5.847  13.224 -1.2159 -0.5358  1.7785
19734TIP3   OH280616   0.736   5.460   2.069  0.4724  0.7761  0.2956
19734TIP3    H180617   0.768   5.382   2.113 -0.4887  0.8026  1.0666
19734TIP3    H280618   0.799   5.475   1.998  0.0297 -1.3994 -0.6464
19735TIP3   OH280619   2.571   4.841   2.515 -0.2987  0.1037  0.6505
19735TIP3    H180620   2.607   4.892   2.442 -0.6663 -0.2469  0.2153
19735TIP3    H280621   2.538   4.760   2.473  0.5575 -0.6326  1.3613
19736TIP3   OH280622   3.533   4.790   1.772  0.6076  0.5240 -0.2175
19736TIP3    H180623   3.531   4.695   1.778  2.7302  0.4865  1.0716
19736TIP3    H280624   3.491   4.821   1.852  0.6452  0.6540 -0.2476
19737TIP3   OH280625   0.844   3.025   1.526 -0.6125  0.2857 -0.1126
19737TIP3    H180626   0.829   3.114   1.558 -2.0403  0.0919 -0.1582
19737TIP3    H280627   0.842   3.033   1.431 -1.7118  0.0748 -0.1161
19738TIP3   OH280628   2.720   3.165   1.123  0.5227 -0.0473 -0.3757
19738TIP3    H180629   2.714   3.198   1.033  0.5052 -1.0762 -0.7601
19738TIP3    H280630   2.794   3.104   1.122 -2.2773 -3.7990 -0.9445
19739TIP3   OH280631   1.057   2.541  15.079  0.4055 -0.6264 -0.1560
19739TIP3    H180632   1.053   2.570  14.988  1.7491 -0.7485 -0.2797
19739TIP3    H280633   1.113   2.605  15.122 -1.5169  0.3609  0.9993
19740TIP3   OH280634   2.779   0.905   5.054  0.2108  0.0218  0.6106
19740TIP3    H180635   2.846   0.862   5.000 -3.0872 -1.8201 -2.4629
19740TIP3    H280636   2.747   0.837   5.112 -1.3682 -0.2484 -0.5098
19741TIP3   OH280637   0.767   4.862  11.246  0.0309 -0.5550  0.1856
19741TIP3    H180638   0.735   4.805  11.316 -2.1335 -1.1835 -1.2196
19741TIP3    H280639   0.696   4.924  11.231 -0.3304 -1.4773 -2.5186
19742TIP3   OH280640   0.731   1.207   2.143  0.2313 -0.2086 -0.0672
19742TIP3    H180641   0.672   1.132   2.147 -0.0065 -0.0184 -0.0331
19742TIP3    H280642   0.708   1.252   2.062 -1.9068  1.7002  1.4749
19743TIP3   OH280643   4.844   4.320  11.692  0.1233  0.0708  0.2724
19743TIP3    H180644   4.886   4.406  11.691 -0.2843  0.4090  3.1755
19743TIP3    H280645   4.764   4.332  11.641 -0.0685  1.5478  0.8593
19744TIP3   OH280646   2.512   5.977  12.553  0.1731 -0.2010  0.2854
19744TIP3    H180647   2.586   6.038  12.549 -0.8132  0.9550 -1.4128
19744TIP3    H280648   2.543   5.899  12.507  0.5414  0.0111  0.1710
19745TIP3   OH280649   2.168   4.777  12.058  0.2909  0.0423  0.2662
19745TIP3    H180650   2.204   4.829  12.129  1.9257  0.0273 -0.5144
19745TIP3    H280651   2.089   4.737  12.095  1.1176 -0.0126  2.0797
19746TIP3   OH280652   0.565   5.805   6.434  0.1800 -0.2714 -0.1221
19746TIP3    H180653   0.634   5.748   6.399  0.8883  0.3072  0.2834
19746TIP3    H280654   0.486   5.752   6.432  0.5891 -0.8758 -0.8329
19747TIP3   OH280655   1.727   0.922   1.023  0.5887  0.0131 -0.0537
19747TIP3    H180656   1.677   1.003   1.033 -0.8769 -0.9888  1.0362
19747TIP3    H280657   1.699   0.867   1.096  4.0064 -0.2781  1.2488
19748TIP3   OH280658   0.941   5.579   2.297 -0.5830  0.0411 -0.2767
19748TIP3    H180659   0.982   5.525   2.229  0.4683 -1.1258  1.2141
19748TIP3    H280660   1.015   5.623   2.340 -0.9579 -1.0025  1.5483
19749TIP3   OH280661   5.953   3.365  13.305 -0.7752 -0.0539  0.2446
19749TIP3    H180662   6.045   3.349  13.325 -0.9149 -0.1005  0.8864
19749TIP3    H280663   5.934   3.309  13.231 -0.3335 -0.1853  0.2293
19750TIP3   OH280664   4.691   0.253  12.425  0.0907 -0.0167  0.2137
19750TIP3    H180665   4.783   0.261  12.451  0.6501 -2.8267 -0.5464
19750TIP3    H280666   4.660   0.176  12.472 -0.9158 -0.9763 -1.8754
19751TIP3   OH280667   3.465   1.265   5.609  0.3078 -0.0639  0.0519
19751TIP3    H180668   3.454   1.351   5.649  1.1549  0.5280 -0.9338
19751TIP3    H280669   3.452   1.280   5.515  1.2075 -0.8605 -0.2153
19752TIP3   OH280670   5.368   3.983   3.681 -0.6900  0.3054  0.0802
19752TIP3    H180671   5.455   3.946   3.669 -0.4257  0.8830  0.2238
19752TIP3    H280672   5.318   3.950   3.606  0.5267  2.6315 -1.8587
19753TIP3   OH280673   3.047   0.501  11.746 -0.0867 -0.2623  0.4492
19753TIP3    H180674   3.071   0.475  11.657 -0.8125 -0.0745  0.1930
19753TIP3    H280675   2.994   0.580  11.735  0.0903 -0.0497  1.0710
19754TIP3   OH280676   4.133   4.612  11.859 -0.0393  0.7189 -0.3799
19754TIP3    H180677   4.080   4.667  11.802 -0.6063 -0.6325 -1.2242
19754TIP3    H280678   4.221   4.650  11.854 -0.4693  1.7082 -0.6866
19755TIP3   OH280679   1.517   2.060  11.599 -0.3903  0.0517  0.1362
19755TIP3    H180680   1.483   2.019  11.520  1.9422  1.2841 -1.6399
19755TIP3    H280681   1.483   2.150  11.596 -1.5758 -0.3064  1.4516
19756TIP3   OH280682   1.447   2.644   4.454  0.5334 -0.4097 -0.8426
19756TIP3    H180683   1.360   2.680   4.436  1.8776  1.9399 -3.1809
19756TIP3    H280684   1.434   2.590   4.533 -2.3657  2.4946  0.9232
19757TIP3   OH280685   2.993   1.434  12.367  0.0290  0.2487 -0.5475
19757TIP3    H180686   3.077   1.428  12.322  0.3159  0.6994 -0.0791
19757TIP3    H280687   2.931   1.389  12.309  1.1026 -2.7297  0.4455
19758TIP3   OH280688   6.736   1.813   6.423  0.2378  0.1706  0.1962
19758TIP3    H180689   6.699   1.727   6.407  0.3726 -0.2350  1.8808
19758TIP3    H280690   6.825   1.808   6.387  0.4356 -0.5764  0.7702
19759TIP3   OH280691   0.847   6.047   2.237  0.0150 -0.7723  0.0126
19759TIP3    H180692   0.766   6.044   2.186  1.6481  1.5065 -3.0117
19759TIP3    H280693   0.846   6.132   2.280  0.9555 -0.5264 -0.4183
19760TIP3   OH280694   0.213   4.455   0.871  0.3740 -0.6694 -0.3275
19760TIP3    H180695   0.306   4.454   0.848  0.2034  0.4058 -1.1505
19760TIP3    H280696   0.209   4.411   0.956  1.6693 -0.5105 -0.1597
19761TIP3   OH280697   1.714   5.118   0.299 -0.1398 -0.0323 -0.3871
19761TIP3    H180698   1.660   5.110   0.378  1.8008  3.1100  1.4562
19761TIP3    H280699   1.672   5.187   0.248 -0.9575 -1.5294 -1.8158
19762TIP3   OH280700   0.852   6.015   4.806  0.0097  0.0448  0.0095
19762TIP3    H180701   0.927   6.010   4.748  0.6236 -0.1297  0.8033
19762TIP3    H280702   0.887   6.047   4.889 -1.2593  2.7104 -0.3953
19763TIP3   OH280703   3.708   6.304  14.164 -0.8489  0.4954 -0.1989
19763TIP3    H180704   3.647   6.348  14.105 -0.7071  0.6118 -0.2627
19763TIP3    H280705   3.656   6.282  14.241 -1.4317 -1.0904 -1.0006
19764TIP3   OH280706   1.837   3.232  15.453 -0.5702 -0.0761 -0.1942
19764TIP3    H180707   1.904   3.223  15.385 -1.3792  0.2906 -1.0731
19764TIP3    H280708   1.851   3.158  15.512 -0.5011 -1.0038 -1.3433
19765TIP3   OH280709   3.921   4.480  16.089  0.4222  0.0276  0.8871
19765TIP3    H180710   3.999   4.513  16.045  1.3023 -1.3370  1.3456
19765TIP3    H280711   3.880   4.422  16.025  0.0975  0.2868  0.8568
19766TIP3   OH280712   5.973   2.477  14.893 -0.0800 -0.1929 -0.3688
19766TIP3    H180713   5.943   2.483  14.802  0.0579  2.8865 -0.3136
19766TIP3    H280714   6.068   2.484  14.887  0.0554 -1.5482 -0.0435
19767TIP3   OH280715   3.332   4.485   3.701 -0.3169 -0.6450  0.3008
19767TIP3    H180716   3.401   4.506   3.638  0.9285 -0.9945  1.5142
19767TIP3    H280717   3.312   4.393   3.684 -0.4897 -0.5473 -0.0409
19768TIP3   OH280718   5.416   3.248   3.599  0.6802 -0.0656 -0.6619
19768TIP3    H180719   5.414   3.224   3.692  1.7158  3.4354  0.4381
19768TIP3    H280720   5.486   3.193   3.562  1.9527  0.1364  1.2590
19769TIP3   OH280721   2.360   0.726   5.795 -0.6634 -0.1191  0.4034
19769TIP3    H180722   2.352   0.729   5.890 -2.6561  0.0856  0.2770
19769TIP3    H280723   2.450   0.696   5.779  0.4697  1.9830  2.2954
19770TIP3   OH280724   2.704   2.481  13.434  0.1886  0.1367  0.3283
19770TIP3    H180725   2.619   2.483  13.478  0.2626 -2.4282  0.7664
19770TIP3    H280726   2.725   2.573  13.416 -2.0546  0.9116  1.3727
19771TIP3   OH280727   5.627   4.257   4.426  0.8375  0.7720 -0.4385
19771TIP3    H180728   5.683   4.320   4.472  0.8465  1.3621 -1.2282
19771TIP3    H280729   5.538   4.281   4.453  0.9469 -0.2139  0.8743
19772TIP3   OH280730   4.468   2.746  16.988  0.0999  0.2135 -0.0233
19772TIP3    H180731   4.488   2.699  16.906  0.9105  2.5799 -1.2726
19772TIP3    H280732   4.552   2.752  17.033 -0.2191 -0.4718  0.6884
19773TIP3   OH280733   2.016   1.340  11.932 -0.3861 -0.0652  0.4528
19773TIP3    H180734   1.969   1.365  11.853 -0.5692  0.7336  0.8057
19773TIP3    H280735   2.084   1.407  11.942 -1.1055  0.5301  1.6049
19774TIP3   OH280736   4.572   6.628  12.180 -0.5160  0.6840 -0.8290
19774TIP3    H180737   4.494   6.648  12.128 -0.6639 -1.4509 -1.5243
19774TIP3    H280738   4.619   6.562  12.130  0.9835  0.8273  0.2984
19775TIP3   OH280739   1.269   5.528   3.137 -0.5933  0.5604 -0.2025
19775TIP3    H180740   1.215   5.496   3.065 -1.7394 -0.2132  0.9533
19775TIP3    H280741   1.294   5.616   3.111 -1.8451  0.6733 -1.1020
19776TIP3   OH280742   3.635   2.793   2.335  0.2406  0.5097  0.4003
19776TIP3    H180743   3.659   2.772   2.426  1.7172  0.7897  0.1064
19776TIP3    H280744   3.665   2.717   2.285  1.8053  1.4367 -0.1453
19777TIP3   OH280745   4.377   5.547   1.291  0.7937 -0.5037  0.0513
19777TIP3    H180746   4.470   5.542   1.313  0.2444  0.3205  2.9699
19777TIP3    H280747   4.372   5.610   1.219  2.4938 -0.8623 -0.4233
19778TIP3   OH280748   4.162   3.516  14.388 -0.3715  0.3078 -0.3778
19778TIP3    H180749   4.141   3.425  14.408  2.4369  0.3314  3.9286
19778TIP3    H280750   4.082   3.564  14.411 -0.5878 -0.7974  1.4339
19779TIP3   OH280751   2.913   3.172   2.726 -0.5440 -0.1726 -0.3263
19779TIP3    H180752   2.860   3.152   2.802 -0.9463 -1.2042 -0.8649
19779TIP3    H280753   2.941   3.263   2.740  1.8254 -1.1846  2.4732
19780TIP3   OH280754   3.195   6.056  14.558 -0.2528 -0.0700  0.5961
19780TIP3    H180755   3.156   6.096  14.635 -0.2051 -1.2899  1.2812
19780TIP3    H280756   3.192   6.124  14.491 -2.1521  0.3614  1.0699
19781TIP3   OH280757   2.313   4.040  15.616  0.2468  0.5885  0.5739
19781TIP3    H180758   2.407   4.026  15.608  0.1486 -0.1257  0.6425
19781TIP3    H280759   2.282   4.052  15.526  0.5054  1.5690  0.5992
19782TIP3   OH280760   3.260   3.227  13.736  0.1567  0.3006 -0.6238
19782TIP3    H180761   3.215   3.243  13.819  0.8185 -0.3323 -0.1367
19782TIP3    H280762   3.224   3.293  13.677 -0.6335  0.4850  0.0446
19783TIP3   OH280763   6.634   0.258   5.000  0.4798  0.0369 -0.1378
19783TIP3    H180764   6.612   0.223   5.087 -0.2328  0.6306 -0.0656
19783TIP3    H280765   6.563   0.319   4.981 -0.0564 -1.0089 -1.6895
19784TIP3   OH280766   5.037   1.859  13.536  0.2461  0.8679  0.1772
19784TIP3    H180767   5.093   1.841  13.612  1.1043  0.7260 -0.4764
19784TIP3    H280768   5.097   1.893  13.470  0.1965 -2.2880 -1.6732
19785TIP3   OH280769   2.811   4.001  13.356 -0.2737 -0.3411  0.4179
19785TIP3    H180770   2.809   3.910  13.325 -1.0264  0.1785 -1.1978
19785TIP3    H280771   2.901   4.015  13.385 -0.0169 -1.4469  0.2084
19786TIP3   OH280772   6.105   2.352   1.996 -0.0409  0.7877 -0.2161
19786TIP3    H180773   6.142   2.434   1.963 -0.7874  0.8930 -0.8123
19786TIP3    H280774   6.083   2.370   2.087 -1.4191  1.6796 -0.6978
19787TIP3   OH280775   0.492   4.133   2.814  0.2188  0.6321 -0.2117
19787TIP3    H180776   0.416   4.087   2.850  0.1293  1.7273  1.0885
19787TIP3    H280777   0.560   4.122   2.880  0.4347  1.6717 -0.2352
19788TIP3   OH280778   2.775   2.481  13.010  0.7749  0.2276 -0.1022
19788TIP3    H180779   2.870   2.488  13.000  0.7083  0.1540 -0.8412
19788TIP3    H280780   2.741   2.488  12.921  0.1311 -0.5119  0.0743
19789TIP3   OH280781   4.218   4.296   4.599 -0.0349 -0.1103  0.2703
19789TIP3    H180782   4.195   4.346   4.521  2.0229  0.2456 -0.1539
19789TIP3    H280783   4.295   4.246   4.573 -1.5146 -2.9429  0.9290
19790TIP3   OH280784   0.390   4.647  15.616  0.6367 -0.5413 -0.2327
19790TIP3    H180785   0.418   4.562  15.652  1.5138  1.5160  4.7856
19790TIP3    H280786   0.295   4.643  15.617  0.5464 -0.4788  3.3914
19791TIP3   OH280787   2.269   3.524   0.875 -1.0045  0.0931  0.2027
19791TIP3    H180788   2.354   3.554   0.909  0.0588 -2.2932 -0.1126
19791TIP3    H280789   2.210   3.528   0.950 -0.2199  0.4081  0.8146
19792TIP3   OH280790   0.106   6.326   1.705  0.2195 -0.5719  0.1485
19792TIP3    H180791   0.081   6.383   1.632  2.1210 -0.0367 -0.1456
19792TIP3    H280792   0.065   6.242   1.685  0.7029 -0.4400 -1.5602
19793TIP3   OH280793   1.705   4.985   6.220  0.0338 -0.2625 -0.2853
19793TIP3    H180794   1.657   4.929   6.280  0.3039 -0.3282 -0.1329
19793TIP3    H280795   1.664   5.071   6.230  1.3664  0.2215  1.4713
19794TIP3   OH280796   3.020   5.498   3.319 -0.2237  0.1949  0.7051
19794TIP3    H180797   2.978   5.565   3.266 -0.2621  0.7911  1.4763
19794TIP3    H280798   2.949   5.457   3.368  0.2437  3.0510  4.1175
19795TIP3   OH280799   0.577   0.408  11.924  0.2237  0.2059  0.2621
19795TIP3    H180800   0.620   0.455  11.995  0.7918  0.8711 -0.5087
19795TIP3    H280801   0.506   0.360  11.967 -0.7266  2.1637  1.0455
19796TIP3   OH280802   1.360   6.601  15.769 -0.6971 -0.2058  0.0252
19796TIP3    H180803   1.392   6.691  15.765 -0.6950 -0.1850  0.4616
19796TIP3    H280804   1.367   6.576  15.862 -1.0808 -0.5116 -0.0213
19797TIP3   OH280805   2.930   2.510  15.000  0.0522  0.0148  0.4181
19797TIP3    H180806   2.866   2.568  15.040 -0.9774 -0.5200 -0.4113
19797TIP3    H280807   2.880   2.432  14.976  0.9575 -0.3151 -0.4710
19798TIP3   OH280808   0.830   2.018   2.350  0.3385  0.2751 -0.0079
19798TIP3    H180809   0.786   1.997   2.433 -0.3244 -1.0658 -0.6610
19798TIP3    H280810   0.763   2.062   2.298 -0.0204 -0.9879 -0.6762
19799TIP3   OH280811   6.370   2.119   4.652 -0.2197  0.2004 -0.6846
19799TIP3    H180812   6.277   2.135   4.636 -0.8851 -2.8831 -0.4729
19799TIP3    H280813   6.415   2.181   4.594 -2.4333  0.0092 -2.7738
19800TIP3   OH280814   3.897   2.589  16.322  0.2056 -0.4009  0.1670
19800TIP3    H180815   3.858   2.672  16.350 -1.5530 -1.3439  0.6565
19800TIP3    H280816   3.888   2.531  16.397  2.9645 -0.6136  0.4524
19801TIP3   OH280817   6.567   6.214  11.977  0.0085 -0.0017 -0.1498
19801TIP3    H180818   6.647   6.175  11.943  0.2624 -0.2037  0.6602
19801TIP3    H280819   6.515   6.234  11.899  0.5309 -0.5433 -0.6485
19802TIP3   OH280820   4.311   2.639  11.775 -1.0121  0.7416  0.0061
19802TIP3    H180821   4.221   2.613  11.758 -0.9094  0.4951 -0.1650
19802TIP3    H280822   4.345   2.667  11.690 -0.8324  0.5430  0.0125
19803TIP3   OH280823   0.597   5.630   5.373  0.4843 -0.3346 -0.8761
19803TIP3    H180824   0.612   5.632   5.467  1.4542  1.6262 -1.0200
19803TIP3    H280825   0.643   5.552   5.343  2.8152  0.6576 -0.0769
19804TIP3   OH280826   4.770   6.153  14.244  0.1775  0.1675  0.2679
19804TIP3    H180827   4.693   6.129  14.192 -0.2051 -0.3656  1.0711
19804TIP3    H280828   4.761   6.247  14.259 -0.3427  0.0899  0.4211
19805TIP3   OH280829   6.506   0.099   6.363  0.2844 -0.1393 -0.7718
19805TIP3    H180830   6.472   0.187   6.348  0.3745 -0.1458 -1.0244
19805TIP3    H280831   6.588   0.113   6.410  0.4851 -0.0701 -1.1411
19806TIP3   OH280832   4.687   3.008  14.642  0.5597 -0.4086 -0.7579
19806TIP3    H180833   4.631   3.070  14.690  0.3633 -0.5145 -0.8509
19806TIP3    H280834   4.642   2.994  14.559  1.5666  0.8078 -1.5430
19807TIP3   OH280835   1.605   6.121   1.294  0.3417 -0.3261 -0.3513
19807TIP3    H180836   1.627   6.107   1.386 -0.2519  0.4147 -0.0751
19807TIP3    H280837   1.521   6.077   1.282 -0.0540  0.3770 -0.2680
19808TIP3   OH280838   2.721   5.484  14.283 -0.0572 -0.4839 -0.2291
19808TIP3    H180839   2.685   5.395  14.285 -2.7250  0.5004  0.0999
19808TIP3    H280840   2.703   5.515  14.194 -0.5161  0.2030  0.0912
19809TIP3   OH280841   5.146   0.546  11.913  0.5416  0.9333  0.0225
19809TIP3    H180842   5.205   0.472  11.926 -0.0891  0.1086 -1.5260
19809TIP3    H280843   5.205   0.621  11.901  1.3028  0.1988 -1.0720
19810TIP3   OH280844   4.317   4.242  11.458 -0.3473  0.6776  0.0186
19810TIP3    H180845   4.377   4.267  11.388  0.9527  0.4486  1.0089
19810TIP3    H280846   4.249   4.310  11.457  0.2754  1.3123 -0.7059
19811TIP3   OH280847   3.629   6.542  11.280  0.5195 -0.4334  0.4833
19811TIP3    H180848   3.565   6.479  11.247  0.6593  0.1894 -1.0511
19811TIP3    H280849   3.596   6.567  11.366 -1.2751 -0.1853 -0.2430
19812TIP3   OH280850   2.435   1.061   6.293  0.0022 -0.1499  0.3311
19812TIP3    H180851   2.527   1.035   6.287 -0.1336 -0.4019 -1.0075
19812TIP3    H280852   2.435   1.153   6.264 -0.4171 -0.7892 -1.9201
19813TIP3   OH280853   5.558   3.017   6.712 -0.8069  0.2103 -0.2389
19813TIP3    H180854   5.577   3.058   6.628  2.4039 -1.1730 -0.3324
19813TIP3    H280855   5.607   2.935   6.710 -0.5987  0.1424  2.9754
19814TIP3   OH280856   3.869   0.977   4.950 -0.3784 -0.6422 -0.2896
19814TIP3    H180857   3.885   0.974   5.044 -0.5403  1.7696 -0.1159
19814TIP3    H280858   3.795   1.036   4.940 -0.3426 -0.8227 -1.9421
19815TIP3   OH280859   6.532   1.240  10.554  0.3365  0.0325 -0.2981
19815TIP3    H180860   6.466   1.171  10.565  0.5616 -0.6388 -2.6679
19815TIP3    H280861   6.483   1.321  10.561 -0.3086 -0.4024  0.3789
19816TIP3   OH280862   0.885   1.643   1.767 -0.4100 -0.3099  0.8489
19816TIP3    H180863   0.913   1.700   1.695  0.0239 -0.5891  0.7918
19816TIP3    H280864   0.806   1.685   1.801  0.1546  0.5848  1.1048
19817TIP3   OH280865   4.894   6.503   0.337  0.3977 -0.0604 -0.5126
19817TIP3    H180866   4.945   6.423   0.324  0.2741 -0.3267  0.5758
19817TIP3    H280867   4.900   6.548   0.253  2.6040  0.0212 -0.3706
19818TIP3   OH280868   6.307   5.442  16.611 -0.2901 -0.3931  0.5560
19818TIP3    H180869   6.286   5.404  16.526 -0.4006  0.6857  0.0782
19818TIP3    H280870   6.402   5.444  16.614 -0.2673  1.0380 -0.2593
19819TIP3   OH280871   3.703   0.842  13.191  0.3089  0.1054  0.0973
19819TIP3    H180872   3.765   0.863  13.261  0.4951 -0.8390  0.2257
19819TIP3    H280873   3.631   0.904  13.203  0.1272 -0.3492  1.4000
19820TIP3   OH280874   1.577   5.513  14.370  0.7783 -0.0211  0.4777
19820TIP3    H180875   1.559   5.595  14.415 -0.1674  0.0373  0.0223
19820TIP3    H280876   1.635   5.465  14.429 -0.7009 -0.1016  1.9489
19821TIP3   OH280877   2.448   1.308  17.067 -0.4845  0.1251 -0.0177
19821TIP3    H180878   2.466   1.328  17.159 -1.8471  1.4177  0.0066
19821TIP3    H280879   2.531   1.327  17.022  0.4431 -1.2784  1.0027
19822TIP3   OH280880   1.192   4.270  13.972 -0.0364 -0.1522  0.3880
19822TIP3    H180881   1.274   4.317  13.982  0.7906 -1.4131 -0.2781
19822TIP3    H280882   1.135   4.331  13.924  1.6724 -0.4932 -2.2700
19823TIP3   OH280883   1.915   2.367  10.893 -0.6267 -0.4471  0.6216
19823TIP3    H180884   1.970   2.363  10.971  0.0355 -0.6070  0.1524
19823TIP3    H280885   1.905   2.460  10.874  0.4267 -0.4382  0.0593
19824TIP3   OH280886   0.868   5.758  14.691  0.0295 -0.9507 -0.0851
19824TIP3    H180887   0.836   5.668  14.692  0.0074 -0.9470 -0.3824
19824TIP3    H280888   0.789   5.811  14.676 -0.0319 -0.8454  0.5462
19825TIP3   OH280889   6.539   0.155  14.921  0.4532 -0.5516  0.4104
19825TIP3    H180890   6.471   0.091  14.899 -1.7045  2.2560 -2.0650
19825TIP3    H280891   6.603   0.147  14.851 -0.1199  0.2755 -0.2359
19826TIP3   OH280892   1.314   3.986   2.486  0.0746 -0.0297  0.1299
19826TIP3    H180893   1.298   4.042   2.561  0.5610  1.9207 -1.1277
19826TIP3    H280894   1.393   4.022   2.446 -1.0873  0.0921 -2.2417
19827TIP3   OH280895   0.709   1.077  13.895 -0.1356 -0.0022 -0.0588
19827TIP3    H180896   0.690   1.086  13.802  1.2424 -1.1377 -0.4825
19827TIP3    H280897   0.686   0.986  13.916  2.4130 -0.7430 -0.0797
19828TIP3   OH280898   1.469   1.402   4.745 -0.5801 -0.1522 -1.0851
19828TIP3    H180899   1.440   1.418   4.835  0.8818 -2.8458 -0.0193
19828TIP3    H280900   1.504   1.486   4.716 -2.2055  1.1070  0.3642
19829TIP3   OH280901   0.893   5.987  13.284  0.8715 -0.3436 -0.0641
19829TIP3    H180902   0.937   6.044  13.347  0.3512  0.5851 -0.5106
19829TIP3    H280903   0.829   6.045  13.241  0.4966 -1.2155 -0.6994
19830TIP3   OH280904   3.066   3.363  13.580  0.4209 -0.0042  0.0338
19830TIP3    H180905   2.995   3.411  13.622  0.4002  1.8429 -1.9322
19830TIP3    H280906   3.027   3.281  13.552 -0.4935  0.2722  0.4872
19831TIP3   OH280907   2.427   3.329  11.367  0.3807  0.5446  0.4337
19831TIP3    H180908   2.417   3.310  11.274  0.3060 -1.0149  0.7431
19831TIP3    H280909   2.497   3.395  11.371  1.0624 -0.0851 -0.6617
19832TIP3   OH280910   1.310   2.717   0.500  0.1694  0.1800 -0.1450
19832TIP3    H180911   1.252   2.668   0.558  1.2252 -1.1794 -0.1808
19832TIP3    H280912   1.263   2.798   0.481 -1.9313 -1.0844 -0.6015
19833TIP3   OH280913   2.260   1.408   2.383 -0.0174 -0.0244 -0.0092
19833TIP3    H180914   2.250   1.497   2.417  0.3936  0.7746 -1.8746
19833TIP3    H280915   2.277   1.419   2.290 -0.4332 -2.0970 -0.3845
19834TIP3   OH280916   6.810   1.050   1.628  0.1909 -0.2595 -0.2845
19834TIP3    H180917   6.739   1.096   1.672  0.2668  0.6167 -1.0500
19834TIP3    H280918   6.786   0.957   1.634 -0.0549 -0.1228  1.1112
19835TIP3   OH280919   5.486   2.088   5.434 -0.5832 -0.1747 -0.1047
19835TIP3    H180920   5.564   2.069   5.381 -1.0756  0.4368 -1.0767
19835TIP3    H280921   5.420   2.115   5.371 -1.0716  0.9802  0.8499
19836TIP3   OH280922   3.736   0.374  11.999 -0.1416  0.2863  0.7705
19836TIP3    H180923   3.740   0.292  12.049  1.4135  0.1500  0.4735
19836TIP3    H280924   3.806   0.428  12.036  0.2400  0.6448 -0.4237
19837TIP3   OH280925   0.589   5.427  15.776  0.4606 -0.1157  0.1120
19837TIP3    H180926   0.652   5.484  15.821  0.8126  0.1963 -0.7511
19837TIP3    H280927   0.566   5.361  15.841  1.6112 -0.1856  0.4728
19838TIP3   OH280928   1.639   0.033  14.206 -0.1550 -0.1015 -0.4975
19838TIP3    H180929   1.611   0.095  14.273  2.0599  0.1659  0.2653
19838TIP3    H280930   1.599   0.066  14.125 -2.6343 -0.2645  0.5611
19839TIP3   OH280931   0.763   5.122  11.803  0.7414  0.2598 -0.3442
19839TIP3    H180932   0.795   5.073  11.878  1.0870 -0.7393 -1.1269
19839TIP3    H280933   0.766   5.060  11.730 -0.6275  0.8677 -0.9623
19840TIP3   OH280934   4.173   1.948  16.393 -0.5248 -0.2178  0.0596
19840TIP3    H180935   4.078   1.964  16.399 -0.3910  0.0682  1.7368
19840TIP3    H280936   4.186   1.863  16.435  0.0976  0.2767  0.8909
19841TIP3   OH280937   4.433   0.702   2.614 -0.0547  0.1658  0.0199
19841TIP3    H180938   4.470   0.646   2.546 -0.5791 -1.9423  1.3873
19841TIP3    H280939   4.508   0.748   2.651  0.4434  0.0739 -0.8356
19842TIP3   OH280940   5.942   6.360   1.646  0.1064  0.5473  0.3195
19842TIP3    H180941   5.978   6.448   1.649  0.5893  0.5026 -1.9650
19842TIP3    H280942   5.854   6.371   1.610 -0.2104  0.1667  0.9445
19843TIP3   OH280943   3.466   0.543   2.959  0.3651 -0.8395  0.1927
19843TIP3    H180944   3.379   0.541   2.919 -0.9229  0.3664  2.6738
19843TIP3    H280945   3.468   0.466   3.015  0.1369  0.0805  1.5079
19844TIP3   OH280946   2.716   0.112   3.095  0.0767 -0.0262  0.2095
19844TIP3    H180947   2.663   0.190   3.106 -0.6466 -0.5320  0.3739
19844TIP3    H280948   2.658   0.048   3.056  0.8307 -0.3037 -0.4916
19845TIP3   OH280949   3.321   4.014  17.000  0.5422 -0.1450  0.0331
19845TIP3    H180950   3.264   4.001  17.076  1.5729 -1.5127  0.6119
19845TIP3    H280951   3.319   4.109  16.985 -1.4841 -0.0998  0.3101
19846TIP3   OH280952   2.751   5.694   5.572  0.2340  0.1880  0.0933
19846TIP3    H180953   2.657   5.699   5.557  0.2261  1.6434  0.4837
19846TIP3    H280954   2.760   5.690   5.667  0.5809  0.7532  0.0879
19847TIP3   OH280955   4.317   1.509   1.751  0.3656  0.3114  0.0646
19847TIP3    H180956   4.337   1.436   1.810 -1.9671  0.4751  1.1541
19847TIP3    H280957   4.369   1.582   1.784  1.2450 -0.3403  0.1484
19848TIP3   OH280958   4.167   2.554   0.651  0.2666 -0.3626  0.2267
19848TIP3    H180959   4.199   2.624   0.708 -2.1597  0.8038  0.2897
19848TIP3    H280960   4.116   2.498   0.710  0.3884 -0.9475 -0.2234
19849TIP3   OH280961   4.664   1.578   0.132  0.0255 -0.0464 -0.0693
19849TIP3    H180962   4.594   1.624   0.086 -0.4485  0.0179  0.7019
19849TIP3    H280963   4.620   1.509   0.181  0.2658  0.9808  1.6914
19850TIP3   OH280964   5.452   0.086   1.360 -0.0440  0.2895  0.0775
19850TIP3    H180965   5.402   0.155   1.316 -0.2277  0.3721  0.4171
19850TIP3    H280966   5.390   0.043   1.418 -0.2248 -0.9470 -0.9935
19851TIP3   OH280967   0.975   2.092   4.319 -0.1502 -0.3089 -0.0106
19851TIP3    H180968   0.899   2.050   4.359 -0.9386  0.8488 -0.2427
19851TIP3    H280969   0.945   2.119   4.233  0.1513  1.2259  0.3465
19852TIP3   OH280970   5.233   1.659  16.528  0.1820  0.2745  0.2710
19852TIP3    H180971   5.172   1.615  16.587 -0.5790  1.0183  0.0642
19852TIP3    H280972   5.249   1.595  16.458 -1.7408  0.6530 -0.5832
19853TIP3   OH280973   3.209   4.454   5.175 -0.3654 -0.3706 -0.1545
19853TIP3    H180974   3.216   4.532   5.121  1.4492 -1.1290 -1.1006
19853TIP3    H280975   3.269   4.391   5.135  1.8788 -0.6766  3.2363
19854TIP3   OH280976   1.189   4.657  16.980 -0.2721 -0.0723 -0.5390
19854TIP3    H180977   1.102   4.616  16.977 -0.0032 -1.0920  2.0641
19854TIP3    H280978   1.245   4.597  16.932 -0.8415  0.1992 -1.5810
19855TIP3   OH280979   3.454   2.126   3.316 -0.2960 -0.0059 -0.6037
19855TIP3    H180980   3.533   2.088   3.355 -0.9621 -0.7123  0.0914
19855TIP3    H280981   3.480   2.214   3.291  0.4640  0.0961  0.4577
19856TIP3   OH280982   5.547   0.913   3.782  0.0863  0.2066 -0.0838
19856TIP3    H180983   5.483   0.864   3.833 -1.4373  2.3593  0.2311
19856TIP3    H280984   5.591   0.969   3.846  0.5179  0.5331 -0.6568
19857TIP3   OH280985   6.552   6.161   1.235  0.5024  0.1366  0.0431
19857TIP3    H180986   6.572   6.072   1.262  0.7853 -0.3036 -1.4981
19857TIP3    H280987   6.457   6.162   1.222  0.5644 -0.1302 -0.4933
19858TIP3   OH280988   0.357   6.549  15.238  0.4830 -0.0552  0.5085
19858TIP3    H180989   0.301   6.626  15.247 -2.2052 -1.7362 -0.6631
19858TIP3    H280990   0.417   6.570  15.167  0.4191  1.2679  0.8275
19859TIP3   OH280991   3.979   3.335   1.694 -0.3464 -0.0199 -0.4681
19859TIP3    H180992   3.897   3.337   1.645 -0.6502 -1.7613 -0.1065
19859TIP3    H280993   3.955   3.299   1.779  0.8142 -0.7300 -0.4149
19860TIP3   OH280994   1.022   6.712  10.928 -0.2044 -0.1101  0.2734
19860TIP3    H180995   1.088   6.683  10.866 -0.1804 -1.0190  0.7121
19860TIP3    H280996   0.948   6.739  10.874  0.2218  0.1542 -0.1872
19861TIP3   OH280997   2.873   5.624   1.505 -0.0284  0.0082  0.6892
19861TIP3    H180998   2.882   5.557   1.438 -1.7482 -0.2586  0.6795
19861TIP3    H280999   2.865   5.706   1.456  0.9138  0.1019  0.6668
19862TIP3   OH281000   6.311   5.131  12.962 -0.3842 -0.3991 -0.0326
19862TIP3    H181001   6.277   5.192  12.896 -1.1058 -0.8482 -0.0957
19862TIP3    H281002   6.368   5.072  12.913  0.0030 -0.0198 -0.0419
19863TIP3   OH281003   3.020   2.871  12.127 -0.6689  0.2192  0.2798
19863TIP3    H181004   3.032   2.893  12.035  1.0948  1.6895  0.8061
19863TIP3    H281005   3.098   2.821  12.151 -0.3400  1.2110  1.3606
19864TIP3   OH281006   3.611   6.616   3.983 -0.0921 -0.2449  0.3306
19864TIP3    H181007   3.580   6.570   4.060  0.5791  0.3793  0.9891
19864TIP3    H281008   3.707   6.615   3.991 -0.0431  2.1580  0.9399
19865TIP3   OH281009   2.718   4.807  11.314  0.3020  0.4789 -0.8184
19865TIP3    H181010   2.768   4.815  11.233  0.0897  0.2750 -0.9701
19865TIP3    H281011   2.703   4.898  11.342  0.1424  0.5545 -1.1494
19866TIP3   OH281012   3.784   4.203   3.155 -0.5794 -0.3986  0.1730
19866TIP3    H181013   3.858   4.164   3.109 -2.6798 -1.7788 -2.3526
19866TIP3    H281014   3.801   4.297   3.154  1.9922 -0.7747  1.4440
19867TIP3   OH281015   5.669   0.088   5.410  0.1052  0.3669 -0.3025
19867TIP3    H181016   5.661   0.172   5.455  0.2681  0.3576 -0.2540
19867TIP3    H281017   5.583   0.049   5.416  0.2129  0.2170  0.2932
19868TIP3   OH281018   5.385   1.722  16.898 -0.3696 -0.0679  0.0312
19868TIP3    H181019   5.409   1.661  16.829 -1.8983  0.1979 -0.7696
19868TIP3    H281020   5.291   1.709  16.911 -0.1293 -0.1329  2.0916
19869TIP3   OH281021   6.136   0.162  13.824  0.2332 -0.4156  0.3270
19869TIP3    H181022   6.108   0.085  13.776 -0.5714 -1.5692  2.5127
19869TIP3    H281023   6.190   0.127  13.896  0.6808  1.1388  0.7861
19870TIP3   OH281024   4.308   3.539   2.107  0.0804 -0.2792 -0.0216
19870TIP3    H181025   4.285   3.452   2.140 -2.2746 -1.5497 -4.1917
19870TIP3    H281026   4.242   3.597   2.145  0.2324 -0.7334  0.9771
19871TIP3   OH281027   3.233   5.501   2.160  0.5632 -0.0311  0.5212
19871TIP3    H181028   3.163   5.548   2.115 -0.2697 -1.6383  0.0570
19871TIP3    H281029   3.212   5.509   2.253 -0.4591 -0.7893  0.3699
19872TIP3   OH281030   2.614   6.213  15.008  0.2685 -0.5344 -0.8895
19872TIP3    H181031   2.568   6.292  14.980 -0.0851 -0.4005  0.0250
19872TIP3    H281032   2.627   6.225  15.102  1.5370 -0.9008 -1.0019
19873TIP3   OH281033   4.082   6.551   2.465 -0.1041  0.2396  0.0877
19873TIP3    H181034   4.022   6.498   2.516 -1.0062  0.0132 -1.1694
19873TIP3    H281035   4.168   6.536   2.505 -0.5008 -1.3544  0.3943
19874TIP3   OH281036   6.663   2.094  16.706 -0.0770  0.4208 -0.4677
19874TIP3    H181037   6.612   2.146  16.644 -1.9468 -0.3049  0.3784
19874TIP3    H281038   6.745   2.142  16.716 -1.4697  2.8861 -0.1847
19875TIP3   OH281039   3.684   1.224  16.229  0.4188 -0.3830  0.4122
19875TIP3    H181040   3.708   1.291  16.165 -0.1484 -0.1576  0.4308
19875TIP3    H281041   3.619   1.266  16.285  0.4887 -0.7618  0.7883
19876TIP3   OH281042   0.852   5.006   1.587  0.7146 -0.6090  0.0566
19876TIP3    H181043   0.763   4.973   1.597 -0.3393  1.6284 -1.3972
19876TIP3    H281044   0.862   5.069   1.659  1.1537 -0.8534  0.2161
19877TIP3   OH281045   2.380   2.315  15.727  0.2082  0.6518  0.0315
19877TIP3    H181046   2.378   2.313  15.822  0.9968  0.0112  0.0446
19877TIP3    H281047   2.368   2.408  15.705 -2.4004  0.5480  0.6434
19878TIP3   OH281048   2.040   0.966   2.326  0.6894  0.3112 -0.0328
19878TIP3    H181049   2.075   1.048   2.293  0.5855  0.5101  0.3465
19878TIP3    H281050   1.948   0.967   2.299  0.1174  1.3221  1.8107
19879TIP3   OH281051   4.821   0.805  15.406 -0.0642  0.6925 -0.4457
19879TIP3    H181052   4.871   0.724  15.393  0.6781  1.2889 -1.4996
19879TIP3    H281053   4.863   0.848  15.481  0.9529  1.1208 -1.2355
19880TIP3   OH281054   5.536   2.069   6.149 -0.1811  0.7291  0.1620
19880TIP3    H181055   5.554   1.977   6.127 -1.2146  0.6296 -0.3198
19880TIP3    H281056   5.553   2.116   6.067 -1.5494  0.6950 -0.1641
19881TIP3   OH281057   6.044   3.744   2.739  0.8690 -0.7074  0.4781
19881TIP3    H181058   5.954   3.769   2.717  0.8782 -1.1854 -0.1481
19881TIP3    H281059   6.051   3.759   2.833  0.1174 -0.6968  0.5398
19882TIP3   OH281060   2.827   2.702  14.722 -0.1667  0.5277  0.2368
19882TIP3    H181061   2.763   2.698  14.793  1.2201 -0.3648  1.4948
19882TIP3    H281062   2.910   2.677  14.763  0.9746  1.5149 -1.3674
19883TIP3   OH281063   0.595   3.336  16.238 -0.3910  0.3848  1.2780
19883TIP3    H181064   0.506   3.370  16.245 -0.4288 -0.0340  3.7061
19883TIP3    H281065   0.620   3.314  16.328  1.6377 -0.8833  0.4910
19884TIP3   OH281066   4.649   2.530  15.914  0.0272  0.2411 -0.1549
19884TIP3    H181067   4.625   2.597  15.851 -0.1940 -0.6197 -1.0035
19884TIP3    H281068   4.631   2.447  15.870  2.5338 -0.4361 -0.0589
19885TIP3   OH281069   6.558   5.777  14.652  0.4563  0.0852  0.5868
19885TIP3    H181070   6.617   5.705  14.632  2.5125  1.4126  1.5249
19885TIP3    H281071   6.591   5.850  14.600 -1.2982  0.5054  0.0087
19886TIP3   OH281072   6.213   4.443   0.403 -0.7521 -0.7336 -0.3916
19886TIP3    H181073   6.185   4.534   0.407 -0.9285 -0.8078  0.2926
19886TIP3    H281074   6.167   4.407   0.327  3.0127  0.9200 -3.7913
19887TIP3   OH281075   4.241   0.183   4.765 -0.2078 -0.2046  0.6401
19887TIP3    H181076   4.289   0.214   4.688 -0.0861  1.4126  1.3261
19887TIP3    H281077   4.305   0.131   4.814  0.8386  1.6731  1.3913
19888TIP3   OH281078   5.945   1.254  13.662  0.1006 -0.5745 -0.4329
19888TIP3    H181079   5.940   1.333  13.608 -2.0881  0.7578  1.5268
19888TIP3    H281080   5.979   1.285  13.746  1.9610 -2.3102 -0.4637
19889TIP3   OH281081   2.090   5.657   1.218  0.4870  0.0466  0.5466
19889TIP3    H181082   2.041   5.656   1.136  0.0593  0.5665  0.7943
19889TIP3    H281083   2.180   5.634   1.192  0.0440 -1.3198  0.1554
19890TIP3   OH281084   1.814   6.706   2.562  0.2335  0.3283 -0.1167
19890TIP3    H181085   1.874   6.781   2.565  1.2305 -0.4922  1.8384
19890TIP3    H281086   1.776   6.702   2.649  0.6378 -1.7499  0.0202
19891TIP3   OH281087   6.070   4.293  15.719 -0.3971  0.0812 -0.4571
19891TIP3    H181088   6.139   4.298  15.785  1.1149  0.2577 -1.9898
19891TIP3    H281089   6.036   4.204  15.728 -0.6336  0.2798  0.9247
19892TIP3   OH281090   6.497   1.487  12.962  0.2903  0.1220 -0.5354
19892TIP3    H181091   6.565   1.429  12.928 -0.3584 -0.8358 -0.2513
19892TIP3    H281092   6.428   1.485  12.895 -1.0494 -1.8736  0.7669
19893TIP3   OH281093   6.727   0.080   3.708  0.3212 -0.4505  0.0682
19893TIP3    H181094   6.758   0.123   3.788 -0.5530  2.1142 -0.8806
19893TIP3    H281095   6.789   0.107   3.640 -1.1384  0.7183 -0.8642
19894TIP3   OH281096   6.360   1.985  12.186 -0.0701  0.6272 -0.0635
19894TIP3    H181097   6.307   1.919  12.142  0.5126  0.0537  0.0749
19894TIP3    H281098   6.359   2.060  12.127 -2.0165  1.0855  0.4794
19895TIP3   OH281099   0.396   2.546   3.713 -0.1964  0.3236 -0.4266
19895TIP3    H181100   0.463   2.546   3.645  0.7297 -1.8957  0.3912
19895TIP3    H281101   0.441   2.579   3.791  0.0162 -1.1589  0.1227
19896TIP3   OH281102   6.801   6.801  14.371  0.0301  0.8403 -0.0793
19896TIP3    H181103   6.732   6.844  14.420 -0.1827  0.4282 -0.0170
19896TIP3    H281104   6.799   6.842  14.285 -0.6627  0.4492 -0.2576
19897TIP3   OH281105   4.997   2.592   5.671  0.1436 -0.0453 -0.4401
19897TIP3    H181106   5.047   2.643   5.608 -0.1730  0.1562 -0.5337
19897TIP3    H281107   4.987   2.650   5.747  0.4874 -0.2709 -0.2213
19898TIP3   OH281108   4.976   3.735  16.055 -0.4209  0.2372 -0.1925
19898TIP3    H181109   5.006   3.771  16.138 -1.3357  0.5943 -0.0121
19898TIP3    H281110   5.026   3.783  15.989  2.6824 -2.1664  0.1497
19899TIP3   OH281111   4.145   0.814  12.515 -0.1952 -0.8939 -0.6305
19899TIP3    H181112   4.117   0.839  12.603  2.1414 -3.0072  0.8702
19899TIP3    H281113   4.093   0.868  12.456 -2.1716  0.2941  2.0250
19900TIP3   OH281114   5.229   1.377   4.275  0.1219  0.4742 -0.5105
19900TIP3    H181115   5.141   1.413   4.289 -0.7673 -1.2560 -1.3821
19900TIP3    H281116   5.276   1.446   4.228 -1.8057  0.2329 -2.9658
19901TIP3   OH281117   6.431   0.953  16.417  0.1597 -0.1648 -0.0576
19901TIP3    H181118   6.504   0.905  16.378  0.2221  0.3153 -0.5509
19901TIP3    H281119   6.369   0.965  16.345  0.1867  0.5601  0.0330
19902TIP3   OH281120   4.561   4.626  13.447 -0.1204  0.2026 -0.1932
19902TIP3    H181121   4.547   4.666  13.532 -2.2738 -0.4904 -0.1712
19902TIP3    H281122   4.489   4.657  13.392  0.4842 -0.3904 -1.3789
19903TIP3   OH281123   1.802   0.825  12.733  0.1983 -0.2338  0.5815
19903TIP3    H181124   1.759   0.745  12.704  1.0525 -0.2650 -0.6462
19903TIP3    H281125   1.756   0.895  12.686  0.1729 -0.0894  0.8193
19904TIP3   OH281126   4.680   6.661  12.871 -0.2895 -0.5590  0.1348
19904TIP3    H181127   4.686   6.667  12.967 -1.3033 -0.1676  0.1961
19904TIP3    H281128   4.763   6.625  12.843  0.6245  0.7497  1.0452
19905TIP3   OH281129   6.756   2.774   5.223 -0.1363  0.2293 -0.1692
19905TIP3    H181130   6.673   2.727   5.224 -0.0548 -0.0490 -2.2464
19905TIP3    H281131   6.816   2.714   5.179  0.9066  0.8702  0.3465
19906TIP3   OH281132   2.261   1.360  13.597  0.2728  0.6999 -0.0293
19906TIP3    H181133   2.228   1.327  13.680  2.3172 -2.8024 -0.4268
19906TIP3    H281134   2.192   1.340  13.534  0.4631 -0.5717  0.1568
19907TIP3   OH281135   3.429   5.272  12.879  0.0938  0.5312  0.1599
19907TIP3    H181136   3.401   5.348  12.931  1.5017  0.2003  1.4844
19907TIP3    H281137   3.348   5.222  12.866 -0.2906  0.3914  2.5059
19908TIP3   OH281138   6.071   1.034  17.029 -0.1458  0.3041 -0.3162
19908TIP3    H181139   6.096   1.107  16.972  0.4400 -0.7542 -1.4676
19908TIP3    H281140   6.154   0.991  17.050 -0.4960 -0.0861  0.2913
19909TIP3   OH281141   5.450   0.777  14.850 -0.1309 -0.3659  0.1824
19909TIP3    H181142   5.507   0.722  14.796 -0.6980 -1.3690  0.5796
19909TIP3    H281143   5.409   0.716  14.912  1.2533  0.8667  2.4416
19910TIP3   OH281144   5.972   0.973  15.929  0.1840  0.6561  0.5157
19910TIP3    H181145   5.977   0.919  16.009 -0.5419 -0.7640 -0.3476
19910TIP3    H281146   6.061   0.972  15.894  0.8497  2.4551  1.9888
19911TIP3   OH281147   0.704   2.901   3.175  0.2325  0.2649 -0.4345
19911TIP3    H181148   0.693   2.898   3.270  1.7370 -0.9741 -0.2546
19911TIP3    H281149   0.631   2.851   3.141 -0.2436  0.6017  0.0728
19912TIP3   OH281150   4.274   3.269  10.824 -0.1185  0.3628 -0.3523
19912TIP3    H181151   4.260   3.175  10.813  0.7063  0.0790  0.8066
19912TIP3    H281152   4.187   3.305  10.843 -0.2445 -0.3837  0.5607
19913TIP3   OH281153   1.891   1.004   1.912 -0.0220  0.0834  0.1215
19913TIP3    H181154   1.848   1.034   1.993 -1.0248 -0.4122 -0.2106
19913TIP3    H281155   1.901   0.910   1.925 -0.3740 -0.0290 -0.4111
19914TIP3   OH281156   1.323   6.377   0.704 -0.4923  0.0708 -0.2684
19914TIP3    H181157   1.403   6.344   0.744  0.7009  2.4120 -0.5684
19914TIP3    H281158   1.289   6.302   0.654  0.3702 -1.5718  1.4647
19915TIP3   OH281159   4.298   6.284  12.944 -0.3064  0.4223  0.7962
19915TIP3    H181160   4.321   6.270  13.036  0.6527 -0.6002  0.4101
19915TIP3    H281161   4.281   6.196  12.909  0.0346  0.7353 -0.1917
19916TIP3   OH281162   0.329   3.569   6.414  0.0695 -0.1190 -0.0678
19916TIP3    H181163   0.341   3.479   6.445  0.6473 -0.4361 -1.1512
19916TIP3    H281164   0.236   3.586   6.426  0.1484 -0.4432  1.2045
19917TIP3   OH281165   5.244   1.653  16.162 -0.7206 -0.1555  0.0919
19917TIP3    H181166   5.274   1.572  16.204  0.3601  0.0444 -0.2611
19917TIP3    H281167   5.272   1.723  16.222  0.0654  0.0712 -0.5182
19918TIP3   OH281168   1.785   5.049   4.890 -0.4568  0.2591 -0.0532
19918TIP3    H181169   1.800   4.998   4.810 -0.3166  1.6706 -0.9677
19918TIP3    H281170   1.855   5.021   4.949 -1.2585 -1.6768  0.0643
19919TIP3   OH281171   2.708   4.407   0.353  0.3447  0.2385 -0.0426
19919TIP3    H181172   2.756   4.451   0.282 -0.0979  2.6439  1.0273
19919TIP3    H281173   2.719   4.314   0.336  1.6376  0.7335 -2.3242
19920TIP3   OH281174   6.045   4.052   2.408  0.2693 -0.5749 -0.1341
19920TIP3    H181175   5.959   4.089   2.431 -0.0605  0.0205 -2.1282
19920TIP3    H281176   6.024   3.976   2.354  1.0117 -1.0404  0.2259
19921TIP3   OH281177   0.109   6.807  16.424 -0.7937 -0.4313 -0.5523
19921TIP3    H181178   0.129   6.727  16.472  2.1349  0.4525 -0.0809
19921TIP3    H281179   0.092   6.872  16.493 -2.6541 -0.4777 -0.9210
19922TIP3   OH281180   0.227   3.569   4.250 -0.0075 -0.3358 -0.6771
19922TIP3    H181181   0.144   3.617   4.243  0.1847 -0.1987 -2.2605
19922TIP3    H281182   0.207   3.498   4.312 -1.4862 -0.6430 -1.4511
19923TIP3   OH281183   5.878   3.403   4.458 -0.0198 -0.2378 -0.0352
19923TIP3    H181184   5.920   3.321   4.433  1.7967  1.3294 -2.5460
19923TIP3    H281185   5.797   3.405   4.406 -0.5277 -0.7854  0.7055
19924TIP3   OH281186   3.435   2.610  15.176 -0.0589  1.0245 -0.2738
19924TIP3    H181187   3.363   2.603  15.113 -0.6185  2.2583  0.2080
19924TIP3    H281188   3.513   2.584  15.126 -0.8437 -0.6674 -0.7190
19925TIP3   OH281189   2.505   4.346  13.707 -0.0559  0.1924 -0.6537
19925TIP3    H181190   2.560   4.389  13.773 -1.3373 -0.5809  0.9650
19925TIP3    H281191   2.436   4.410  13.688 -1.8324 -0.9294  1.5881
19926TIP3   OH281192   3.384   3.262   2.790 -0.5313  0.0850  0.5003
19926TIP3    H181193   3.313   3.200   2.809 -0.8650  0.5948  0.9617
19926TIP3    H281194   3.379   3.276   2.696 -0.3748 -0.6728  0.3686
19927TIP3   OH281195   1.787   5.390  13.635  0.4140  0.5117  0.3366
19927TIP3    H181196   1.726   5.349  13.696 -0.0988  0.9883  0.1452
19927TIP3    H281197   1.811   5.473  13.677  2.7678 -0.6621  1.5491
19928TIP3   OH281198   1.967   5.724  12.125 -0.3670 -0.8362 -0.0839
19928TIP3    H181199   1.906   5.797  12.118 -1.7154 -2.0132 -1.7146
19928TIP3    H281200   1.917   5.649  12.092  1.4108 -2.2038  0.1965
19929TIP3   OH281201   6.220   6.465  17.085  0.2927 -0.2618 -0.2868
19929TIP3    H181202   6.243   6.445  17.176 -0.1301  2.1990  0.4340
19929TIP3    H281203   6.290   6.524  17.055 -1.2676  1.6135 -0.4100
19930TIP3   OH281204   6.605   3.406   5.291 -0.5155 -0.4336  0.0001
19930TIP3    H181205   6.605   3.402   5.387 -2.4114 -1.5071 -0.0037
19930TIP3    H281206   6.553   3.331   5.263 -2.4239  1.3818 -1.7484
19931TIP3   OH281207   0.709   0.082   6.251  0.2629  0.5307 -0.5260
19931TIP3    H181208   0.804   0.093   6.244  0.6084 -1.1959  0.7506
19931TIP3    H281209   0.691  -0.003   6.210 -0.3132 -0.4102  1.5495
19932TIP3   OH281210   2.097   2.234  15.402  0.4649  0.1150 -0.2561
19932TIP3    H181211   2.173   2.202  15.451 -0.2499  0.3565  1.0777
19932TIP3    H281212   2.088   2.325  15.428 -1.3189 -0.3735  1.0751
19933TIP3   OH281213   1.251   4.734  14.878  0.5774 -0.2321 -0.2132
19933TIP3    H181214   1.266   4.767  14.967  0.8337 -2.2347  0.5347
19933TIP3    H281215   1.167   4.688  14.883  1.2575 -1.5664 -0.6168
19934TIP3   OH281216   0.785   1.545   2.590  0.2386 -0.4066 -0.2178
19934TIP3    H181217   0.723   1.523   2.660 -0.9110  0.0650 -1.0549
19934TIP3    H281218   0.771   1.477   2.523 -0.5916  0.6195 -1.1317
19935TIP3   OH281219   5.538   5.650  15.648  0.2884  0.2974  0.0230
19935TIP3    H181220   5.616   5.595  15.650  0.4718  0.4779 -1.4497
19935TIP3    H281221   5.487   5.616  15.574 -0.5455  0.8334  0.3399
19936TIP3   OH281222   1.012   3.559   4.923 -0.1479  0.1544  0.1633
19936TIP3    H181223   0.920   3.566   4.896 -0.6695 -0.0857  1.7660
19936TIP3    H281224   1.009   3.518   5.010  1.6097 -1.8572 -0.6238
19937TIP3   OH281225   2.918   6.480   3.071  0.2717  0.5075  0.0654
19937TIP3    H181226   2.824   6.489   3.061  0.1239  2.3549  2.1729
19937TIP3    H281227   2.929   6.431   3.153  1.2074 -1.5981 -1.2455
19938TIP3   OH281228   0.271   2.932  12.715  0.2231  0.2416 -0.5479
19938TIP3    H181229   0.310   2.849  12.689  0.5490  0.1787  0.1265
19938TIP3    H281230   0.301   2.945  12.805 -1.6808 -0.0426  0.1714
19939TIP3   OH281231   4.770   6.029  15.854 -0.3742  0.0279 -0.2656
19939TIP3    H181232   4.771   6.008  15.947 -0.8481  0.2444 -0.2106
19939TIP3    H281233   4.677   6.032  15.830 -0.2960  1.1699 -0.4668
19940TIP3   OH281234   3.808   1.538  11.613 -0.1514  0.0434 -0.0767
19940TIP3    H181235   3.824   1.445  11.632 -0.5672  0.1876  1.0642
19940TIP3    H281236   3.893   1.571  11.586  0.0492 -0.6255 -0.3005
19941TIP3   OH281237   3.814   1.006  10.802 -0.2653 -0.0712  0.0230
19941TIP3    H181238   3.730   1.026  10.844 -0.2551 -0.6163  0.3241
19941TIP3    H281239   3.859   1.090  10.797 -1.2619  0.4221 -1.1182
19942TIP3   OH281240   5.452   4.730   0.609  0.3637 -0.2361  0.2962
19942TIP3    H181241   5.471   4.821   0.586 -0.4600 -0.0469  0.3345
19942TIP3    H281242   5.430   4.688   0.525  1.6864 -0.6649  0.1248
19943TIP3   OH281243   5.205   3.531  16.027  0.0189  0.4419  0.2402
19943TIP3    H181244   5.176   3.460  16.084 -0.5698  0.2767 -0.2602
19943TIP3    H281245   5.171   3.610  16.069 -0.5326  0.3088  0.0480
19944TIP3   OH281246   4.693   3.475   0.591 -0.6971 -0.0899  0.0137
19944TIP3    H181247   4.613   3.438   0.627 -0.8721  0.2877  0.0212
19944TIP3    H281248   4.665   3.557   0.550 -0.2613  0.2159  0.3244
19945TIP3   OH281249   5.595   5.116  11.259  0.3191  0.5342 -0.0691
19945TIP3    H181250   5.594   5.069  11.176  0.5470 -2.4401  1.4774
19945TIP3    H281251   5.504   5.139  11.275  0.0062 -0.4245 -0.3836
19946TIP3   OH281252   3.113   4.994   6.303 -0.0902  0.1781 -0.4818
19946TIP3    H181253   3.032   5.018   6.347  0.1951  2.0174 -0.8708
19946TIP3    H281254   3.139   5.073   6.255  0.9717 -0.9359 -1.8407
19947TIP3   OH281255   1.288   4.590  10.528 -0.0843 -0.1468 -0.5793
19947TIP3    H181256   1.344   4.629  10.462 -0.4759  0.0574 -0.7951
19947TIP3    H281257   1.305   4.496  10.521  0.4255 -0.0636 -0.4589
19948TIP3   OH281258   4.523   5.132  11.208  0.4661  0.0287  0.0506
19948TIP3    H181259   4.522   5.075  11.285 -1.3198 -2.3507 -1.5557
19948TIP3    H281260   4.594   5.098  11.154  1.6020  1.5765  0.5253
19949TIP3   OH281261   1.592   4.924  12.400 -0.3424  0.5001 -0.0704
19949TIP3    H181262   1.594   5.018  12.385 -2.1382  0.3371 -1.6996
19949TIP3    H281263   1.531   4.913  12.473  0.2879  0.6212  0.4809
19950TIP3   OH281264   3.624   1.530   3.668  0.2460  0.9090  0.4657
19950TIP3    H181265   3.657   1.442   3.651  0.0923  1.2709 -2.1219
19950TIP3    H281266   3.680   1.588   3.616 -0.9111  2.1200  0.4933
19951TIP3   OH281267   3.701   5.749   0.821 -0.5876  0.7028  0.7318
19951TIP3    H181268   3.796   5.740   0.812 -0.4246  3.4558 -1.1294
19951TIP3    H281269   3.690   5.822   0.882 -1.4662  1.3417 -0.1728
19952TIP3   OH281270   6.169   6.656  14.705  0.2678 -0.2826 -0.3913
19952TIP3    H181271   6.190   6.563  14.702  1.7562  0.0241 -3.2763
19952TIP3    H281272   6.106   6.669  14.634 -1.2841  0.7034  1.0606
19953TIP3   OH281273   0.789   0.452  11.748  0.3618 -0.2114 -0.0013
19953TIP3    H181274   0.851   0.487  11.812  1.0386 -1.3234 -0.0176
19953TIP3    H281275   0.707   0.443  11.797  0.7692 -0.6876  0.6164
19954TIP3   OH281276   4.680   4.076  15.518  0.0902  0.1440  0.6357
19954TIP3    H181277   4.596   4.088  15.474  0.7600 -1.2960 -1.1528
19954TIP3    H281278   4.710   4.165  15.536 -0.5174  0.8029 -1.3341
19955TIP3   OH281279   3.323   4.652  16.731 -0.2504  0.2725 -0.3592
19955TIP3    H181280   3.370   4.699  16.801 -0.3315  0.8584 -0.6875
19955TIP3    H281281   3.391   4.631  16.667 -0.0191 -1.0749  0.3147
19956TIP3   OH281282   3.994   4.698   4.138  0.4597  0.1632 -0.0551
19956TIP3    H181283   3.907   4.699   4.177  0.1710 -1.5221 -0.5703
19956TIP3    H281284   4.048   4.652   4.202  0.9506  1.0747  0.1974
19957TIP3   OH281285   3.881   0.198  12.180  0.1018  0.4356 -0.1289
19957TIP3    H181286   3.908   0.124  12.125  2.2839  0.2778  1.0121
19957TIP3    H281287   3.932   0.272  12.147 -2.2505  1.5582 -1.4255
19958TIP3   OH281288   4.778   5.278   1.176 -0.4990 -0.4456  0.6213
19958TIP3    H181289   4.757   5.372   1.176  0.8863 -0.0945 -0.5821
19958TIP3    H281290   4.740   5.245   1.095 -0.3566 -0.7605  0.6838
19959TIP3   OH281291   3.313   1.345  16.669 -0.2030  0.1151  0.7241
19959TIP3    H181292   3.264   1.286  16.612  1.1088 -1.2953  0.9839
19959TIP3    H281293   3.299   1.432  16.632 -0.7568 -0.5718 -0.7341
19960TIP3   OH281294   4.261   1.034   2.752  0.8657 -0.1449 -0.2496
19960TIP3    H181295   4.244   0.994   2.666  0.1946  1.3692 -0.8541
19960TIP3    H281296   4.193   0.998   2.809  0.6388 -0.3327 -0.6309
19961TIP3   OH281297   5.664   3.211  12.672  0.0495 -0.2429 -0.0855
19961TIP3    H181298   5.748   3.257  12.663  0.2323 -0.6130 -0.3239
19961TIP3    H281299   5.601   3.279  12.695  0.4910 -0.0168  0.4896
19962TIP3   OH281300   3.684   5.332  11.672 -0.1654 -0.2275 -0.1013
19962TIP3    H181301   3.709   5.383  11.749 -0.3022 -1.1190  0.5415
19962TIP3    H281302   3.593   5.357  11.656 -0.2096 -0.2091  0.1707
19963TIP3   OH281303   5.141   0.961  15.231  0.0245 -0.2699 -0.3407
19963TIP3    H181304   5.106   0.907  15.160  1.2173  1.0979 -2.0742
19963TIP3    H281305   5.206   0.905  15.273 -0.7743 -1.1459 -0.2457
19964TIP3   OH281306   2.950   0.149  11.859 -0.2369  0.0347 -0.6004
19964TIP3    H181307   2.877   0.088  11.848  0.3591 -0.8260  0.0241
19964TIP3    H281308   2.911   0.227  11.898 -0.8572 -0.3375 -0.4743
19965TIP3   OH281309   0.939   2.733   0.111 -0.0401 -0.0525 -0.2547
19965TIP3    H181310   0.883   2.751   0.186  0.1627  1.3552 -0.4149
19965TIP3    H281311   1.007   2.800   0.115 -1.2489  1.4818 -2.8892
19966TIP3   OH281312   6.270   5.570   3.283  0.2527 -0.5866  0.4857
19966TIP3    H181313   6.248   5.608   3.198 -4.2382 -0.7580  1.2832
19966TIP3    H281314   6.257   5.642   3.345  0.6345 -1.1684  1.2562
19967TIP3   OH281315   2.364   0.650   2.147  0.0306  0.2751 -0.2465
19967TIP3    H181316   2.342   0.736   2.183 -0.8778  0.0673 -0.2807
19967TIP3    H281317   2.292   0.594   2.175  0.3312 -0.3461 -0.7082
19968TIP3   OH281318   5.434   3.027   5.051  0.5360 -0.0766  0.1386
19968TIP3    H181319   5.354   3.002   5.005  0.8081 -1.1487  0.2141
19968TIP3    H281320   5.505   2.996   4.994  0.9229  1.2172 -0.1258
19969TIP3   OH281321   5.990   2.792   2.422 -0.0280  0.5660  0.3871
19969TIP3    H181322   5.941   2.714   2.447 -3.0662  2.3984  0.6928
19969TIP3    H281323   5.977   2.799   2.327  0.7595  0.4203  0.2584
19970TIP3   OH281324   6.004   1.709   5.398  0.6022  0.5900  0.0792
19970TIP3    H181325   5.945   1.729   5.471 -0.1209  1.1388 -0.6323
19970TIP3    H281326   5.977   1.769   5.328  2.7081  1.6272  0.0649
19971TIP3   OH281327   4.541   3.733  14.515 -0.6641 -0.6147  0.1825
19971TIP3    H181328   4.606   3.681  14.469  0.6180  2.5736 -2.0114
19971TIP3    H281329   4.464   3.732  14.457 -0.2339  0.6868 -0.4649
19972TIP3   OH281330   1.631   4.741  13.155  0.5338 -0.0549 -0.1628
19972TIP3    H181331   1.618   4.765  13.246  0.2793 -0.8427  0.0146
19972TIP3    H281332   1.544   4.717  13.123  0.9184 -1.8431  0.0090
19973TIP3   OH281333   6.317   3.397   1.183 -0.5964 -0.0548 -0.5633
19973TIP3    H181334   6.372   3.474   1.192  0.9594 -0.9969 -1.6163
19973TIP3    H281335   6.230   3.432   1.164 -0.6226  1.4880  1.9210
19974TIP3   OH281336   0.695   6.160  14.762  0.5824  0.5085 -0.4295
19974TIP3    H181337   0.721   6.251  14.747  1.1424  0.6593  1.2449
19974TIP3    H281338   0.775   6.116  14.790 -0.0279 -0.0730  0.4753
19975TIP3   OH281339   6.282   0.067  14.030  0.5151  0.2737  0.7302
19975TIP3    H181340   6.321  -0.016  14.057 -0.1873 -0.4865 -0.4816
19975TIP3    H281341   6.216   0.084  14.097 -0.1647 -0.7873  0.3653
19976TIP3   OH281342   6.116   2.913  13.520 -0.3693 -0.4583  0.5533
19976TIP3    H181343   6.034   2.908  13.470 -0.6176 -1.9628  1.0601
19976TIP3    H281344   6.185   2.899  13.454 -0.3745  2.1591 -0.1162
19977TIP3   OH281345   2.771   2.726   6.640  0.3635  0.1239  0.4364
19977TIP3    H181346   2.748   2.819   6.648  0.5183  0.2969 -0.7971
19977TIP3    H281347   2.690   2.683   6.613  0.6795  0.2116 -0.7371
19978TIP3   OH281348   4.773   0.474  14.638 -0.4930 -0.6048  0.3225
19978TIP3    H181349   4.821   0.451  14.717 -0.8078  0.8533  0.9540
19978TIP3    H281350   4.817   0.552  14.604 -0.4614 -1.1136 -0.8623
19979TIP3   OH281351   1.257   5.618   5.348 -0.4446  0.7547  0.1780
19979TIP3    H181352   1.348   5.635   5.372  0.0357  0.2763 -1.2115
19979TIP3    H281353   1.225   5.702   5.315 -0.4783  0.8893  0.5441
19980TIP3   OH281354   5.291   5.213   2.763 -0.0639 -1.3461  0.2171
19980TIP3    H181355   5.335   5.162   2.695 -0.4897 -2.7312  0.9406
19980TIP3    H281356   5.323   5.302   2.751  2.5263 -2.1703  0.3316
19981TIP3   OH281357   4.919   1.311   0.518 -0.3410  0.0845  0.1524
19981TIP3    H181358   4.877   1.290   0.601 -0.9995 -0.8427 -0.4059
19981TIP3    H281359   4.996   1.255   0.515 -1.7320 -1.8682 -1.0276
19982TIP3   OH281360   1.785   4.962  13.964  0.2524 -0.4218 -0.7442
19982TIP3    H181361   1.854   4.980  14.027  1.6278 -2.4290 -1.5791
19982TIP3    H281362   1.720   4.911  14.014  0.2231 -0.0619 -0.4083
19983TIP3   OH281363   4.104   4.176   3.083 -0.1170 -0.4925 -0.0199
19983TIP3    H181364   4.109   4.216   2.996  0.6332 -1.7502 -0.5893
19983TIP3    H281365   4.191   4.141   3.099 -0.4296 -0.8786  0.9501
19984TIP3   OH281366   4.064   5.621  16.450 -0.6413  0.0429  0.7845
19984TIP3    H181367   4.007   5.608  16.374 -0.6450 -0.4050  0.8605
19984TIP3    H281368   4.124   5.546  16.448  0.0642  0.5936  0.6017
19985TIP3   OH281369   3.156   5.600   4.897 -0.4963  0.2451  0.5831
19985TIP3    H181370   3.216   5.532   4.930  1.1122  1.2836 -0.0629
19985TIP3    H281371   3.133   5.651   4.974  1.7908  1.5641  0.4801
19986LIG      O81372   1.594   1.639  16.699  0.0491 -0.1115 -0.1805
19986LIG     C181373   1.673   1.546  16.769  0.3926 -0.0557  0.0032
19986LIG     C281374   1.821   1.581  16.757  0.5845 -0.0053 -0.4781
19986LIG     C381375   1.621   1.563  16.913  0.0356  0.1109  0.0332
19986LIG     H181376   1.648   1.445  16.728  0.6464  0.1893 -0.7654
19986LIG     H281377   1.837   1.677  16.811  0.9442 -0.4359  0.1904
19986LIG     H381378   1.860   1.588  16.653 -0.8564  2.3324 -0.9416
19986LIG     H481379   1.884   1.508  16.812  0.5861 -1.1006 -1.8809
19986LIG     H581380   1.685   1.503  16.981  0.0314  0.3129  0.2161
19986LIG     H681381   1.511   1.551  16.927  0.0796 -0.0398  0.2569
19986LIG     H781382   1.639   1.669  16.940 -0.8308 -0.0267  1.2564
19986LIG     H881383   1.606   1.722  16.746 -0.8350 -0.0719 -0.0059
   6.81170   6.81170  17.17671
